<event>
 4    5  0.1112901E-007  0.7387114E+03  0.7818608E-02  0.9863717E-01
         -2   -1    0    0    0  501 -0.00000000000E+00  0.00000000000E+00  0.21150951043E+03  0.21150951044E+03  0.25500000000E-02 0.  1.
          2   -1    0    0  501    0  0.00000000000E+00 -0.00000000000E+00 -0.16412660035E+04  0.16412660035E+04  0.25500000000E-02 0. -1.
    8880023    1    1    2    0    0  0.33222434232E+03 -0.38874654554E+02 -0.62379550824E+03  0.96685846677E+03  0.65864270000E+03 0.  1.
    8880022    1    1    2    0    0 -0.33222434232E+03  0.38874654554E+02 -0.80596098486E+03  0.88591704720E+03  0.15294330000E+03 0. -1.
<mgrwt>
<rscale>  0 0.62052407E+03</rscale>
<asrwt>0</asrwt>
<pdfrwt beam="1">  1        2 0.25250245E+00 0.73871135E+03</pdfrwt>
<pdfrwt beam="2">  1       -2 0.32539926E-01 0.73871135E+03</pdfrwt>
<totfact> 0.95063151E+01</totfact>
</mgrwt>
</event>
<event>
 4    5  0.1112901E-007  0.1068229E+04  0.7818608E-02  0.9297282E-01
         -2   -1    0    0    0  501 -0.00000000000E+00  0.00000000000E+00  0.89803717431E+03  0.89803717431E+03  0.25500000000E-02 0.  1.
          2   -1    0    0  501    0  0.00000000000E+00 -0.00000000000E+00 -0.28435854659E+04  0.28435854659E+04  0.25500000000E-02 0. -1.
    8880023    1    1    2    0    0  0.83371123362E+03  0.11058507265E+03  0.47906876158E+03  0.11707350528E+04  0.65864270000E+03 0.  0.
    8880022    1    1    2    0    0 -0.83371123362E+03 -0.11058507265E+03 -0.24246170532E+04  0.25708875874E+04  0.15294330000E+03 0.  0.
<mgrwt>
<rscale>  0 0.10103349E+04</rscale>
<asrwt>0</asrwt>
<pdfrwt beam="1">  1        2 0.43747468E+00 0.10682292E+04</pdfrwt>
<pdfrwt beam="2">  1       -2 0.13815957E+00 0.10682292E+04</pdfrwt>
<totfact> 0.81057556E-01</totfact>
</mgrwt>
</event>
<event>
 4    5  0.1112901E-007  0.7349798E+03  0.7818608E-02  0.9874819E-01
          2   -1    0    0  501    0  0.00000000000E+00  0.00000000000E+00  0.49533692724E+03  0.49533692724E+03  0.25500000000E-02 0. -1.
         -2   -1    0    0    0  501 -0.00000000000E+00 -0.00000000000E+00 -0.10556868025E+04  0.10556868025E+04  0.25500000000E-02 0.  1.
    8880023    1    1    2    0    0 -0.16420898537E+03  0.28181652703E+03 -0.82433335192E+03  0.11044097189E+04  0.65864270000E+03 0.  1.
    8880022    1    1    2    0    0  0.16420898537E+03 -0.28181652703E+03  0.26398347663E+03  0.44661401090E+03  0.15294330000E+03 0.  0.
<mgrwt>
<rscale>  0 0.61497321E+03</rscale>
<asrwt>0</asrwt>
<pdfrwt beam="1">  1        2 0.76205681E-01 0.73497983E+03</pdfrwt>
<pdfrwt beam="2">  1       -2 0.16241335E+00 0.73497983E+03</pdfrwt>
<totfact> 0.15295073E+01</totfact>
</mgrwt>
</event>
<event>
 4    5  0.1112901E-007  0.1072495E+04  0.7818608E-02  0.9292316E-01
          2   -1    0    0  501    0  0.00000000000E+00  0.00000000000E+00  0.11248483212E+04  0.11248483212E+04  0.25500000000E-02 0. -1.
         -2   -1    0    0    0  501 -0.00000000000E+00 -0.00000000000E+00 -0.13168334323E+04  0.13168334323E+04  0.25500000000E-02 0.  1.
    8880023    1    1    2    0    0  0.81845019223E+03  0.21581078639E+03 -0.84202622379E+03  0.13635444182E+04  0.65864270000E+03 0.  0.
    8880022    1    1    2    0    0 -0.81845019223E+03 -0.21581078639E+03  0.65004111266E+03  0.10781373353E+04  0.15294330000E+03 0.  0.
<mgrwt>
<rscale>  0 0.10149337E+04</rscale>
<asrwt>0</asrwt>
<pdfrwt beam="1">  1        2 0.17305359E+00 0.10724949E+04</pdfrwt>
<pdfrwt beam="2">  1       -2 0.20258976E+00 0.10724949E+04</pdfrwt>
<totfact> 0.26477929E+00</totfact>
</mgrwt>
</event>
<event>
 4    5  0.1112901E-007  0.2086826E+04  0.7818608E-02  0.8578546E-01
         -2   -1    0    0    0  501 -0.00000000000E+00  0.00000000000E+00  0.39242868115E+04  0.39242868115E+04  0.25500000000E-02 0.  1.
          2   -1    0    0  501    0  0.00000000000E+00 -0.00000000000E+00 -0.16695168311E+04  0.16695168311E+04  0.25500000000E-02 0. -1.
    8880023    1    1    2    0    0  0.92152889731E+03  0.17526601845E+04  0.28391280142E+04  0.35235623051E+04  0.65864270000E+03 0.  0.
    8880022    1    1    2    0    0 -0.92152889731E+03 -0.17526601845E+04 -0.58435803375E+03  0.20702413375E+04  0.15294330000E+03 0.  0.
<mgrwt>
<rscale>  0 0.20611646E+04</rscale>
<asrwt>0</asrwt>
<pdfrwt beam="1">  1        2 0.25684874E+00 0.20868262E+04</pdfrwt>
<pdfrwt beam="2">  1       -2 0.60373643E+00 0.20868262E+04</pdfrwt>
<totfact> 0.42805177E-03</totfact>
</mgrwt>
</event>
<event>
 4    5  0.1112901E-007  0.8903464E+03  0.7818608E-02  0.9541710E-01
         -2   -1    0    0    0  501 -0.00000000000E+00  0.00000000000E+00  0.54590046980E+03  0.54590046981E+03  0.25500000000E-02 0.  1.
          2   -1    0    0  501    0  0.00000000000E+00 -0.00000000000E+00 -0.14032947517E+04  0.14032947517E+04  0.25500000000E-02 0. -1.
    8880023    1    1    2    0    0 -0.28706416317E+03  0.52583323230E+03  0.21737677088E+01  0.89034900657E+03  0.65864270000E+03 0.  1.
    8880022    1    1    2    0    0  0.28706416317E+03 -0.52583323230E+03 -0.85956804962E+03  0.10588462150E+04  0.15294330000E+03 0.  0.
<mgrwt>
<rscale>  0 0.81277344E+03</rscale>
<asrwt>0</asrwt>
<pdfrwt beam="1">  1        2 0.21589150E+00 0.89034635E+03</pdfrwt>
<pdfrwt beam="2">  1       -2 0.83984688E-01 0.89034635E+03</pdfrwt>
<totfact> 0.17960398E+01</totfact>
</mgrwt>
</event>
<event>
 4    5  0.1112901E-007  0.1398175E+04  0.7818608E-02  0.8985102E-01
          2   -1    0    0  501    0  0.00000000000E+00  0.00000000000E+00  0.19918327182E+04  0.19918327182E+04  0.25500000000E-02 0. -1.
         -2   -1    0    0    0  501 -0.00000000000E+00 -0.00000000000E+00 -0.16531047997E+04  0.16531047997E+04  0.25500000000E-02 0.  1.
    8880023    1    1    2    0    0 -0.12201133576E+04  0.18002198751E+03 -0.10742338847E+04  0.17631996957E+04  0.65864270000E+03 0.  0.
    8880022    1    1    2    0    0  0.12201133576E+04 -0.18002198751E+03  0.14129618032E+04  0.18817378222E+04  0.15294330000E+03 0.  0.
<mgrwt>
<rscale>  0 0.13575909E+04</rscale>
<asrwt>0</asrwt>
<pdfrwt beam="1">  1        2 0.30643580E+00 0.13981755E+04</pdfrwt>
<pdfrwt beam="2">  1       -2 0.25432382E+00 0.13981755E+04</pdfrwt>
<totfact> 0.38714369E-01</totfact>
</mgrwt>
</event>
<event>
 4    5  0.1112901E-007  0.9376938E+03  0.7818608E-02  0.9468046E-01
          2   -1    0    0  501    0  0.00000000000E+00  0.00000000000E+00  0.59713974493E+03  0.59713974494E+03  0.25500000000E-02 0. -1.
         -2   -1    0    0    0  501 -0.00000000000E+00 -0.00000000000E+00 -0.25213139311E+04  0.25213139311E+04  0.25500000000E-02 0.  1.
    8880023    1    1    2    0    0  0.75120834789E+02 -0.66318649957E+03 -0.21912743857E+04  0.23834750078E+04  0.65864270000E+03 0.  1.
    8880022    1    1    2    0    0 -0.75120834789E+02  0.66318649957E+03  0.26710019961E+03  0.73497866818E+03  0.15294330000E+03 0.  0.
<mgrwt>
<rscale>  0 0.86681248E+03</rscale>
<asrwt>0</asrwt>
<pdfrwt beam="1">  1        2 0.91867654E-01 0.93769381E+03</pdfrwt>
<pdfrwt beam="2">  1       -2 0.38789445E+00 0.93769381E+03</pdfrwt>
<totfact> 0.45640033E-01</totfact>
</mgrwt>
</event>
<event>
 4    5  0.1112901E-007  0.9200325E+03  0.7818608E-02  0.9494609E-01
          2   -1    0    0  501    0  0.00000000000E+00  0.00000000000E+00  0.89178793526E+03  0.89178793526E+03  0.25500000000E-02 0. -1.
         -2   -1    0    0    0  501 -0.00000000000E+00 -0.00000000000E+00 -0.96097954777E+03  0.96097954777E+03  0.25500000000E-02 0.  1.
    8880023    1    1    2    0    0 -0.22459206226E+03  0.60183712462E+03 -0.51658981219E+03  0.10551420565E+04  0.65864270000E+03 0.  1.
    8880022    1    1    2    0    0  0.22459206226E+03 -0.60183712462E+03  0.44739819968E+03  0.79762542656E+03  0.15294330000E+03 0.  0.
<mgrwt>
<rscale>  0 0.84682428E+03</rscale>
<asrwt>0</asrwt>
<pdfrwt beam="1">  1        2 0.13719814E+00 0.92003246E+03</pdfrwt>
<pdfrwt beam="2">  1       -2 0.14784301E+00 0.92003246E+03</pdfrwt>
<totfact> 0.92365236E+00</totfact>
</mgrwt>
</event>
<event>
 4    5  0.1112901E-007  0.8484432E+03  0.7818608E-02  0.9614461E-01
         -2   -1    0    0    0  501 -0.00000000000E+00  0.00000000000E+00  0.41673824820E+03  0.41673824821E+03  0.25500000000E-02 0.  1.
          2   -1    0    0  501    0  0.00000000000E+00 -0.00000000000E+00 -0.21894369250E+04  0.21894369250E+04  0.25500000000E-02 0. -1.
    8880023    1    1    2    0    0 -0.53464705540E+03  0.14075051565E+02 -0.11324379050E+03  0.85596725596E+03  0.65864270000E+03 0.  1.
    8880022    1    1    2    0    0  0.53464705540E+03 -0.14075051565E+02 -0.16594548863E+04  0.17502079173E+04  0.15294330000E+03 0.  0.
<mgrwt>
<rscale>  0 0.76346412E+03</rscale>
<asrwt>0</asrwt>
<pdfrwt beam="1">  1        2 0.33683644E+00 0.84844315E+03</pdfrwt>
<pdfrwt beam="2">  1       -2 0.64113578E-01 0.84844315E+03</pdfrwt>
<totfact> 0.12066731E+01</totfact>
</mgrwt>
</event>
<event>
 4    5  0.1112901E-007  0.1008406E+04  0.7818608E-02  0.9370641E-01
         -2   -1    0    0    0  501 -0.00000000000E+00  0.00000000000E+00  0.15509690930E+04  0.15509690930E+04  0.25500000000E-02 0.  1.
          2   -1    0    0  501    0  0.00000000000E+00 -0.00000000000E+00 -0.14837671748E+04  0.14837671748E+04  0.25500000000E-02 0. -1.
    8880023    1    1    2    0    0 -0.37790550187E+02 -0.76265669747E+03  0.12577644231E+04  0.16120964345E+04  0.65864270000E+03 0.  0.
    8880022    1    1    2    0    0  0.37790550187E+02  0.76265669747E+03 -0.11905625049E+04  0.14226398332E+04  0.15294330000E+03 0.  0.
<mgrwt>
<rscale>  0 0.94531692E+03</rscale>
<asrwt>0</asrwt>
<pdfrwt beam="1">  1        2 0.22827187E+00 0.10084065E+04</pdfrwt>
<pdfrwt beam="2">  1       -2 0.23861063E+00 0.10084065E+04</pdfrwt>
<totfact> 0.97533549E-01</totfact>
</mgrwt>
</event>
<event>
 4    5  0.1112901E-007  0.1408703E+04  0.7818608E-02  0.8976950E-01
          2   -1    0    0  501    0  0.00000000000E+00  0.00000000000E+00  0.14393401652E+04  0.14393401652E+04  0.25500000000E-02 0. -1.
         -2   -1    0    0    0  501 -0.00000000000E+00 -0.00000000000E+00 -0.19274231295E+04  0.19274231295E+04  0.25500000000E-02 0.  1.
    8880023    1    1    2    0    0 -0.99115577077E+03 -0.75381951914E+03 -0.12631264478E+04  0.18920708916E+04  0.65864270000E+03 0.  0.
    8880022    1    1    2    0    0  0.99115577077E+03  0.75381951914E+03  0.77504348354E+03  0.14746924031E+04  0.15294330000E+03 0.  0.
<mgrwt>
<rscale>  0 0.13684881E+04</rscale>
<asrwt>0</asrwt>
<pdfrwt beam="1">  1        2 0.22143695E+00 0.14087029E+04</pdfrwt>
<pdfrwt beam="2">  1       -2 0.29652664E+00 0.14087029E+04</pdfrwt>
<totfact> 0.43610717E-01</totfact>
</mgrwt>
</event>
<event>
 4    5  0.1112901E-007  0.6666872E+03  0.7818608E-02  0.1018158E+00
          2   -1    0    0  501    0  0.00000000000E+00  0.00000000000E+00  0.93090594715E+03  0.93090594716E+03  0.25500000000E-02 0. -1.
         -2   -1    0    0    0  501 -0.00000000000E+00 -0.00000000000E+00 -0.30165825938E+03  0.30165825939E+03  0.25500000000E-02 0.  1.
    8880023    1    1    2    0    0 -0.87144814245E+02  0.55384088685E+02  0.10261741225E+03  0.67453847592E+03  0.65864270000E+03 0.  0.
    8880022    1    1    2    0    0  0.87144814245E+02 -0.55384088685E+02  0.52663027552E+03  0.55802573063E+03  0.15294330000E+03 0. -1.
<mgrwt>
<rscale>  0 0.48357233E+03</rscale>
<asrwt>0</asrwt>
<pdfrwt beam="1">  1        2 0.14321630E+00 0.66668720E+03</pdfrwt>
<pdfrwt beam="2">  1       -2 0.46408963E-01 0.66668720E+03</pdfrwt>
<totfact> 0.12527957E+02</totfact>
</mgrwt>
</event>
<event>
 4    5  0.1112901E-007  0.9262406E+03  0.7818608E-02  0.9485156E-01
         -2   -1    0    0    0  501 -0.00000000000E+00  0.00000000000E+00  0.20167136862E+03  0.20167136864E+03  0.25500000000E-02 0.  1.
          2   -1    0    0  501    0  0.00000000000E+00 -0.00000000000E+00 -0.37454918403E+04  0.37454918403E+04  0.25500000000E-02 0. -1.
    8880023    1    1    2    0    0 -0.48145635408E+03 -0.43853293707E+03 -0.12372499837E+04  0.15455449156E+04  0.65864270000E+03 0. -1.
    8880022    1    1    2    0    0  0.48145635408E+03  0.43853293707E+03 -0.23065704880E+04  0.24016182933E+04  0.15294330000E+03 0.  0.
<mgrwt>
<rscale>  0 0.85387115E+03</rscale>
<asrwt>0</asrwt>
<pdfrwt beam="1">  1        2 0.57622946E+00 0.92624055E+03</pdfrwt>
<pdfrwt beam="2">  1       -2 0.31026367E-01 0.92624055E+03</pdfrwt>
<totfact> 0.54947917E+00</totfact>
</mgrwt>
</event>
<event>
 4    5  0.1112901E-007  0.1430628E+04  0.7818608E-02  0.8960242E-01
          2   -1    0    0  501    0  0.00000000000E+00  0.00000000000E+00  0.16247687743E+04  0.16247687743E+04  0.25500000000E-02 0. -1.
         -2   -1    0    0    0  501 -0.00000000000E+00 -0.00000000000E+00 -0.19922170841E+04  0.19922170841E+04  0.25500000000E-02 0.  1.
    8880023    1    1    2    0    0  0.11150048644E+04  0.60798818202E+03 -0.13783470918E+04  0.19865891344E+04  0.65864270000E+03 0.  0.
    8880022    1    1    2    0    0 -0.11150048644E+04 -0.60798818202E+03  0.10108987820E+04  0.16303967240E+04  0.15294330000E+03 0.  0.
<mgrwt>
<rscale>  0 0.13911600E+04</rscale>
<asrwt>0</asrwt>
<pdfrwt beam="1">  1        2 0.24996443E+00 0.14306277E+04</pdfrwt>
<pdfrwt beam="2">  1       -2 0.30649493E+00 0.14306277E+04</pdfrwt>
<totfact> 0.29680948E-01</totfact>
</mgrwt>
</event>
<event>
 4    5  0.1112901E-007  0.9959217E+03  0.7818608E-02  0.9386913E-01
          2   -1    0    0  501    0  0.00000000000E+00  0.00000000000E+00  0.14630137109E+04  0.14630137109E+04  0.25500000000E-02 0. -1.
         -2   -1    0    0    0  501 -0.00000000000E+00 -0.00000000000E+00 -0.78512468358E+03  0.78512468358E+03  0.25500000000E-02 0.  1.
    8880023    1    1    2    0    0  0.54904644482E+03 -0.50655489388E+03 -0.26975058473E+03  0.10318068828E+04  0.65864270000E+03 0.  1.
    8880022    1    1    2    0    0 -0.54904644482E+03  0.50655489388E+03  0.94763961208E+03  0.12163315118E+04  0.15294330000E+03 0.  0.
<mgrwt>
<rscale>  0 0.93160574E+03</rscale>
<asrwt>0</asrwt>
<pdfrwt beam="1">  1        2 0.22507903E+00 0.99592172E+03</pdfrwt>
<pdfrwt beam="2">  1       -2 0.12078841E+00 0.99592172E+03</pdfrwt>
<totfact> 0.69185837E+00</totfact>
</mgrwt>
</event>
<event>
 4    5  0.1112901E-007  0.8367747E+03  0.7818608E-02  0.9636292E-01
          2   -1    0    0  501    0  0.00000000000E+00  0.00000000000E+00  0.24308882875E+04  0.24308882875E+04  0.25500000000E-02 0. -1.
         -2   -1    0    0    0  501 -0.00000000000E+00 -0.00000000000E+00 -0.95900975161E+03  0.95900975161E+03  0.25500000000E-02 0.  1.
    8880023    1    1    2    0    0  0.37491133254E+03 -0.35471562047E+03 -0.73780338628E+03  0.11155920947E+04  0.65864270000E+03 0.  1.
    8880022    1    1    2    0    0 -0.37491133254E+03  0.35471562047E+03  0.22096819222E+04  0.22743059444E+04  0.15294330000E+03 0.  0.
<mgrwt>
<rscale>  0 0.74940003E+03</rscale>
<asrwt>0</asrwt>
<pdfrwt beam="1">  1        2 0.37398282E+00 0.83677469E+03</pdfrwt>
<pdfrwt beam="2">  1       -2 0.14753996E+00 0.83677469E+03</pdfrwt>
<totfact> 0.12333223E+00</totfact>
</mgrwt>
</event>
<event>
 4    5  0.1112901E-007  0.1030109E+04  0.7818608E-02  0.9343185E-01
         -2   -1    0    0    0  501 -0.00000000000E+00  0.00000000000E+00  0.30635343830E+03  0.30635343831E+03  0.25500000000E-02 0.  1.
          2   -1    0    0  501    0  0.00000000000E+00 -0.00000000000E+00 -0.31705370921E+04  0.31705370921E+04  0.25500000000E-02 0. -1.
    8880023    1    1    2    0    0 -0.17417418249E+03  0.77264299153E+03 -0.95666785982E+03  0.14058226910E+04  0.65864270000E+03 0.  1.
    8880022    1    1    2    0    0  0.17417418249E+03 -0.77264299153E+03 -0.19075157940E+04  0.20710678395E+04  0.15294330000E+03 0.  0.
<mgrwt>
<rscale>  0 0.96902586E+03</rscale>
<asrwt>0</asrwt>
<pdfrwt beam="1">  1        2 0.48777492E+00 0.10301088E+04</pdfrwt>
<pdfrwt beam="2">  1       -2 0.47131300E-01 0.10301088E+04</pdfrwt>
<totfact> 0.59172536E+00</totfact>
</mgrwt>
</event>
<event>
 4    5  0.1112901E-007  0.8646125E+03  0.7818608E-02  0.9585411E-01
          2   -1    0    0  501    0  0.00000000000E+00  0.00000000000E+00  0.13406193748E+04  0.13406193748E+04  0.25500000000E-02 0. -1.
         -2   -1    0    0    0  501 -0.00000000000E+00 -0.00000000000E+00 -0.83497749937E+03  0.83497749937E+03  0.25500000000E-02 0.  1.
    8880023    1    1    2    0    0  0.15916403405E+03 -0.53703945585E+03 -0.51136352481E+03  0.10045135279E+04  0.65864270000E+03 0.  0.
    8880022    1    1    2    0    0 -0.15916403405E+03  0.53703945585E+03  0.10170054003E+04  0.11710833463E+04  0.15294330000E+03 0.  0.
<mgrwt>
<rscale>  0 0.78269365E+03</rscale>
<asrwt>0</asrwt>
<pdfrwt beam="1">  1        2 0.20624913E+00 0.86461250E+03</pdfrwt>
<pdfrwt beam="2">  1       -2 0.12845808E+00 0.86461250E+03</pdfrwt>
<totfact> 0.70609175E+00</totfact>
</mgrwt>
</event>
<event>
 4    5  0.1112901E-007  0.8335047E+03  0.7818608E-02  0.9642551E-01
          2   -1    0    0  501    0  0.00000000000E+00  0.00000000000E+00  0.14255971736E+04  0.14255971736E+04  0.25500000000E-02 0. -1.
         -2   -1    0    0    0  501 -0.00000000000E+00 -0.00000000000E+00 -0.70877889517E+03  0.70877889517E+03  0.25500000000E-02 0.  1.
    8880023    1    1    2    0    0 -0.20058757704E+03  0.46977071327E+03 -0.37906945361E+03  0.91565482363E+03  0.65864270000E+03 0.  1.
    8880022    1    1    2    0    0  0.20058757704E+03 -0.46977071327E+03  0.10958877321E+04  0.12187212452E+04  0.15294330000E+03 0.  0.
<mgrwt>
<rscale>  0 0.74542741E+03</rscale>
<asrwt>0</asrwt>
<pdfrwt beam="1">  1        2 0.21932264E+00 0.83350471E+03</pdfrwt>
<pdfrwt beam="2">  1       -2 0.10904291E+00 0.83350471E+03</pdfrwt>
<totfact> 0.95072913E+00</totfact>
</mgrwt>
</event>
<event>
 4    5  0.1112901E-007  0.1185290E+04  0.7818608E-02  0.9171556E-01
         -2   -1    0    0    0  501 -0.00000000000E+00  0.00000000000E+00  0.88687777475E+03  0.88687777475E+03  0.25500000000E-02 0.  1.
          2   -1    0    0  501    0  0.00000000000E+00 -0.00000000000E+00 -0.37376621550E+04  0.37376621550E+04  0.25500000000E-02 0. -1.
    8880023    1    1    2    0    0 -0.80664308364E+03  0.56606406296E+03  0.37891633693E+03  0.12443831341E+04  0.65864270000E+03 0.  0.
    8880022    1    1    2    0    0  0.80664308364E+03 -0.56606406296E+03 -0.32297007172E+04  0.33801567957E+04  0.15294330000E+03 0.  0.
<mgrwt>
<rscale>  0 0.11351902E+04</rscale>
<asrwt>0</asrwt>
<pdfrwt beam="1">  1        2 0.57502494E+00 0.11852898E+04</pdfrwt>
<pdfrwt beam="2">  1       -2 0.13644274E+00 0.11852898E+04</pdfrwt>
<totfact> 0.21099607E-01</totfact>
</mgrwt>
</event>
<event>
 4    5  0.1112901E-007  0.6608183E+03  0.7818608E-02  0.1023333E+00
         -2   -1    0    0    0  501 -0.00000000000E+00  0.00000000000E+00  0.11447934538E+03  0.11447934541E+03  0.25500000000E-02 0.  1.
          2   -1    0    0  501    0  0.00000000000E+00 -0.00000000000E+00 -0.27802099969E+04  0.27802099969E+04  0.25500000000E-02 0. -1.
    8880023    1    1    2    0    0 -0.48194608969E+02  0.23408557721E+02 -0.87427449695E+03  0.10959182375E+04  0.65864270000E+03 0.  1.
    8880022    1    1    2    0    0  0.48194608969E+02 -0.23408557721E+02 -0.17914561545E+04  0.17987711048E+04  0.15294330000E+03 0.  0.
<mgrwt>
<rscale>  0 0.46502707E+03</rscale>
<asrwt>0</asrwt>
<pdfrwt beam="1">  1        2 0.42772456E+00 0.66081835E+03</pdfrwt>
<pdfrwt beam="2">  1       -2 0.17612209E-01 0.66081835E+03</pdfrwt>
<totfact> 0.67156671E+01</totfact>
</mgrwt>
</event>
<event>
 4    5  0.1112901E-007  0.8836568E+03  0.7818608E-02  0.9552794E-01
         -2   -1    0    0    0  501 -0.00000000000E+00  0.00000000000E+00  0.42979410957E+03  0.42979410958E+03  0.25500000000E-02 0.  1.
          2   -1    0    0  501    0  0.00000000000E+00 -0.00000000000E+00 -0.15401784515E+04  0.15401784516E+04  0.25500000000E-02 0. -1.
    8880023    1    1    2    0    0  0.29372603610E+03  0.51065067463E+03 -0.10283178904E+04  0.13558344242E+04  0.65864270000E+03 0.  0.
    8880022    1    1    2    0    0 -0.29372603610E+03 -0.51065067463E+03 -0.82066451599E+02  0.61413813697E+03  0.15294330000E+03 0.  0.
<mgrwt>
<rscale>  0 0.80500965E+03</rscale>
<asrwt>0</asrwt>
<pdfrwt beam="1">  1        2 0.23695053E+00 0.88365678E+03</pdfrwt>
<pdfrwt beam="2">  1       -2 0.66122171E-01 0.88365678E+03</pdfrwt>
<totfact> 0.25589779E+01</totfact>
</mgrwt>
</event>
<event>
 4    5  0.1112901E-007  0.6725294E+03  0.7818608E-02  0.1013911E+00
         -2   -1    0    0    0  501 -0.00000000000E+00  0.00000000000E+00  0.53860464701E+03  0.53860464702E+03  0.25500000000E-02 0.  1.
          2   -1    0    0  501    0  0.00000000000E+00 -0.00000000000E+00 -0.65275726303E+03  0.65275726304E+03  0.25500000000E-02 0. -1.
    8880023    1    1    2    0    0  0.39416755606E+02  0.13012263553E+03  0.29461612107E+03  0.73423051282E+03  0.65864270000E+03 0.  1.
    8880022    1    1    2    0    0 -0.39416755606E+02 -0.13012263553E+03 -0.40876873709E+03  0.45713139723E+03  0.15294330000E+03 0.  0.
<mgrwt>
<rscale>  0 0.49949449E+03</rscale>
<asrwt>0</asrwt>
<pdfrwt beam="1">  1        2 0.10042419E+00 0.67252940E+03</pdfrwt>
<pdfrwt beam="2">  1       -2 0.82862254E-01 0.67252940E+03</pdfrwt>
<totfact> 0.58149033E+01</totfact>
</mgrwt>
</event>
<event>
 4    5  0.1112901E-007  0.8170432E+03  0.7818608E-02  0.9675089E-01
         -2   -1    0    0    0  501 -0.00000000000E+00  0.00000000000E+00  0.19994623843E+04  0.19994623843E+04  0.25500000000E-02 0.  1.
          2   -1    0    0  501    0  0.00000000000E+00 -0.00000000000E+00 -0.30607915080E+03  0.30607915081E+03  0.25500000000E-02 0. -1.
    8880023    1    1    2    0    0 -0.46960992796E+03 -0.11496048882E+03  0.15905485567E+04  0.17881287191E+04  0.65864270000E+03 0.  1.
    8880022    1    1    2    0    0  0.46960992796E+03  0.11496048882E+03  0.10283467677E+03  0.51741281603E+03  0.15294330000E+03 0. -1.
<mgrwt>
<rscale>  0 0.72519566E+03</rscale>
<asrwt>0</asrwt>
<pdfrwt beam="1">  1        2 0.47089102E-01 0.81704321E+03</pdfrwt>
<pdfrwt beam="2">  1       -2 0.30760958E+00 0.81704321E+03</pdfrwt>
<totfact> 0.31634573E+00</totfact>
</mgrwt>
</event>
<event>
 4    5  0.1112901E-007  0.6586905E+03  0.7818608E-02  0.1025540E+00
          2   -1    0    0  501    0  0.00000000000E+00  0.00000000000E+00  0.35700244587E+04  0.35700244587E+04  0.25500000000E-02 0. -1.
         -2   -1    0    0    0  501 -0.00000000000E+00 -0.00000000000E+00 -0.10875923301E+04  0.10875923301E+04  0.25500000000E-02 0.  1.
    8880023    1    1    2    0    0 -0.60050768328E+01 -0.51905129408E+01 -0.98601488826E+03  0.11857902717E+04  0.65864270000E+03 0.  1.
    8880022    1    1    2    0    0  0.60050768328E+01  0.51905129408E+01  0.34684470169E+04  0.34718265171E+04  0.15294330000E+03 0.  0.
<mgrwt>
<rscale>  0 0.45739319E+03</rscale>
<asrwt>0</asrwt>
<pdfrwt beam="1">  1        2 0.54923453E+00 0.65869053E+03</pdfrwt>
<pdfrwt beam="2">  1       -2 0.16732190E+00 0.65869053E+03</pdfrwt>
<totfact> 0.18194645E-01</totfact>
</mgrwt>
</event>
<event>
 4    5  0.1112901E-007  0.8313853E+03  0.7818608E-02  0.9646643E-01
         -2   -1    0    0    0  501 -0.00000000000E+00  0.00000000000E+00  0.65819394913E+03  0.65819394914E+03  0.25500000000E-02 0.  1.
          2   -1    0    0  501    0  0.00000000000E+00 -0.00000000000E+00 -0.20192034693E+04  0.20192034693E+04  0.25500000000E-02 0. -1.
    8880023    1    1    2    0    0  0.17475526582E+02 -0.50703633405E+03  0.33815597223E+03  0.89752487759E+03  0.65864270000E+03 0.  1.
    8880022    1    1    2    0    0 -0.17475526582E+02  0.50703633405E+03 -0.16991654924E+04  0.17798725409E+04  0.15294330000E+03 0.  0.
<mgrwt>
<rscale>  0 0.74284477E+03</rscale>
<asrwt>0</asrwt>
<pdfrwt beam="1">  1        2 0.31064668E+00 0.83138526E+03</pdfrwt>
<pdfrwt beam="2">  1       -2 0.10126061E+00 0.83138526E+03</pdfrwt>
<totfact> 0.53489119E+00</totfact>
</mgrwt>
</event>
<event>
 4    5  0.1112901E-007  0.1620618E+04  0.7818608E-02  0.8828848E-01
          2   -1    0    0  501    0  0.00000000000E+00  0.00000000000E+00  0.29919034944E+04  0.29919034944E+04  0.25500000000E-02 0. -1.
         -2   -1    0    0    0  501 -0.00000000000E+00 -0.00000000000E+00 -0.95904352213E+03  0.95904352214E+03  0.25500000000E-02 0.  1.
    8880023    1    1    2    0    0 -0.14265674149E+04 -0.39686057103E+03  0.26885749119E+03  0.16427682305E+04  0.65864270000E+03 0.  0.
    8880022    1    1    2    0    0  0.14265674149E+04  0.39686057103E+03  0.17640024811E+04  0.23081787861E+04  0.15294330000E+03 0.  0.
<mgrwt>
<rscale>  0 0.15865595E+04</rscale>
<asrwt>0</asrwt>
<pdfrwt beam="1">  1        2 0.46029284E+00 0.16206181E+04</pdfrwt>
<pdfrwt beam="2">  1       -2 0.14754516E+00 0.16206181E+04</pdfrwt>
<totfact> 0.51597093E-01</totfact>
</mgrwt>
</event>
<event>
 4    5  0.1112901E-007  0.1431863E+04  0.7818608E-02  0.8959312E-01
         -2   -1    0    0    0  501 -0.00000000000E+00  0.00000000000E+00  0.13765937295E+04  0.13765937295E+04  0.25500000000E-02 0.  1.
          2   -1    0    0  501    0  0.00000000000E+00 -0.00000000000E+00 -0.21549016992E+04  0.21549016992E+04  0.25500000000E-02 0. -1.
    8880023    1    1    2    0    0  0.77634717287E+03  0.10068299652E+04 -0.14899878612E+04  0.20664693427E+04  0.65864270000E+03 0.  0.
    8880022    1    1    2    0    0 -0.77634717287E+03 -0.10068299652E+04  0.71167989144E+03  0.14650260860E+04  0.15294330000E+03 0.  0.
<mgrwt>
<rscale>  0 0.13924365E+04</rscale>
<asrwt>0</asrwt>
<pdfrwt beam="1">  1        2 0.33152334E+00 0.14318630E+04</pdfrwt>
<pdfrwt beam="2">  1       -2 0.21178365E+00 0.14318630E+04</pdfrwt>
<totfact> 0.57719285E-01</totfact>
</mgrwt>
</event>
<event>
 4    5  0.1112901E-007  0.1512520E+04  0.7818608E-02  0.8900845E-01
         -2   -1    0    0    0  501 -0.00000000000E+00  0.00000000000E+00  0.13911956583E+04  0.13911956583E+04  0.25500000000E-02 0.  1.
          2   -1    0    0  501    0  0.00000000000E+00 -0.00000000000E+00 -0.18875025085E+04  0.18875025085E+04  0.25500000000E-02 0. -1.
    8880023    1    1    2    0    0  0.13604742086E+04  0.54923416095E+02  0.49063113983E+03  0.15901055863E+04  0.65864270000E+03 0.  1.
    8880022    1    1    2    0    0 -0.13604742086E+04 -0.54923416095E+02 -0.98693798997E+03  0.16885925805E+04  0.15294330000E+03 0.  0.
<mgrwt>
<rscale>  0 0.14755961E+04</rscale>
<asrwt>0</asrwt>
<pdfrwt beam="1">  1        2 0.29038500E+00 0.15125200E+04</pdfrwt>
<pdfrwt beam="2">  1       -2 0.21403010E+00 0.15125200E+04</pdfrwt>
<totfact> 0.78057395E-01</totfact>
</mgrwt>
</event>
<event>
 4    5  0.1112901E-007  0.1530116E+04  0.7818608E-02  0.8888658E-01
          2   -1    0    0  501    0  0.00000000000E+00  0.00000000000E+00  0.23442298567E+04  0.23442298567E+04  0.25500000000E-02 0. -1.
         -2   -1    0    0    0  501 -0.00000000000E+00 -0.00000000000E+00 -0.11905210056E+04  0.11905210056E+04  0.25500000000E-02 0.  1.
    8880023    1    1    2    0    0 -0.37745931327E+03  0.13285210380E+04 -0.26048713264E+03  0.15521299669E+04  0.65864270000E+03 0.  0.
    8880022    1    1    2    0    0  0.37745931327E+03 -0.13285210380E+04  0.14141959838E+04  0.19826208954E+04  0.15294330000E+03 0.  0.
<mgrwt>
<rscale>  0 0.14936930E+04</rscale>
<asrwt>0</asrwt>
<pdfrwt beam="1">  1        2 0.36065074E+00 0.15301156E+04</pdfrwt>
<pdfrwt beam="2">  1       -2 0.18315708E+00 0.15301156E+04</pdfrwt>
<totfact> 0.69194484E-01</totfact>
</mgrwt>
</event>
<event>
 4    5  0.1112901E-007  0.9113310E+03  0.7818608E-02  0.9508081E-01
          2   -1    0    0  501    0  0.00000000000E+00  0.00000000000E+00  0.13657541005E+04  0.13657541005E+04  0.25500000000E-02 0. -1.
         -2   -1    0    0    0  501 -0.00000000000E+00 -0.00000000000E+00 -0.56228002997E+03  0.56228002998E+03  0.25500000000E-02 0.  1.
    8880023    1    1    2    0    0  0.28938512798E+03  0.55943749363E+03  0.20459000622E+02  0.91156066093E+03  0.65864270000E+03 0.  0.
    8880022    1    1    2    0    0 -0.28938512798E+03 -0.55943749363E+03  0.78301506987E+03  0.10164734695E+04  0.15294330000E+03 0.  0.
<mgrwt>
<rscale>  0 0.83690651E+03</rscale>
<asrwt>0</asrwt>
<pdfrwt beam="1">  1        2 0.21011601E+00 0.91133104E+03</pdfrwt>
<pdfrwt beam="2">  1       -2 0.86504621E-01 0.91133104E+03</pdfrwt>
<totfact> 0.17599181E+01</totfact>
</mgrwt>
</event>
<event>
 4    5  0.1112901E-007  0.8769974E+03  0.7818608E-02  0.9564016E-01
         -2   -1    0    0    0  501 -0.00000000000E+00  0.00000000000E+00  0.59690841961E+03  0.59690841962E+03  0.25500000000E-02 0.  1.
          2   -1    0    0  501    0  0.00000000000E+00 -0.00000000000E+00 -0.13819672358E+04  0.13819672358E+04  0.25500000000E-02 0. -1.
    8880023    1    1    2    0    0  0.31153921383E+03  0.48811624636E+03  0.12863608341E+03  0.88638118207E+03  0.65864270000E+03 0.  0.
    8880022    1    1    2    0    0 -0.31153921383E+03 -0.48811624636E+03 -0.91369489956E+03  0.10924944733E+04  0.15294330000E+03 0.  0.
<mgrwt>
<rscale>  0 0.79724355E+03</rscale>
<asrwt>0</asrwt>
<pdfrwt beam="1">  1        2 0.21261034E+00 0.87699735E+03</pdfrwt>
<pdfrwt beam="2">  1       -2 0.91832065E-01 0.87699735E+03</pdfrwt>
<totfact> 0.15060024E+01</totfact>
</mgrwt>
</event>
<event>
 4    5  0.1112901E-007  0.7772887E+03  0.7818608E-02  0.9762245E-01
          2   -1    0    0  501    0  0.00000000000E+00  0.00000000000E+00  0.14925329490E+04  0.14925329490E+04  0.25500000000E-02 0. -1.
         -2   -1    0    0    0  501 -0.00000000000E+00 -0.00000000000E+00 -0.60092312390E+03  0.60092312391E+03  0.25500000000E-02 0.  1.
    8880023    1    1    2    0    0  0.17947345884E+03  0.37169456978E+03 -0.29224733021E+03  0.83041332113E+03  0.65864270000E+03 0.  0.
    8880022    1    1    2    0    0 -0.17947345884E+03 -0.37169456978E+03  0.11838571553E+04  0.12630427518E+04  0.15294330000E+03 0.  0.
<mgrwt>
<rscale>  0 0.67428668E+03</rscale>
<asrwt>0</asrwt>
<pdfrwt beam="1">  1        2 0.22962045E+00 0.77728874E+03</pdfrwt>
<pdfrwt beam="2">  1       -2 0.92449713E-01 0.77728874E+03</pdfrwt>
<totfact> 0.12992772E+01</totfact>
</mgrwt>
</event>
<event>
 4    5  0.1112901E-007  0.7081327E+03  0.7818608E-02  0.9965002E-01
          2   -1    0    0  501    0  0.00000000000E+00  0.00000000000E+00  0.61248284366E+03  0.61248284366E+03  0.25500000000E-02 0. -1.
         -2   -1    0    0    0  501 -0.00000000000E+00 -0.00000000000E+00 -0.17926569124E+04  0.17926569124E+04  0.25500000000E-02 0.  1.
    8880023    1    1    2    0    0 -0.15952038010E+03  0.20541399344E+03 -0.16789674375E+04  0.18221919556E+04  0.65864270000E+03 0.  0.
    8880022    1    1    2    0    0  0.15952038010E+03 -0.20541399344E+03  0.49879336878E+03  0.58294780051E+03  0.15294330000E+03 0. -1.
<mgrwt>
<rscale>  0 0.57211853E+03</rscale>
<asrwt>0</asrwt>
<pdfrwt beam="1">  1        2 0.94228130E-01 0.70813266E+03</pdfrwt>
<pdfrwt beam="2">  1       -2 0.27579337E+00 0.70813266E+03</pdfrwt>
<totfact> 0.22542961E+00</totfact>
</mgrwt>
</event>
<event>
 4    5  0.1112901E-007  0.7230009E+03  0.7818608E-02  0.9912560E-01
         -2   -1    0    0    0  501 -0.00000000000E+00  0.00000000000E+00  0.23235575758E+03  0.23235575759E+03  0.25500000000E-02 0.  1.
          2   -1    0    0  501    0  0.00000000000E+00 -0.00000000000E+00 -0.13373792709E+04  0.13373792709E+04  0.25500000000E-02 0. -1.
    8880023    1    1    2    0    0 -0.51626849444E+02  0.29369149075E+03 -0.50313963748E+03  0.88084035125E+03  0.65864270000E+03 0.  0.
    8880022    1    1    2    0    0  0.51626849444E+02 -0.29369149075E+03 -0.60188387584E+03  0.68889467724E+03  0.15294330000E+03 0.  0.
<mgrwt>
<rscale>  0 0.59656424E+03</rscale>
<asrwt>0</asrwt>
<pdfrwt beam="1">  1        2 0.20575065E+00 0.72300085E+03</pdfrwt>
<pdfrwt beam="2">  1       -2 0.35747040E-01 0.72300085E+03</pdfrwt>
<totfact> 0.11773270E+02</totfact>
</mgrwt>
</event>
<event>
 4    5  0.1112901E-007  0.1000217E+04  0.7818608E-02  0.9381274E-01
         -2   -1    0    0    0  501 -0.00000000000E+00  0.00000000000E+00  0.99570523794E+03  0.99570523794E+03  0.25500000000E-02 0.  1.
          2   -1    0    0  501    0  0.00000000000E+00 -0.00000000000E+00 -0.21943408391E+04  0.21943408391E+04  0.25500000000E-02 0. -1.
    8880023    1    1    2    0    0  0.68546621922E+03  0.31106245514E+03  0.64680482688E+03  0.11911299169E+04  0.65864270000E+03 0.  0.
    8880022    1    1    2    0    0 -0.68546621922E+03 -0.31106245514E+03 -0.18454404281E+04  0.19989161601E+04  0.15294330000E+03 0.  0.
<mgrwt>
<rscale>  0 0.93632924E+03</rscale>
<asrwt>0</asrwt>
<pdfrwt beam="1">  1        2 0.33759090E+00 0.10002170E+04</pdfrwt>
<pdfrwt beam="2">  1       -2 0.15318542E+00 0.10002170E+04</pdfrwt>
<totfact> 0.14743700E+00</totfact>
</mgrwt>
</event>
<event>
 4    5  0.1112901E-007  0.1019273E+04  0.7818608E-02  0.9356766E-01
          2   -1    0    0  501    0  0.00000000000E+00  0.00000000000E+00  0.18409137711E+04  0.18409137711E+04  0.25500000000E-02 0. -1.
         -2   -1    0    0    0  501 -0.00000000000E+00 -0.00000000000E+00 -0.88748037679E+03  0.88748037679E+03  0.25500000000E-02 0.  1.
    8880023    1    1    2    0    0 -0.43676451566E+03  0.64369558851E+03 -0.45183097875E+03  0.11149299047E+04  0.65864270000E+03 0.  0.
    8880022    1    1    2    0    0  0.43676451566E+03 -0.64369558851E+03  0.14052643731E+04  0.16134642432E+04  0.15294330000E+03 0.  0.
<mgrwt>
<rscale>  0 0.95720720E+03</rscale>
<asrwt>0</asrwt>
<pdfrwt beam="1">  1        2 0.28321750E+00 0.10192730E+04</pdfrwt>
<pdfrwt beam="2">  1       -2 0.13653544E+00 0.10192730E+04</pdfrwt>
<totfact> 0.31190263E+00</totfact>
</mgrwt>
</event>
<event>
 4    5  0.1112901E-007  0.1128479E+04  0.7818608E-02  0.9229991E-01
         -2   -1    0    0    0  501 -0.00000000000E+00  0.00000000000E+00  0.58884995636E+03  0.58884995637E+03  0.25500000000E-02 0.  1.
          2   -1    0    0  501    0  0.00000000000E+00 -0.00000000000E+00 -0.22816558107E+04  0.22816558107E+04  0.25500000000E-02 0. -1.
    8880023    1    1    2    0    0 -0.57278256693E+03  0.71524482223E+03 -0.25217673189E+03  0.11563123865E+04  0.65864270000E+03 0.  1.
    8880022    1    1    2    0    0  0.57278256693E+03 -0.71524482223E+03 -0.14406291225E+04  0.17141933807E+04  0.15294330000E+03 0.  0.
<mgrwt>
<rscale>  0 0.10749158E+04</rscale>
<asrwt>0</asrwt>
<pdfrwt beam="1">  1        2 0.35102397E+00 0.11284792E+04</pdfrwt>
<pdfrwt beam="2">  1       -2 0.90592302E-01 0.11284792E+04</pdfrwt>
<totfact> 0.47857264E+00</totfact>
</mgrwt>
</event>
<event>
 4    5  0.1112901E-007  0.1294358E+04  0.7818608E-02  0.9070447E-01
          2   -1    0    0  501    0  0.00000000000E+00  0.00000000000E+00  0.13757486715E+04  0.13757486715E+04  0.25500000000E-02 0. -1.
         -2   -1    0    0    0  501 -0.00000000000E+00 -0.00000000000E+00 -0.13563285724E+04  0.13563285724E+04  0.25500000000E-02 0.  1.
    8880023    1    1    2    0    0  0.50045320999E+03 -0.99553969893E+03  0.64386519081E+03  0.14456573929E+04  0.65864270000E+03 0.  0.
    8880022    1    1    2    0    0 -0.50045320999E+03  0.99553969893E+03 -0.62444509167E+03  0.12864198510E+04  0.15294330000E+03 0.  0.
<mgrwt>
<rscale>  0 0.12496827E+04</rscale>
<asrwt>0</asrwt>
<pdfrwt beam="1">  1        2 0.21165364E+00 0.12943581E+04</pdfrwt>
<pdfrwt beam="2">  1       -2 0.20866593E+00 0.12943581E+04</pdfrwt>
<totfact> 0.16771049E+00</totfact>
</mgrwt>
</event>
<event>
 4    5  0.1112901E-007  0.1857638E+04  0.7818608E-02  0.8691306E-01
          2   -1    0    0  501    0  0.00000000000E+00  0.00000000000E+00  0.35895047919E+04  0.35895047919E+04  0.25500000000E-02 0. -1.
         -2   -1    0    0    0  501 -0.00000000000E+00 -0.00000000000E+00 -0.16208206985E+04  0.16208206985E+04  0.25500000000E-02 0.  1.
    8880023    1    1    2    0    0  0.16193600165E+04 -0.62823601585E+03 -0.73117065660E+03  0.19963536986E+04  0.65864270000E+03 0.  0.
    8880022    1    1    2    0    0 -0.16193600165E+04  0.62823601585E+03  0.26998547499E+04  0.32139717918E+04  0.15294330000E+03 0.  0.
<mgrwt>
<rscale>  0 0.18284668E+04</rscale>
<asrwt>0</asrwt>
<pdfrwt beam="1">  1        2 0.55223151E+00 0.18576376E+04</pdfrwt>
<pdfrwt beam="2">  1       -2 0.24935703E+00 0.18576376E+04</pdfrwt>
<totfact> 0.41141050E-02</totfact>
</mgrwt>
</event>
<event>
 4    5  0.1112901E-007  0.1278911E+04  0.7818608E-02  0.9083989E-01
         -2   -1    0    0    0  501 -0.00000000000E+00  0.00000000000E+00  0.13977936560E+04  0.13977936560E+04  0.25500000000E-02 0.  1.
          2   -1    0    0  501    0  0.00000000000E+00 -0.00000000000E+00 -0.17012334008E+04  0.17012334008E+04  0.25500000000E-02 0. -1.
    8880023    1    1    2    0    0 -0.18296281628E+03  0.10808921516E+04  0.82214774661E+03  0.15203750718E+04  0.65864270000E+03 0.  1.
    8880022    1    1    2    0    0  0.18296281628E+03 -0.10808921516E+04 -0.11255874914E+04  0.15786519849E+04  0.15294330000E+03 0.  0.
<mgrwt>
<rscale>  0 0.12335476E+04</rscale>
<asrwt>0</asrwt>
<pdfrwt beam="1">  1        2 0.26172822E+00 0.12789110E+04</pdfrwt>
<pdfrwt beam="2">  1       -2 0.21504518E+00 0.12789110E+04</pdfrwt>
<totfact> 0.10005279E+00</totfact>
</mgrwt>
</event>
<event>
 4    5  0.1112901E-007  0.6662792E+03  0.7818608E-02  0.1018484E+00
          2   -1    0    0  501    0  0.00000000000E+00  0.00000000000E+00  0.21298500672E+04  0.21298500672E+04  0.25500000000E-02 0. -1.
         -2   -1    0    0    0  501 -0.00000000000E+00 -0.00000000000E+00 -0.14258886907E+03  0.14258886909E+03  0.25500000000E-02 0.  1.
    8880023    1    1    2    0    0 -0.48168963811E+01 -0.10047161952E+03  0.67851428513E+03  0.95095193896E+03  0.65864270000E+03 0.  1.
    8880022    1    1    2    0    0  0.48168963811E+01  0.10047161952E+03  0.13087469130E+04  0.13214869973E+04  0.15294330000E+03 0.  0.
<mgrwt>
<rscale>  0 0.48237859E+03</rscale>
<asrwt>0</asrwt>
<pdfrwt beam="1">  1        2 0.32766921E+00 0.66627919E+03</pdfrwt>
<pdfrwt beam="2">  1       -2 0.21936751E-01 0.66627919E+03</pdfrwt>
<totfact> 0.10643542E+02</totfact>
</mgrwt>
</event>
<event>
 4    5  0.1112901E-007  0.7476309E+03  0.7818608E-02  0.9838251E-01
         -2   -1    0    0    0  501 -0.00000000000E+00  0.00000000000E+00  0.27683468714E+03  0.27683468715E+03  0.25500000000E-02 0.  1.
          2   -1    0    0  501    0  0.00000000000E+00 -0.00000000000E+00 -0.21252318303E+04  0.21252318303E+04  0.25500000000E-02 0. -1.
    8880023    1    1    2    0    0 -0.32360131867E+03  0.14291238177E+03 -0.29857888128E+03  0.80504740042E+03  0.65864270000E+03 0.  1.
    8880022    1    1    2    0    0  0.32360131867E+03 -0.14291238177E+03 -0.15498182619E+04  0.15970191170E+04  0.15294330000E+03 0.  0.
<mgrwt>
<rscale>  0 0.63349538E+03</rscale>
<asrwt>0</asrwt>
<pdfrwt beam="1">  1        2 0.32695873E+00 0.74763090E+03</pdfrwt>
<pdfrwt beam="2">  1       -2 0.42589953E-01 0.74763090E+03</pdfrwt>
<totfact> 0.30775080E+01</totfact>
</mgrwt>
</event>
<event>
 4    5  0.1112901E-007  0.7372719E+03  0.7818608E-02  0.9867966E-01
          2   -1    0    0  501    0  0.00000000000E+00  0.00000000000E+00  0.15625275124E+04  0.15625275124E+04  0.25500000000E-02 0. -1.
         -2   -1    0    0    0  501 -0.00000000000E+00 -0.00000000000E+00 -0.50486286131E+03  0.50486286132E+03  0.25500000000E-02 0.  1.
    8880023    1    1    2    0    0  0.25770033675E+03 -0.20820724332E+03 -0.19503023995E+03  0.76263144473E+03  0.65864270000E+03 0.  1.
    8880022    1    1    2    0    0 -0.25770033675E+03  0.20820724332E+03  0.12526948911E+04  0.13047589290E+04  0.15294330000E+03 0.  0.
<mgrwt>
<rscale>  0 0.61839218E+03</rscale>
<asrwt>0</asrwt>
<pdfrwt beam="1">  1        2 0.24038885E+00 0.73727195E+03</pdfrwt>
<pdfrwt beam="2">  1       -2 0.77671209E-01 0.73727195E+03</pdfrwt>
<totfact> 0.17753932E+01</totfact>
</mgrwt>
</event>
<event>
 4    5  0.1112901E-007  0.7076257E+03  0.7818608E-02  0.9966926E-01
         -2   -1    0    0    0  501 -0.00000000000E+00  0.00000000000E+00  0.17365538181E+03  0.17365538183E+03  0.25500000000E-02 0.  1.
          2   -1    0    0  501    0  0.00000000000E+00 -0.00000000000E+00 -0.16954101485E+04  0.16954101485E+04  0.25500000000E-02 0. -1.
    8880023    1    1    2    0    0  0.18535873103E+03 -0.18046066111E+03 -0.70544271583E+03  0.99919144360E+03  0.65864270000E+03 0.  1.
    8880022    1    1    2    0    0 -0.18535873103E+03  0.18046066111E+03 -0.81631205089E+03  0.86987408677E+03  0.15294330000E+03 0.  0.
<mgrwt>
<rscale>  0 0.57124580E+03</rscale>
<asrwt>0</asrwt>
<pdfrwt beam="1">  1        2 0.26083232E+00 0.70762569E+03</pdfrwt>
<pdfrwt beam="2">  1       -2 0.26716214E-01 0.70762569E+03</pdfrwt>
<totfact> 0.12826812E+02</totfact>
</mgrwt>
</event>
<event>
 4    5  0.1839854E-007  0.1372091E+04  0.7818608E-02  0.9005678E-01
         -2   -1    0    0    0  501 -0.00000000000E+00  0.00000000000E+00  0.32146532670E+04  0.32146532670E+04  0.25500000000E-02 0.  1.
          2   -1    0    0  501    0  0.00000000000E+00 -0.00000000000E+00 -0.19186409788E+04  0.19186409788E+04  0.25500000000E-02 0. -1.
    8880023    1    1    2    0    0 -0.11170232144E+04 -0.44842268214E+03  0.28491911024E+04  0.31623604961E+04  0.65864270000E+03 0.  0.
    8880022    1    1    2    0    0  0.11170232144E+04  0.44842268214E+03 -0.15531788142E+04  0.19709337496E+04  0.15294330000E+03 0.  0.
<mgrwt>
<rscale>  0 0.13305574E+04</rscale>
<asrwt>0</asrwt>
<pdfrwt beam="1">  1        2 0.29517554E+00 0.13720911E+04</pdfrwt>
<pdfrwt beam="2">  1       -2 0.49456204E+00 0.13720911E+04</pdfrwt>
<totfact> 0.12560621E-02</totfact>
</mgrwt>
</event>
<event>
 4    5  0.1112901E-007  0.1113975E+04  0.7818608E-02  0.9245654E-01
         -2   -1    0    0    0  501 -0.00000000000E+00  0.00000000000E+00  0.10105734982E+04  0.10105734982E+04  0.25500000000E-02 0.  1.
          2   -1    0    0  501    0  0.00000000000E+00 -0.00000000000E+00 -0.10528548427E+04  0.10528548427E+04  0.25500000000E-02 0. -1.
    8880023    1    1    2    0    0  0.77997770197E+03  0.44583015807E+03  0.17218475976E+03  0.11272034169E+04  0.65864270000E+03 0.  0.
    8880022    1    1    2    0    0 -0.77997770197E+03 -0.44583015807E+03 -0.21446610422E+03  0.93622492399E+03  0.15294330000E+03 0.  0.
<mgrwt>
<rscale>  0 0.10594376E+04</rscale>
<asrwt>0</asrwt>
<pdfrwt beam="1">  1        2 0.16197767E+00 0.11139748E+04</pdfrwt>
<pdfrwt beam="2">  1       -2 0.15547285E+00 0.11139748E+04</pdfrwt>
<totfact> 0.62252699E+00</totfact>
</mgrwt>
</event>
<event>
 4    5  0.1112901E-007  0.1037308E+04  0.7818608E-02  0.9334297E-01
          2   -1    0    0  501    0  0.00000000000E+00  0.00000000000E+00  0.14676698245E+04  0.14676698245E+04  0.25500000000E-02 0. -1.
         -2   -1    0    0    0  501 -0.00000000000E+00 -0.00000000000E+00 -0.77958314980E+03  0.77958314980E+03  0.25500000000E-02 0.  1.
    8880023    1    1    2    0    0 -0.62728478336E+03 -0.49870926513E+03 -0.18350048437E+03  0.10534133873E+04  0.65864270000E+03 0. -1.
    8880022    1    1    2    0    0  0.62728478336E+03  0.49870926513E+03  0.87158715906E+03  0.11938395870E+04  0.15294330000E+03 0.  0.
<mgrwt>
<rscale>  0 0.97685805E+03</rscale>
<asrwt>0</asrwt>
<pdfrwt beam="1">  1        2 0.22579536E+00 0.10373077E+04</pdfrwt>
<pdfrwt beam="2">  1       -2 0.11993587E+00 0.10373077E+04</pdfrwt>
<totfact> 0.69695111E+00</totfact>
</mgrwt>
</event>
<event>
 4    5  0.1112901E-007  0.1590120E+04  0.7818608E-02  0.8848488E-01
          2   -1    0    0  501    0  0.00000000000E+00  0.00000000000E+00  0.29151615174E+04  0.29151615174E+04  0.25500000000E-02 0. -1.
         -2   -1    0    0    0  501 -0.00000000000E+00 -0.00000000000E+00 -0.81136075561E+03  0.81136075561E+03  0.25500000000E-02 0.  1.
    8880023    1    1    2    0    0 -0.14233290124E+04  0.26230815226E+03  0.13585792072E+04  0.20914632946E+04  0.65864270000E+03 0.  0.
    8880022    1    1    2    0    0  0.14233290124E+04 -0.26230815226E+03  0.74522155459E+03  0.16350589784E+04  0.15294330000E+03 0.  0.
<mgrwt>
<rscale>  0 0.15553021E+04</rscale>
<asrwt>0</asrwt>
<pdfrwt beam="1">  1        2 0.44848639E+00 0.15901199E+04</pdfrwt>
<pdfrwt beam="2">  1       -2 0.12482473E+00 0.15901199E+04</pdfrwt>
<totfact> 0.89155574E-01</totfact>
</mgrwt>
</event>
<event>
 4    5  0.1112901E-007  0.7143923E+03  0.7818608E-02  0.9942038E-01
         -2   -1    0    0    0  501 -0.00000000000E+00  0.00000000000E+00  0.78517933215E+03  0.78517933215E+03  0.25500000000E-02 0.  1.
          2   -1    0    0  501    0  0.00000000000E+00 -0.00000000000E+00 -0.58600520727E+03  0.58600520728E+03  0.25500000000E-02 0. -1.
    8880023    1    1    2    0    0 -0.19797216519E+03  0.19326966570E+03  0.54804097511E+03  0.90039172505E+03  0.65864270000E+03 0.  0.
    8880022    1    1    2    0    0  0.19797216519E+03 -0.19326966570E+03 -0.34886685023E+03  0.47079281438E+03  0.15294330000E+03 0.  0.
<mgrwt>
<rscale>  0 0.58266481E+03</rscale>
<asrwt>0</asrwt>
<pdfrwt beam="1">  1        2 0.90154647E-01 0.71439229E+03</pdfrwt>
<pdfrwt beam="2">  1       -2 0.12079682E+00 0.71439229E+03</pdfrwt>
<totfact> 0.27078908E+01</totfact>
</mgrwt>
</event>
<event>
 4    5  0.1112901E-007  0.1279314E+04  0.7818608E-02  0.9083633E-01
         -2   -1    0    0    0  501 -0.00000000000E+00  0.00000000000E+00  0.68872729683E+03  0.68872729684E+03  0.25500000000E-02 0.  1.
          2   -1    0    0  501    0  0.00000000000E+00 -0.00000000000E+00 -0.25806322283E+04  0.25806322283E+04  0.25500000000E-02 0. -1.
    8880023    1    1    2    0    0  0.17634965428E+03  0.10824668548E+04 -0.27325241799E+03  0.13081707773E+04  0.65864270000E+03 0.  0.
    8880022    1    1    2    0    0 -0.17634965428E+03 -0.10824668548E+04 -0.16186525135E+04  0.19611887479E+04  0.15294330000E+03 0.  0.
<mgrwt>
<rscale>  0 0.12339686E+04</rscale>
<asrwt>0</asrwt>
<pdfrwt beam="1">  1        2 0.39702034E+00 0.12793138E+04</pdfrwt>
<pdfrwt beam="2">  1       -2 0.10595805E+00 0.12793138E+04</pdfrwt>
<totfact> 0.21894985E+00</totfact>
</mgrwt>
</event>
<event>
 4    5  0.1112901E-007  0.8497545E+03  0.7818608E-02  0.9612055E-01
          2   -1    0    0  501    0  0.00000000000E+00  0.00000000000E+00  0.98116471750E+03  0.98116471750E+03  0.25500000000E-02 0. -1.
         -2   -1    0    0    0  501 -0.00000000000E+00 -0.00000000000E+00 -0.11176066112E+04  0.11176066112E+04  0.25500000000E-02 0.  1.
    8880023    1    1    2    0    0  0.45698877627E+03 -0.28183988748E+03 -0.84387972923E+03  0.11975874363E+04  0.65864270000E+03 0.  1.
    8880022    1    1    2    0    0 -0.45698877627E+03  0.28183988748E+03  0.70743783554E+03  0.90118389244E+03  0.15294330000E+03 0.  0.
<mgrwt>
<rscale>  0 0.76503437E+03</rscale>
<asrwt>0</asrwt>
<pdfrwt beam="1">  1        2 0.15094842E+00 0.84975448E+03</pdfrwt>
<pdfrwt beam="2">  1       -2 0.17193948E+00 0.84975448E+03</pdfrwt>
<totfact> 0.53888594E+00</totfact>
</mgrwt>
</event>
<event>
 4    5  0.1112901E-007  0.6777634E+03  0.7818608E-02  0.1010618E+00
          2   -1    0    0  501    0  0.00000000000E+00  0.00000000000E+00  0.35982318324E+04  0.35982318324E+04  0.25500000000E-02 0. -1.
         -2   -1    0    0    0  501 -0.00000000000E+00 -0.00000000000E+00 -0.21280137055E+03  0.21280137057E+03  0.25500000000E-02 0.  1.
    8880023    1    1    2    0    0 -0.11310162456E+03  0.11296497081E+03  0.34125068017E+03  0.75882494364E+03  0.65864270000E+03 0.  1.
    8880022    1    1    2    0    0  0.11310162456E+03 -0.11296497081E+03  0.30441797817E+04  0.30522082594E+04  0.15294330000E+03 0.  0.
<mgrwt>
<rscale>  0 0.51229701E+03</rscale>
<asrwt>0</asrwt>
<pdfrwt beam="1">  1        2 0.55357410E+00 0.67776343E+03</pdfrwt>
<pdfrwt beam="2">  1       -2 0.32738674E-01 0.67776343E+03</pdfrwt>
<totfact> 0.66433046E+00</totfact>
</mgrwt>
</event>
<event>
 4    5  0.1112901E-007  0.9843516E+03  0.7818608E-02  0.9402323E-01
         -2   -1    0    0    0  501 -0.00000000000E+00  0.00000000000E+00  0.27100835910E+03  0.27100835912E+03  0.25500000000E-02 0.  1.
          2   -1    0    0  501    0  0.00000000000E+00 -0.00000000000E+00 -0.30134241304E+04  0.30134241304E+04  0.25500000000E-02 0. -1.
    8880023    1    1    2    0    0 -0.18685240265E+03 -0.70726520793E+03 -0.10772843870E+04  0.14592771332E+04  0.65864270000E+03 0. -1.
    8880022    1    1    2    0    0  0.18685240265E+03  0.70726520793E+03 -0.16651313843E+04  0.18251553563E+04  0.15294330000E+03 0.  0.
<mgrwt>
<rscale>  0 0.91884755E+03</rscale>
<asrwt>0</asrwt>
<pdfrwt beam="1">  1        2 0.46360369E+00 0.98435161E+03</pdfrwt>
<pdfrwt beam="2">  1       -2 0.41693596E-01 0.98435161E+03</pdfrwt>
<totfact> 0.95465158E+00</totfact>
</mgrwt>
</event>
<event>
 4    5  0.1112901E-007  0.7666093E+03  0.7818608E-02  0.9788288E-01
         -2   -1    0    0    0  501 -0.00000000000E+00  0.00000000000E+00  0.24922310976E+04  0.24922310976E+04  0.25500000000E-02 0.  1.
          2   -1    0    0  501    0  0.00000000000E+00 -0.00000000000E+00 -0.39353933660E+03  0.39353933661E+03  0.25500000000E-02 0. -1.
    8880023    1    1    2    0    0  0.30917662573E+03 -0.24143188598E+03  0.22961421445E+04  0.24207351147E+04  0.65864270000E+03 0.  1.
    8880022    1    1    2    0    0 -0.30917662573E+03  0.24143188598E+03 -0.19745038348E+03  0.46503531954E+03  0.15294330000E+03 0.  0.
<mgrwt>
<rscale>  0 0.65994891E+03</rscale>
<asrwt>0</asrwt>
<pdfrwt beam="1">  1        2 0.60544514E-01 0.76660925E+03</pdfrwt>
<pdfrwt beam="2">  1       -2 0.38342017E+00 0.76660925E+03</pdfrwt>
<totfact> 0.81469050E-01</totfact>
</mgrwt>
</event>
<event>
 4    5  0.1112901E-007  0.7295302E+03  0.7818608E-02  0.9891567E-01
         -2   -1    0    0    0  501 -0.00000000000E+00  0.00000000000E+00  0.29187706391E+03  0.29187706392E+03  0.25500000000E-02 0.  1.
          2   -1    0    0  501    0  0.00000000000E+00 -0.00000000000E+00 -0.29354642930E+04  0.29354642930E+04  0.25500000000E-02 0. -1.
    8880023    1    1    2    0    0  0.30618799039E+03  0.68213392998E+02 -0.19655090886E+03  0.75554392227E+03  0.65864270000E+03 0.  1.
    8880022    1    1    2    0    0 -0.30618799039E+03 -0.68213392998E+02 -0.24470363202E+04  0.24717974346E+04  0.15294330000E+03 0.  0.
<mgrwt>
<rscale>  0 0.60671749E+03</rscale>
<asrwt>0</asrwt>
<pdfrwt beam="1">  1        2 0.45160987E+00 0.72953023E+03</pdfrwt>
<pdfrwt beam="2">  1       -2 0.44904166E-01 0.72953023E+03</pdfrwt>
<totfact> 0.95715277E+00</totfact>
</mgrwt>
</event>
<event>
 4    5  0.1112901E-007  0.1165733E+04  0.7818608E-02  0.9191174E-01
          2   -1    0    0  501    0  0.00000000000E+00  0.00000000000E+00  0.10021828000E+04  0.10021828000E+04  0.25500000000E-02 0. -1.
         -2   -1    0    0    0  501 -0.00000000000E+00 -0.00000000000E+00 -0.21356593235E+04  0.21356593235E+04  0.25500000000E-02 0.  1.
    8880023    1    1    2    0    0  0.19287123619E+03  0.94229718289E+03 -0.16617598986E+04  0.20298717845E+04  0.65864270000E+03 0.  0.
    8880022    1    1    2    0    0 -0.19287123619E+03 -0.94229718289E+03  0.52828337514E+03  0.11079703390E+04  0.15294330000E+03 0.  0.
<mgrwt>
<rscale>  0 0.11144994E+04</rscale>
<asrwt>0</asrwt>
<pdfrwt beam="1">  1        2 0.15418197E+00 0.11657330E+04</pdfrwt>
<pdfrwt beam="2">  1       -2 0.32856297E+00 0.11657330E+04</pdfrwt>
<totfact> 0.52410945E-01</totfact>
</mgrwt>
</event>
<event>
 4    5  0.1112901E-007  0.1150326E+04  0.7818608E-02  0.9206990E-01
         -2   -1    0    0    0  501 -0.00000000000E+00  0.00000000000E+00  0.13465857175E+04  0.13465857175E+04  0.25500000000E-02 0.  1.
          2   -1    0    0  501    0  0.00000000000E+00 -0.00000000000E+00 -0.12712688532E+04  0.12712688532E+04  0.25500000000E-02 0. -1.
    8880023    1    1    2    0    0 -0.36111389526E+03 -0.87122665380E+03  0.81482155400E+03  0.14096749621E+04  0.65864270000E+03 0.  0.
    8880022    1    1    2    0    0  0.36111389526E+03  0.87122665380E+03 -0.73950468964E+03  0.12081796086E+04  0.15294330000E+03 0.  0.
<mgrwt>
<rscale>  0 0.10981570E+04</rscale>
<asrwt>0</asrwt>
<pdfrwt beam="1">  1        2 0.19557982E+00 0.11503258E+04</pdfrwt>
<pdfrwt beam="2">  1       -2 0.20716703E+00 0.11503258E+04</pdfrwt>
<totfact> 0.20027884E+00</totfact>
</mgrwt>
</event>
<event>
 4    5  0.1112901E-007  0.6636576E+03  0.7818608E-02  0.1020687E+00
          2   -1    0    0  501    0  0.00000000000E+00  0.00000000000E+00  0.19659789804E+04  0.19659789804E+04  0.25500000000E-02 0. -1.
         -2   -1    0    0    0  501 -0.00000000000E+00 -0.00000000000E+00 -0.12484921268E+04  0.12484921268E+04  0.25500000000E-02 0.  1.
    8880023    1    1    2    0    0 -0.79942551716E+02  0.15505141338E+02 -0.11560164250E+04  0.13329723936E+04  0.65864270000E+03 0.  1.
    8880022    1    1    2    0    0  0.79942551716E+02 -0.15505141338E+02  0.18735032786E+04  0.18814987135E+04  0.15294330000E+03 0.  0.
<mgrwt>
<rscale>  0 0.47439444E+03</rscale>
<asrwt>0</asrwt>
<pdfrwt beam="1">  1        2 0.30245830E+00 0.66365761E+03</pdfrwt>
<pdfrwt beam="2">  1       -2 0.19207571E+00 0.66365761E+03</pdfrwt>
<totfact> 0.11118158E+00</totfact>
</mgrwt>
</event>
<event>
 4    5  0.1112901E-007  0.7348589E+03  0.7818608E-02  0.9875184E-01
         -2   -1    0    0    0  501 -0.00000000000E+00  0.00000000000E+00  0.13800857195E+04  0.13800857195E+04  0.25500000000E-02 0.  1.
          2   -1    0    0  501    0  0.00000000000E+00 -0.00000000000E+00 -0.76743262470E+03  0.76743262470E+03  0.25500000000E-02 0. -1.
    8880023    1    1    2    0    0 -0.22766346355E+03  0.23318832950E+03  0.12300426927E+04  0.14328372838E+04  0.65864270000E+03 0.  1.
    8880022    1    1    2    0    0  0.22766346355E+03 -0.23318832950E+03 -0.61738959785E+03  0.71468106047E+03  0.15294330000E+03 0.  0.
<mgrwt>
<rscale>  0 0.61479204E+03</rscale>
<asrwt>0</asrwt>
<pdfrwt beam="1">  1        2 0.11806656E+00 0.73485894E+03</pdfrwt>
<pdfrwt beam="2">  1       -2 0.21232088E+00 0.73485894E+03</pdfrwt>
<totfact> 0.41302426E+00</totfact>
</mgrwt>
</event>
<event>
 4    5  0.1112901E-007  0.7290854E+03  0.7818608E-02  0.9892964E-01
          2   -1    0    0  501    0  0.00000000000E+00  0.00000000000E+00  0.11597976620E+04  0.11597976620E+04  0.25500000000E-02 0. -1.
         -2   -1    0    0    0  501 -0.00000000000E+00 -0.00000000000E+00 -0.43698623125E+03  0.43698623125E+03  0.25500000000E-02 0.  1.
    8880023    1    1    2    0    0 -0.31132760867E+03  0.28816150446E+02 -0.68510495972E+02  0.73229716971E+03  0.65864270000E+03 0.  0.
    8880022    1    1    2    0    0  0.31132760867E+03 -0.28816150446E+02  0.79132192668E+03  0.86448672350E+03  0.15294330000E+03 0.  0.
<mgrwt>
<rscale>  0 0.60603516E+03</rscale>
<asrwt>0</asrwt>
<pdfrwt beam="1">  1        2 0.17843041E+00 0.72908536E+03</pdfrwt>
<pdfrwt beam="2">  1       -2 0.67228652E-01 0.72908536E+03</pdfrwt>
<totfact> 0.41451247E+01</totfact>
</mgrwt>
</event>
<event>
 4    5  0.1112901E-007  0.1239044E+04  0.7818608E-02  0.9120072E-01
         -2   -1    0    0    0  501 -0.00000000000E+00  0.00000000000E+00  0.61850960961E+03  0.61850960961E+03  0.25500000000E-02 0.  1.
          2   -1    0    0  501    0  0.00000000000E+00 -0.00000000000E+00 -0.23257829029E+04  0.23257829029E+04  0.25500000000E-02 0. -1.
    8880023    1    1    2    0    0 -0.76915383366E+03 -0.71401852347E+03 -0.49681024550E+03  0.13349347168E+04  0.65864270000E+03 0.  0.
    8880022    1    1    2    0    0  0.76915383366E+03  0.71401852347E+03 -0.12104630478E+04  0.16093577958E+04  0.15294330000E+03 0.  0.
<mgrwt>
<rscale>  0 0.11917909E+04</rscale>
<asrwt>0</asrwt>
<pdfrwt beam="1">  1        2 0.35781275E+00 0.12390441E+04</pdfrwt>
<pdfrwt beam="2">  1       -2 0.95155326E-01 0.12390441E+04</pdfrwt>
<totfact> 0.39803157E+00</totfact>
</mgrwt>
</event>
<event>
 4    5  0.1112901E-007  0.6887967E+03  0.7818608E-02  0.1004730E+00
         -2   -1    0    0    0  501 -0.00000000000E+00  0.00000000000E+00  0.54745786961E+03  0.54745786961E+03  0.25500000000E-02 0.  1.
          2   -1    0    0  501    0  0.00000000000E+00 -0.00000000000E+00 -0.29966634802E+04  0.29966634802E+04  0.25500000000E-02 0. -1.
    8880023    1    1    2    0    0  0.11833973505E+03 -0.16317604255E+03  0.32273470458E+03  0.76065669625E+03  0.65864270000E+03 0.  1.
    8880022    1    1    2    0    0 -0.11833973505E+03  0.16317604255E+03 -0.27719403152E+04  0.27834646536E+04  0.15294330000E+03 0.  0.
<mgrwt>
<rscale>  0 0.53624069E+03</rscale>
<asrwt>0</asrwt>
<pdfrwt beam="1">  1        2 0.46102514E+00 0.68879672E+03</pdfrwt>
<pdfrwt beam="2">  1       -2 0.84224289E-01 0.68879672E+03</pdfrwt>
<totfact> 0.23282062E+00</totfact>
</mgrwt>
</event>
<event>
 4    5  0.1112901E-007  0.9455796E+03  0.7818608E-02  0.9456503E-01
          2   -1    0    0  501    0  0.00000000000E+00  0.00000000000E+00  0.38788958019E+04  0.38788958019E+04  0.25500000000E-02 0. -1.
         -2   -1    0    0    0  501 -0.00000000000E+00 -0.00000000000E+00 -0.47024274251E+03  0.47024274252E+03  0.25500000000E-02 0.  1.
    8880023    1    1    2    0    0  0.60020477823E+03 -0.31633019820E+03  0.80395226467E+02  0.94899113210E+03  0.65864270000E+03 0.  1.
    8880022    1    1    2    0    0 -0.60020477823E+03  0.31633019820E+03  0.33282578329E+04  0.34001474123E+04  0.15294330000E+03 0.  0.
<mgrwt>
<rscale>  0 0.87568081E+03</rscale>
<asrwt>0</asrwt>
<pdfrwt beam="1">  1        2 0.59675323E+00 0.94557960E+03</pdfrwt>
<pdfrwt beam="2">  1       -2 0.72345033E-01 0.94557960E+03</pdfrwt>
<totfact> 0.78256701E-01</totfact>
</mgrwt>
</event>
<event>
 4    5  0.1112901E-007  0.6613840E+03  0.7818608E-02  0.1022781E+00
         -2   -1    0    0    0  501 -0.00000000000E+00  0.00000000000E+00  0.27638515771E+03  0.27638515772E+03  0.25500000000E-02 0.  1.
          2   -1    0    0  501    0  0.00000000000E+00 -0.00000000000E+00 -0.14103651836E+04  0.14103651836E+04  0.25500000000E-02 0. -1.
    8880023    1    1    2    0    0 -0.14212121408E+02 -0.58451528071E+02 -0.13586455214E+03  0.67519474844E+03  0.65864270000E+03 0.  1.
    8880022    1    1    2    0    0  0.14212121408E+02  0.58451528071E+02 -0.99811547375E+03  0.10115555929E+04  0.15294330000E+03 0.  0.
<mgrwt>
<rscale>  0 0.46696171E+03</rscale>
<asrwt>0</asrwt>
<pdfrwt beam="1">  1        2 0.21697926E+00 0.66138398E+03</pdfrwt>
<pdfrwt beam="2">  1       -2 0.42520794E-01 0.66138398E+03</pdfrwt>
<totfact> 0.76908409E+01</totfact>
</mgrwt>
</event>
<event>
 4    5  0.1112901E-007  0.7685957E+03  0.7818608E-02  0.9783342E-01
          2   -1    0    0  501    0  0.00000000000E+00  0.00000000000E+00  0.64597104054E+03  0.64597104054E+03  0.25500000000E-02 0. -1.
         -2   -1    0    0    0  501 -0.00000000000E+00 -0.00000000000E+00 -0.62792619008E+03  0.62792619008E+03  0.25500000000E-02 0.  1.
    8880023    1    1    2    0    0 -0.89846111935E+02  0.38581974081E+03 -0.20330128439E+03  0.79502881377E+03  0.65864270000E+03 0. -1.
    8880022    1    1    2    0    0  0.89846111935E+02 -0.38581974081E+03  0.22134613485E+03  0.47886841685E+03  0.15294330000E+03 0.  0.
<mgrwt>
<rscale>  0 0.66264240E+03</rscale>
<asrwt>0</asrwt>
<pdfrwt beam="1">  1        2 0.99380160E-01 0.76859573E+03</pdfrwt>
<pdfrwt beam="2">  1       -2 0.96604029E-01 0.76859573E+03</pdfrwt>
<totfact> 0.41063745E+01</totfact>
</mgrwt>
</event>
<event>
 4    5  0.1112901E-007  0.6876499E+03  0.7818608E-02  0.1005290E+00
         -2   -1    0    0    0  501 -0.00000000000E+00  0.00000000000E+00  0.95033420648E+03  0.95033420649E+03  0.25500000000E-02 0.  1.
          2   -1    0    0  501    0  0.00000000000E+00 -0.00000000000E+00 -0.24164375196E+03  0.24164375197E+03  0.25500000000E-02 0. -1.
    8880023    1    1    2    0    0  0.19459905114E+03 -0.34399672943E+02  0.62274076439E+03  0.92772215350E+03  0.65864270000E+03 0.  1.
    8880022    1    1    2    0    0 -0.19459905114E+03  0.34399672943E+02  0.85949690138E+02  0.26425580496E+03  0.15294330000E+03 0. -1.
<mgrwt>
<rscale>  0 0.53390215E+03</rscale>
<asrwt>0</asrwt>
<pdfrwt beam="1">  1        2 0.37175962E-01 0.68764986E+03</pdfrwt>
<pdfrwt beam="2">  1       -2 0.14620526E+00 0.68764986E+03</pdfrwt>
<totfact> 0.45479032E+01</totfact>
</mgrwt>
</event>
<event>
 4    5  0.1112901E-007  0.6871581E+03  0.7818608E-02  0.1005534E+00
         -2   -1    0    0    0  501 -0.00000000000E+00  0.00000000000E+00  0.15223311895E+03  0.15223311898E+03  0.25500000000E-02 0.  1.
          2   -1    0    0  501    0  0.00000000000E+00 -0.00000000000E+00 -0.34051814349E+04  0.34051814349E+04  0.25500000000E-02 0. -1.
    8880023    1    1    2    0    0  0.19588709664E+03 -0.20850044872E+01 -0.66064602543E+03  0.95322582794E+03  0.65864270000E+03 0.  1.
    8880022    1    1    2    0    0 -0.19588709664E+03  0.20850044872E+01 -0.25923022905E+04  0.26041887259E+04  0.15294330000E+03 0.  0.
<mgrwt>
<rscale>  0 0.53289022E+03</rscale>
<asrwt>0</asrwt>
<pdfrwt beam="1">  1        2 0.52387401E+00 0.68715814E+03</pdfrwt>
<pdfrwt beam="2">  1       -2 0.23420482E-01 0.68715814E+03</pdfrwt>
<totfact> 0.16568466E+01</totfact>
</mgrwt>
</event>
<event>
 4    5  0.1112901E-007  0.7543892E+03  0.7818608E-02  0.9819856E-01
         -2   -1    0    0    0  501 -0.00000000000E+00  0.00000000000E+00  0.81503972148E+03  0.81503972148E+03  0.25500000000E-02 0.  1.
          2   -1    0    0  501    0  0.00000000000E+00 -0.00000000000E+00 -0.22427799034E+04  0.22427799034E+04  0.25500000000E-02 0. -1.
    8880023    1    1    2    0    0 -0.36696725069E+03 -0.25058415705E+02  0.61704020692E+03  0.97459823029E+03  0.65864270000E+03 0.  1.
    8880022    1    1    2    0    0  0.36696725069E+03  0.25058415705E+02 -0.20447803888E+04  0.20832213946E+04  0.15294330000E+03 0.  0.
<mgrwt>
<rscale>  0 0.64307767E+03</rscale>
<asrwt>0</asrwt>
<pdfrwt beam="1">  1        2 0.34504306E+00 0.75438922E+03</pdfrwt>
<pdfrwt beam="2">  1       -2 0.12539073E+00 0.75438922E+03</pdfrwt>
<totfact> 0.24224122E+00</totfact>
</mgrwt>
</event>
<event>
 4    5  0.1112901E-007  0.8534640E+03  0.7818608E-02  0.9605297E-01
          2   -1    0    0  501    0  0.00000000000E+00  0.00000000000E+00  0.13852698322E+04  0.13852698322E+04  0.25500000000E-02 0. -1.
         -2   -1    0    0    0  501 -0.00000000000E+00 -0.00000000000E+00 -0.98977561429E+03  0.98977561430E+03  0.25500000000E-02 0.  1.
    8880023    1    1    2    0    0  0.50887260116E+03  0.18878370241E+03 -0.72553501633E+03  0.11201793949E+04  0.65864270000E+03 0.  1.
    8880022    1    1    2    0    0 -0.50887260116E+03 -0.18878370241E+03  0.11210292342E+04  0.12548660516E+04  0.15294330000E+03 0.  0.
<mgrwt>
<rscale>  0 0.76946571E+03</rscale>
<asrwt>0</asrwt>
<pdfrwt beam="1">  1        2 0.21311843E+00 0.85346401E+03</pdfrwt>
<pdfrwt beam="2">  1       -2 0.15227317E+00 0.85346401E+03</pdfrwt>
<totfact> 0.42889198E+00</totfact>
</mgrwt>
</event>
<event>
 4    5  0.1112901E-007  0.6931726E+03  0.7818608E-02  0.1002680E+00
          2   -1    0    0  501    0  0.00000000000E+00  0.00000000000E+00  0.73235822194E+03  0.73235822195E+03  0.25500000000E-02 0. -1.
         -2   -1    0    0    0  501 -0.00000000000E+00 -0.00000000000E+00 -0.10210640578E+04  0.10210640578E+04  0.25500000000E-02 0.  1.
    8880023    1    1    2    0    0  0.19859489361E+03  0.85077417481E+02 -0.87136790913E+03  0.11134497465E+04  0.65864270000E+03 0.  1.
    8880022    1    1    2    0    0 -0.19859489361E+03 -0.85077417481E+02  0.58266207323E+03  0.63997253326E+03  0.15294330000E+03 0.  0.
<mgrwt>
<rscale>  0 0.54490699E+03</rscale>
<asrwt>0</asrwt>
<pdfrwt beam="1">  1        2 0.11267049E+00 0.69317264E+03</pdfrwt>
<pdfrwt beam="2">  1       -2 0.15708678E+00 0.69317264E+03</pdfrwt>
<totfact> 0.10472835E+01</totfact>
</mgrwt>
</event>
<event>
 4    5  0.1112901E-007  0.7714845E+03  0.7818608E-02  0.9776234E-01
          2   -1    0    0  501    0  0.00000000000E+00  0.00000000000E+00  0.11171784365E+04  0.11171784365E+04  0.25500000000E-02 0. -1.
         -2   -1    0    0    0  501 -0.00000000000E+00 -0.00000000000E+00 -0.92425206205E+03  0.92425206205E+03  0.25500000000E-02 0.  1.
    8880023    1    1    2    0    0 -0.18278548110E+03 -0.35772566355E+03 -0.70552617031E+03  0.10454451519E+04  0.65864270000E+03 0. -1.
    8880022    1    1    2    0    0  0.18278548110E+03  0.35772566355E+03  0.89845254471E+03  0.99598534657E+03  0.15294330000E+03 0.  0.
<mgrwt>
<rscale>  0 0.66653706E+03</rscale>
<asrwt>0</asrwt>
<pdfrwt beam="1">  1        2 0.17187361E+00 0.77148454E+03</pdfrwt>
<pdfrwt beam="2">  1       -2 0.14219262E+00 0.77148454E+03</pdfrwt>
<totfact> 0.74559492E+00</totfact>
</mgrwt>
</event>
<event>
 4    5  0.1112901E-007  0.6698553E+03  0.7818608E-02  0.1015767E+00
         -2   -1    0    0    0  501 -0.00000000000E+00  0.00000000000E+00  0.26945661326E+03  0.26945661328E+03  0.25500000000E-02 0.  1.
          2   -1    0    0  501    0  0.00000000000E+00 -0.00000000000E+00 -0.14015741542E+04  0.14015741542E+04  0.25500000000E-02 0. -1.
    8880023    1    1    2    0    0 -0.91699532182E+02  0.80542522564E+02 -0.17255850245E+03  0.69172432744E+03  0.65864270000E+03 0.  0.
    8880022    1    1    2    0    0  0.91699532182E+02 -0.80542522564E+02 -0.95955903849E+03  0.97930644004E+03  0.15294330000E+03 0.  0.
<mgrwt>
<rscale>  0 0.49245658E+03</rscale>
<asrwt>0</asrwt>
<pdfrwt beam="1">  1        2 0.21562679E+00 0.66985529E+03</pdfrwt>
<pdfrwt beam="2">  1       -2 0.41454864E-01 0.66985529E+03</pdfrwt>
<totfact> 0.81694468E+01</totfact>
</mgrwt>
</event>
<event>
 4    5  0.1112901E-007  0.7119938E+03  0.7818608E-02  0.9950670E-01
         -2   -1    0    0    0  501 -0.00000000000E+00  0.00000000000E+00  0.34076296574E+03  0.34076296575E+03  0.25500000000E-02 0.  1.
          2   -1    0    0  501    0  0.00000000000E+00 -0.00000000000E+00 -0.91760183292E+03  0.91760183292E+03  0.25500000000E-02 0. -1.
    8880023    1    1    2    0    0  0.22870182782E+03 -0.14429291617E+03 -0.14536393706E+03  0.72668139660E+03  0.65864270000E+03 0.  1.
    8880022    1    1    2    0    0 -0.22870182782E+03  0.14429291617E+03 -0.43147493012E+03  0.53168340207E+03  0.15294330000E+03 0.  0.
<mgrwt>
<rscale>  0 0.57867194E+03</rscale>
<asrwt>0</asrwt>
<pdfrwt beam="1">  1        2 0.14116951E+00 0.71199380E+03</pdfrwt>
<pdfrwt beam="2">  1       -2 0.52425072E-01 0.71199380E+03</pdfrwt>
<totfact> 0.99514643E+01</totfact>
</mgrwt>
</event>
<event>
 4    5  0.1112901E-007  0.1203105E+04  0.7818608E-02  0.9154110E-01
          2   -1    0    0  501    0  0.00000000000E+00  0.00000000000E+00  0.29462206797E+04  0.29462206797E+04  0.25500000000E-02 0. -1.
         -2   -1    0    0    0  501 -0.00000000000E+00 -0.00000000000E+00 -0.47339364768E+03  0.47339364769E+03  0.25500000000E-02 0.  1.
    8880023    1    1    2    0    0 -0.10052899271E+04 -0.55167824593E+02  0.74822617387E+03  0.14167935418E+04  0.65864270000E+03 0.  0.
    8880022    1    1    2    0    0  0.10052899271E+04  0.55167824593E+02  0.17246008582E+04  0.20028207857E+04  0.15294330000E+03 0.  0.
<mgrwt>
<rscale>  0 0.11539905E+04</rscale>
<asrwt>0</asrwt>
<pdfrwt beam="1">  1        2 0.45326472E+00 0.12031050E+04</pdfrwt>
<pdfrwt beam="2">  1       -2 0.72829791E-01 0.12031050E+04</pdfrwt>
<totfact> 0.31839415E+00</totfact>
</mgrwt>
</event>
<event>
 4    5  0.1112901E-007  0.7547800E+03  0.7818608E-02  0.9818814E-01
         -2   -1    0    0    0  501 -0.00000000000E+00  0.00000000000E+00  0.29207568370E+03  0.29207568371E+03  0.25500000000E-02 0.  1.
          2   -1    0    0  501    0  0.00000000000E+00 -0.00000000000E+00 -0.30994306252E+04  0.30994306252E+04  0.25500000000E-02 0. -1.
    8880023    1    1    2    0    0 -0.20706392832E+02  0.36804059203E+03 -0.23810671488E+03  0.79144655285E+03  0.65864270000E+03 0.  1.
    8880022    1    1    2    0    0  0.20706392832E+02 -0.36804059203E+03 -0.25692482266E+04  0.26000597560E+04  0.15294330000E+03 0.  0.
<mgrwt>
<rscale>  0 0.64362587E+03</rscale>
<asrwt>0</asrwt>
<pdfrwt beam="1">  1        2 0.47683546E+00 0.75477999E+03</pdfrwt>
<pdfrwt beam="2">  1       -2 0.44934723E-01 0.75477999E+03</pdfrwt>
<totfact> 0.75465989E+00</totfact>
</mgrwt>
</event>
<event>
 4    5  0.1112901E-007  0.1382646E+04  0.7818608E-02  0.8997286E-01
          2   -1    0    0  501    0  0.00000000000E+00  0.00000000000E+00  0.14930884002E+04  0.14930884002E+04  0.25500000000E-02 0. -1.
         -2   -1    0    0    0  501 -0.00000000000E+00 -0.00000000000E+00 -0.12549608633E+04  0.12549608633E+04  0.25500000000E-02 0.  1.
    8880023    1    1    2    0    0  0.10388213773E+03  0.12112420029E+04 -0.29178245129E+03  0.14130979772E+04  0.65864270000E+03 0.  1.
    8880022    1    1    2    0    0 -0.10388213773E+03 -0.12112420029E+04  0.52990998818E+03  0.13349512863E+04  0.15294330000E+03 0.  0.
<mgrwt>
<rscale>  0 0.13415018E+04</rscale>
<asrwt>0</asrwt>
<pdfrwt beam="1">  1        2 0.22970591E+00 0.13826456E+04</pdfrwt>
<pdfrwt beam="2">  1       -2 0.19307090E+00 0.13826456E+04</pdfrwt>
<totfact> 0.18040210E+00</totfact>
</mgrwt>
</event>
<event>
 4    5  0.1112901E-007  0.6699616E+03  0.7818608E-02  0.1015690E+00
         -2   -1    0    0    0  501 -0.00000000000E+00  0.00000000000E+00  0.18784869719E+04  0.18784869719E+04  0.25500000000E-02 0.  1.
          2   -1    0    0  501    0  0.00000000000E+00 -0.00000000000E+00 -0.41197266518E+03  0.41197266519E+03  0.25500000000E-02 0. -1.
    8880023    1    1    2    0    0 -0.34384860737E+02 -0.11771179133E+03  0.17905250283E+04  0.19117605676E+04  0.65864270000E+03 0.  1.
    8880022    1    1    2    0    0  0.34384860737E+02  0.11771179133E+03 -0.32401072164E+03  0.37869906947E+03  0.15294330000E+03 0.  0.
<mgrwt>
<rscale>  0 0.49274395E+03</rscale>
<asrwt>0</asrwt>
<pdfrwt beam="1">  1        2 0.63380409E-01 0.66996163E+03</pdfrwt>
<pdfrwt beam="2">  1       -2 0.28899800E+00 0.66996163E+03</pdfrwt>
<totfact> 0.29987449E+00</totfact>
</mgrwt>
</event>
<event>
 4    5  0.1112901E-007  0.1434892E+04  0.7818608E-02  0.8957035E-01
         -2   -1    0    0    0  501 -0.00000000000E+00  0.00000000000E+00  0.80023373869E+03  0.80023373869E+03  0.25500000000E-02 0.  1.
          2   -1    0    0  501    0  0.00000000000E+00 -0.00000000000E+00 -0.33213961206E+04  0.33213961206E+04  0.25500000000E-02 0. -1.
    8880023    1    1    2    0    0  0.64841774709E+03 -0.10975692964E+04 -0.24456045758E+04  0.28354710160E+04  0.65864270000E+03 0. -1.
    8880022    1    1    2    0    0 -0.64841774709E+03  0.10975692964E+04 -0.75557806125E+02  0.12861588433E+04  0.15294330000E+03 0.  0.
<mgrwt>
<rscale>  0 0.13955658E+04</rscale>
<asrwt>0</asrwt>
<pdfrwt beam="1">  1        2 0.51098401E+00 0.14348917E+04</pdfrwt>
<pdfrwt beam="2">  1       -2 0.12311288E+00 0.14348917E+04</pdfrwt>
<totfact> 0.51685054E-01</totfact>
</mgrwt>
</event>
<event>
 4    5  0.1112901E-007  0.2080392E+04  0.7818608E-02  0.8581491E-01
         -2   -1    0    0    0  501 -0.00000000000E+00  0.00000000000E+00  0.14465204358E+04  0.14465204358E+04  0.25500000000E-02 0.  1.
          2   -1    0    0  501    0  0.00000000000E+00 -0.00000000000E+00 -0.29149388018E+04  0.29149388018E+04  0.25500000000E-02 0. -1.
    8880023    1    1    2    0    0  0.19711698880E+04 -0.93328374793E+02 -0.10814557200E+04  0.23446913642E+04  0.65864270000E+03 0.  0.
    8880022    1    1    2    0    0 -0.19711698880E+04  0.93328374793E+02 -0.38696264593E+03  0.20167678734E+04  0.15294330000E+03 0.  0.
<mgrwt>
<rscale>  0 0.20546440E+04</rscale>
<asrwt>0</asrwt>
<pdfrwt beam="1">  1        2 0.44845212E+00 0.20803921E+04</pdfrwt>
<pdfrwt beam="2">  1       -2 0.22254161E+00 0.20803921E+04</pdfrwt>
<totfact> 0.16571850E-01</totfact>
</mgrwt>
</event>
<event>
 4    5  0.1112901E-007  0.6919789E+03  0.7818608E-02  0.1003226E+00
         -2   -1    0    0    0  501 -0.00000000000E+00  0.00000000000E+00  0.15332214773E+03  0.15332214775E+03  0.25500000000E-02 0.  1.
          2   -1    0    0  501    0  0.00000000000E+00 -0.00000000000E+00 -0.26431432306E+04  0.26431432306E+04  0.25500000000E-02 0. -1.
    8880023    1    1    2    0    0  0.11680533906E+03  0.17714706865E+03 -0.68813533352E+03  0.97589190727E+03  0.65864270000E+03 0.  1.
    8880022    1    1    2    0    0 -0.11680533906E+03 -0.17714706865E+03 -0.18016857494E+04  0.18205734711E+04  0.15294330000E+03 0.  0.
<mgrwt>
<rscale>  0 0.54258092E+03</rscale>
<asrwt>0</asrwt>
<pdfrwt beam="1">  1        2 0.40663739E+00 0.69197889E+03</pdfrwt>
<pdfrwt beam="2">  1       -2 0.23588025E-01 0.69197889E+03</pdfrwt>
<totfact> 0.48134694E+01</totfact>
</mgrwt>
</event>
<event>
 4    5  0.1112901E-007  0.1496714E+04  0.7818608E-02  0.8911960E-01
         -2   -1    0    0    0  501 -0.00000000000E+00  0.00000000000E+00  0.10632456882E+04  0.10632456882E+04  0.25500000000E-02 0.  1.
          2   -1    0    0  501    0  0.00000000000E+00 -0.00000000000E+00 -0.30477226762E+04  0.30477226762E+04  0.25500000000E-02 0. -1.
    8880023    1    1    2    0    0 -0.12825377224E+04  0.40179629168E+03  0.23174839681E+03  0.15145497005E+04  0.65864270000E+03 0.  0.
    8880022    1    1    2    0    0  0.12825377224E+04 -0.40179629168E+03 -0.22162253848E+04  0.25964186640E+04  0.15294330000E+03 0.  0.
<mgrwt>
<rscale>  0 0.14593272E+04</rscale>
<asrwt>0</asrwt>
<pdfrwt beam="1">  1        2 0.46888041E+00 0.14967142E+04</pdfrwt>
<pdfrwt beam="2">  1       -2 0.16357626E+00 0.14967142E+04</pdfrwt>
<totfact> 0.36470686E-01</totfact>
</mgrwt>
</event>
<event>
 4    5  0.1112901E-007  0.7958429E+03  0.7818608E-02  0.9719858E-01
         -2   -1    0    0    0  501 -0.00000000000E+00  0.00000000000E+00  0.81390969470E+03  0.81390969470E+03  0.25500000000E-02 0.  1.
          2   -1    0    0  501    0  0.00000000000E+00 -0.00000000000E+00 -0.12315693518E+04  0.12315693518E+04  0.25500000000E-02 0. -1.
    8880023    1    1    2    0    0  0.26513380469E+03  0.35952708552E+03  0.55092915425E+03  0.96793016219E+03  0.65864270000E+03 0.  1.
    8880022    1    1    2    0    0 -0.26513380469E+03 -0.35952708552E+03 -0.96858881134E+03  0.10775488843E+04  0.15294330000E+03 0.  0.
<mgrwt>
<rscale>  0 0.69846681E+03</rscale>
<asrwt>0</asrwt>
<pdfrwt beam="1">  1        2 0.18947221E+00 0.79584287E+03</pdfrwt>
<pdfrwt beam="2">  1       -2 0.12521688E+00 0.79584287E+03</pdfrwt>
<totfact> 0.87855788E+00</totfact>
</mgrwt>
</event>
<event>
 4    5  0.1112901E-007  0.2446004E+04  0.7818608E-02  0.8430435E-01
          2   -1    0    0  501    0  0.00000000000E+00  0.00000000000E+00  0.24585237945E+04  0.24585237945E+04  0.25500000000E-02 0. -1.
         -2   -1    0    0    0  501 -0.00000000000E+00 -0.00000000000E+00 -0.36176382785E+04  0.36176382785E+04  0.25500000000E-02 0.  1.
    8880023    1    1    2    0    0  0.23509333032E+04 -0.14911683583E+03  0.12124349333E+04  0.27300058426E+04  0.65864270000E+03 0.  0.
    8880022    1    1    2    0    0 -0.23509333032E+04  0.14911683583E+03 -0.23715494173E+04  0.33461562305E+04  0.15294330000E+03 0.  0.
<mgrwt>
<rscale>  0 0.24243718E+04</rscale>
<asrwt>0</asrwt>
<pdfrwt beam="1">  1        2 0.37823443E+00 0.24460036E+04</pdfrwt>
<pdfrwt beam="2">  1       -2 0.55655973E+00 0.24460036E+04</pdfrwt>
<totfact> 0.23990167E-03</totfact>
</mgrwt>
</event>
<event>
 4    5  0.1112901E-007  0.7227894E+03  0.7818608E-02  0.9913258E-01
         -2   -1    0    0    0  501 -0.00000000000E+00  0.00000000000E+00  0.12640172389E+04  0.12640172390E+04  0.25500000000E-02 0.  1.
          2   -1    0    0  501    0  0.00000000000E+00 -0.00000000000E+00 -0.50981928954E+03  0.50981928955E+03  0.25500000000E-02 0. -1.
    8880023    1    1    2    0    0 -0.34034882904E+02 -0.29572938112E+03  0.10847138410E+04  0.13034678989E+04  0.65864270000E+03 0.  1.
    8880022    1    1    2    0    0  0.34034882904E+02  0.29572938112E+03 -0.33051589164E+03  0.47036862965E+03  0.15294330000E+03 0.  0.
<mgrwt>
<rscale>  0 0.59623013E+03</rscale>
<asrwt>0</asrwt>
<pdfrwt beam="1">  1        2 0.78433738E-01 0.72278935E+03</pdfrwt>
<pdfrwt beam="2">  1       -2 0.19446419E+00 0.72278935E+03</pdfrwt>
<totfact> 0.88994745E+00</totfact>
</mgrwt>
</event>
<event>
 4    5  0.1112901E-007  0.1291906E+04  0.7818608E-02  0.9072581E-01
         -2   -1    0    0    0  501 -0.00000000000E+00  0.00000000000E+00  0.13372192213E+04  0.13372192213E+04  0.25500000000E-02 0.  1.
          2   -1    0    0  501    0  0.00000000000E+00 -0.00000000000E+00 -0.29132135540E+04  0.29132135540E+04  0.25500000000E-02 0. -1.
    8880023    1    1    2    0    0  0.23069756138E+03  0.10871938016E+04  0.87129008668E+03  0.15582581136E+04  0.65864270000E+03 0.  0.
    8880022    1    1    2    0    0 -0.23069756138E+03 -0.10871938016E+04 -0.24472844194E+04  0.26921746617E+04  0.15294330000E+03 0.  0.
<mgrwt>
<rscale>  0 0.12471233E+04</rscale>
<asrwt>0</asrwt>
<pdfrwt beam="1">  1        2 0.44818670E+00 0.12919063E+04</pdfrwt>
<pdfrwt beam="2">  1       -2 0.20572603E+00 0.12919063E+04</pdfrwt>
<totfact> 0.23290339E-01</totfact>
</mgrwt>
</event>
<event>
 4    5  0.1112901E-007  0.1638688E+04  0.7818608E-02  0.8817444E-01
          2   -1    0    0  501    0  0.00000000000E+00  0.00000000000E+00  0.30035415378E+04  0.30035415378E+04  0.25500000000E-02 0. -1.
         -2   -1    0    0    0  501 -0.00000000000E+00 -0.00000000000E+00 -0.11181047316E+04  0.11181047316E+04  0.25500000000E-02 0.  1.
    8880023    1    1    2    0    0 -0.10171768068E+04  0.11031047168E+04 -0.84200229880E+02  0.16408499497E+04  0.65864270000E+03 0.  0.
    8880022    1    1    2    0    0  0.10171768068E+04 -0.11031047168E+04  0.19696370361E+04  0.24807963196E+04  0.15294330000E+03 0.  0.
<mgrwt>
<rscale>  0 0.16050629E+04</rscale>
<asrwt>0</asrwt>
<pdfrwt beam="1">  1        2 0.46208330E+00 0.16386882E+04</pdfrwt>
<pdfrwt beam="2">  1       -2 0.17201612E+00 0.16386882E+04</pdfrwt>
<totfact> 0.33238773E-01</totfact>
</mgrwt>
</event>
<event>
 4    5  0.1112901E-007  0.7892188E+03  0.7818608E-02  0.9734611E-01
          2   -1    0    0  501    0  0.00000000000E+00  0.00000000000E+00  0.71736346177E+03  0.71736346178E+03  0.25500000000E-02 0. -1.
         -2   -1    0    0    0  501 -0.00000000000E+00 -0.00000000000E+00 -0.60149334023E+03  0.60149334024E+03  0.25500000000E-02 0.  1.
    8880023    1    1    2    0    0  0.23369991151E+03 -0.36666123428E+03 -0.12457457364E+03  0.79899007504E+03  0.65864270000E+03 0.  0.
    8880022    1    1    2    0    0 -0.23369991151E+03  0.36666123428E+03  0.24044469518E+03  0.51986672697E+03  0.15294330000E+03 0.  0.
<mgrwt>
<rscale>  0 0.68992930E+03</rscale>
<asrwt>0</asrwt>
<pdfrwt beam="1">  1        2 0.11036361E+00 0.78921880E+03</pdfrwt>
<pdfrwt beam="2">  1       -2 0.92537437E-01 0.78921880E+03</pdfrwt>
<totfact> 0.39751272E+01</totfact>
</mgrwt>
</event>
<event>
 4    5  0.1112901E-007  0.8729771E+03  0.7818608E-02  0.9570884E-01
          2   -1    0    0  501    0  0.00000000000E+00  0.00000000000E+00  0.10728636583E+04  0.10728636583E+04  0.25500000000E-02 0. -1.
         -2   -1    0    0    0  501 -0.00000000000E+00 -0.00000000000E+00 -0.10928864612E+04  0.10928864612E+04  0.25500000000E-02 0.  1.
    8880023    1    1    2    0    0  0.55147405433E+03  0.15541928852E+03  0.77947355414E+03  0.11703281658E+04  0.65864270000E+03 0.  0.
    8880022    1    1    2    0    0 -0.55147405433E+03 -0.15541928852E+03 -0.79949635708E+03  0.99542195367E+03  0.15294330000E+03 0.  0.
<mgrwt>
<rscale>  0 0.79253622E+03</rscale>
<asrwt>0</asrwt>
<pdfrwt beam="1">  1        2 0.16505595E+00 0.87297709E+03</pdfrwt>
<pdfrwt beam="2">  1       -2 0.16813638E+00 0.87297709E+03</pdfrwt>
<totfact> 0.50025421E+00</totfact>
</mgrwt>
</event>
<event>
 4    5  0.1112901E-007  0.7682044E+03  0.7818608E-02  0.9784312E-01
          2   -1    0    0  501    0  0.00000000000E+00  0.00000000000E+00  0.10628974097E+04  0.10628974097E+04  0.25500000000E-02 0. -1.
         -2   -1    0    0    0  501 -0.00000000000E+00 -0.00000000000E+00 -0.33435855522E+03  0.33435855523E+03  0.25500000000E-02 0.  1.
    8880023    1    1    2    0    0  0.13264843375E+03  0.37246761858E+03  0.48013116567E+03  0.90590500406E+03  0.65864270000E+03 0.  1.
    8880022    1    1    2    0    0 -0.13264843375E+03 -0.37246761858E+03  0.24840768876E+03  0.49135096084E+03  0.15294330000E+03 0. -1.
<mgrwt>
<rscale>  0 0.66211274E+03</rscale>
<asrwt>0</asrwt>
<pdfrwt beam="1">  1        2 0.16352268E+00 0.76820436E+03</pdfrwt>
<pdfrwt beam="2">  1       -2 0.51439776E-01 0.76820436E+03</pdfrwt>
<totfact> 0.83121581E+01</totfact>
</mgrwt>
</event>
<event>
 4    5  0.1112901E-007  0.9022806E+03  0.7818608E-02  0.9522380E-01
          2   -1    0    0  501    0  0.00000000000E+00  0.00000000000E+00  0.12677065677E+04  0.12677065677E+04  0.25500000000E-02 0. -1.
         -2   -1    0    0    0  501 -0.00000000000E+00 -0.00000000000E+00 -0.53152179233E+03  0.53152179234E+03  0.25500000000E-02 0.  1.
    8880023    1    1    2    0    0 -0.61659474562E+03  0.10536272852E+02  0.11312703781E+03  0.90934483356E+03  0.65864270000E+03 0. -1.
    8880022    1    1    2    0    0  0.61659474562E+03 -0.10536272852E+02  0.62305773758E+03  0.88988352651E+03  0.15294330000E+03 0.  0.
<mgrwt>
<rscale>  0 0.82653729E+03</rscale>
<asrwt>0</asrwt>
<pdfrwt beam="1">  1        2 0.19503178E+00 0.90228061E+03</pdfrwt>
<pdfrwt beam="2">  1       -2 0.81772584E-01 0.90228061E+03</pdfrwt>
<totfact> 0.22816357E+01</totfact>
</mgrwt>
</event>
<event>
 4    5  0.1112901E-007  0.8908751E+03  0.7818608E-02  0.9540842E-01
         -2   -1    0    0    0  501 -0.00000000000E+00  0.00000000000E+00  0.60407065186E+03  0.60407065186E+03  0.25500000000E-02 0.  1.
          2   -1    0    0  501    0  0.00000000000E+00 -0.00000000000E+00 -0.17083937789E+04  0.17083937789E+04  0.25500000000E-02 0. -1.
    8880023    1    1    2    0    0 -0.52612582223E+03  0.28816627404E+03 -0.13737360513E+04  0.16373176623E+04  0.65864270000E+03 0. -1.
    8880022    1    1    2    0    0  0.52612582223E+03 -0.28816627404E+03  0.26941292421E+03  0.67514676853E+03  0.15294330000E+03 0.  0.
<mgrwt>
<rscale>  0 0.81338552E+03</rscale>
<asrwt>0</asrwt>
<pdfrwt beam="1">  1        2 0.26282981E+00 0.89087507E+03</pdfrwt>
<pdfrwt beam="2">  1       -2 0.92933947E-01 0.89087507E+03</pdfrwt>
<totfact> 0.96139409E+00</totfact>
</mgrwt>
</event>
<event>
 4    5  0.1112901E-007  0.1525178E+04  0.7818608E-02  0.8892059E-01
         -2   -1    0    0    0  501 -0.00000000000E+00  0.00000000000E+00  0.11313328184E+04  0.11313328184E+04  0.25500000000E-02 0.  1.
          2   -1    0    0  501    0  0.00000000000E+00 -0.00000000000E+00 -0.19310603890E+04  0.19310603890E+04  0.25500000000E-02 0. -1.
    8880023    1    1    2    0    0  0.13756119177E+04  0.69801501489E+01 -0.14744472176E+03  0.15322881657E+04  0.65864270000E+03 0.  0.
    8880022    1    1    2    0    0 -0.13756119177E+04 -0.69801501489E+01 -0.65228284878E+03  0.15301050416E+04  0.15294330000E+03 0.  0.
<mgrwt>
<rscale>  0 0.14886159E+04</rscale>
<asrwt>0</asrwt>
<pdfrwt beam="1">  1        2 0.29708621E+00 0.15251777E+04</pdfrwt>
<pdfrwt beam="2">  1       -2 0.17405120E+00 0.15251777E+04</pdfrwt>
<totfact> 0.13682075E+00</totfact>
</mgrwt>
</event>
<event>
 4    5  0.1112901E-007  0.1659132E+04  0.7818608E-02  0.8804743E-01
         -2   -1    0    0    0  501 -0.00000000000E+00  0.00000000000E+00  0.23186435101E+04  0.23186435101E+04  0.25500000000E-02 0.  1.
          2   -1    0    0  501    0  0.00000000000E+00 -0.00000000000E+00 -0.17120029913E+04  0.17120029913E+04  0.25500000000E-02 0. -1.
    8880023    1    1    2    0    0  0.72288234698E+03 -0.13402799492E+04  0.15185074515E+04  0.22491296797E+04  0.65864270000E+03 0.  0.
    8880022    1    1    2    0    0 -0.72288234698E+03  0.13402799492E+04 -0.91186693277E+03  0.17815168217E+04  0.15294330000E+03 0.  0.
<mgrwt>
<rscale>  0 0.16259832E+04</rscale>
<asrwt>0</asrwt>
<pdfrwt beam="1">  1        2 0.26338508E+00 0.16591321E+04</pdfrwt>
<pdfrwt beam="2">  1       -2 0.35671439E+00 0.16591321E+04</pdfrwt>
<totfact> 0.12581504E-01</totfact>
</mgrwt>
</event>
<event>
 4    5  0.1112901E-007  0.1308244E+04  0.7818608E-02  0.9058474E-01
         -2   -1    0    0    0  501 -0.00000000000E+00  0.00000000000E+00  0.14787760859E+04  0.14787760859E+04  0.25500000000E-02 0.  1.
          2   -1    0    0  501    0  0.00000000000E+00 -0.00000000000E+00 -0.12301972775E+04  0.12301972775E+04  0.25500000000E-02 0. -1.
    8880023    1    1    2    0    0 -0.77937718112E+03  0.81869543839E+03  0.69821002394E+03  0.14829020383E+04  0.65864270000E+03 0.  0.
    8880022    1    1    2    0    0  0.77937718112E+03 -0.81869543839E+03 -0.44963121558E+03  0.12260713251E+04  0.15294330000E+03 0.  0.
<mgrwt>
<rscale>  0 0.12641673E+04</rscale>
<asrwt>0</asrwt>
<pdfrwt beam="1">  1        2 0.18926112E+00 0.13082436E+04</pdfrwt>
<pdfrwt beam="2">  1       -2 0.22750401E+00 0.13082436E+04</pdfrwt>
<totfact> 0.15473918E+00</totfact>
</mgrwt>
</event>
<event>
 4    5  0.1112901E-007  0.6726227E+03  0.7818608E-02  0.1013849E+00
          2   -1    0    0  501    0  0.00000000000E+00  0.00000000000E+00  0.14126514314E+04  0.14126514314E+04  0.25500000000E-02 0. -1.
         -2   -1    0    0    0  501 -0.00000000000E+00 -0.00000000000E+00 -0.40030517431E+03  0.40030517432E+03  0.25500000000E-02 0.  1.
    8880023    1    1    2    0    0 -0.12436366087E+03 -0.56078550782E+02 -0.10165409951E+03  0.68026089570E+03  0.65864270000E+03 0.  1.
    8880022    1    1    2    0    0  0.12436366087E+03  0.56078550782E+02  0.11140003566E+04  0.11326957100E+04  0.15294330000E+03 0.  0.
<mgrwt>
<rscale>  0 0.49973343E+03</rscale>
<asrwt>0</asrwt>
<pdfrwt beam="1">  1        2 0.21733099E+00 0.67262273E+03</pdfrwt>
<pdfrwt beam="2">  1       -2 0.61585410E-01 0.67262273E+03</pdfrwt>
<totfact> 0.35938725E+01</totfact>
</mgrwt>
</event>
<event>
 4    5  0.1112901E-007  0.7583531E+03  0.7818608E-02  0.9809390E-01
         -2   -1    0    0    0  501 -0.00000000000E+00  0.00000000000E+00  0.47126730888E+03  0.47126730888E+03  0.25500000000E-02 0.  1.
          2   -1    0    0  501    0  0.00000000000E+00 -0.00000000000E+00 -0.93229992025E+03  0.93229992025E+03  0.25500000000E-02 0. -1.
    8880023    1    1    2    0    0 -0.37257972885E+03  0.49735300176E+02  0.39277009103E+02  0.75936957019E+03  0.65864270000E+03 0.  0.
    8880022    1    1    2    0    0  0.37257972885E+03 -0.49735300176E+02 -0.50030962048E+03  0.64419765894E+03  0.15294330000E+03 0.  0.
<mgrwt>
<rscale>  0 0.64861056E+03</rscale>
<asrwt>0</asrwt>
<pdfrwt beam="1">  1        2 0.14343076E+00 0.75835312E+03</pdfrwt>
<pdfrwt beam="2">  1       -2 0.72502663E-01 0.75835312E+03</pdfrwt>
<totfact> 0.48681731E+01</totfact>
</mgrwt>
</event>
<event>
 4    5  0.1112901E-007  0.7040197E+03  0.7818608E-02  0.9980917E-01
          2   -1    0    0  501    0  0.00000000000E+00  0.00000000000E+00  0.17122822614E+04  0.17122822614E+04  0.25500000000E-02 0. -1.
         -2   -1    0    0    0  501 -0.00000000000E+00 -0.00000000000E+00 -0.24101434252E+03  0.24101434253E+03  0.25500000000E-02 0.  1.
    8880023    1    1    2    0    0  0.15458929816E+03 -0.19477080910E+03  0.33413535602E+03  0.77928824037E+03  0.65864270000E+03 0.  1.
    8880022    1    1    2    0    0 -0.15458929816E+03  0.19477080910E+03  0.11371325629E+04  0.11740083636E+04  0.15294330000E+03 0.  0.
<mgrwt>
<rscale>  0 0.56494945E+03</rscale>
<asrwt>0</asrwt>
<pdfrwt beam="1">  1        2 0.26342804E+00 0.70401969E+03</pdfrwt>
<pdfrwt beam="2">  1       -2 0.37079129E-01 0.70401969E+03</pdfrwt>
<totfact> 0.68062274E+01</totfact>
</mgrwt>
</event>
<event>
 4    5  0.1112901E-007  0.1111050E+04  0.7818608E-02  0.9248852E-01
          2   -1    0    0  501    0  0.00000000000E+00  0.00000000000E+00  0.33871268389E+04  0.33871268389E+04  0.25500000000E-02 0. -1.
         -2   -1    0    0    0  501 -0.00000000000E+00 -0.00000000000E+00 -0.59415515015E+03  0.59415515016E+03  0.25500000000E-02 0.  1.
    8880023    1    1    2    0    0 -0.63579402554E+03  0.62959418830E+03  0.72561246952E+02  0.11134173637E+04  0.65864270000E+03 0.  1.
    8880022    1    1    2    0    0  0.63579402554E+03 -0.62959418830E+03  0.27204104418E+04  0.28678646254E+04  0.15294330000E+03 0.  0.
<mgrwt>
<rscale>  0 0.10563119E+04</rscale>
<asrwt>0</asrwt>
<pdfrwt beam="1">  1        2 0.52109645E+00 0.11110504E+04</pdfrwt>
<pdfrwt beam="2">  1       -2 0.91408483E-01 0.11110504E+04</pdfrwt>
<totfact> 0.10041786E+00</totfact>
</mgrwt>
</event>
<event>
 4    5  0.1112901E-007  0.1289589E+04  0.7818608E-02  0.9074603E-01
         -2   -1    0    0    0  501 -0.00000000000E+00  0.00000000000E+00  0.10556509925E+04  0.10556509925E+04  0.25500000000E-02 0.  1.
          2   -1    0    0  501    0  0.00000000000E+00 -0.00000000000E+00 -0.28728317328E+04  0.28728317328E+04  0.25500000000E-02 0. -1.
    8880023    1    1    2    0    0  0.90318501687E+03 -0.64302970909E+03  0.47770571395E+03  0.13752248314E+04  0.65864270000E+03 0.  0.
    8880022    1    1    2    0    0 -0.90318501687E+03  0.64302970909E+03 -0.22948864543E+04  0.25532578938E+04  0.15294330000E+03 0.  0.
<mgrwt>
<rscale>  0 0.12447040E+04</rscale>
<asrwt>0</asrwt>
<pdfrwt beam="1">  1        2 0.44197411E+00 0.12895893E+04</pdfrwt>
<pdfrwt beam="2">  1       -2 0.16240785E+00 0.12895893E+04</pdfrwt>
<totfact> 0.48964632E-01</totfact>
</mgrwt>
</event>
<event>
 4    5  0.1112901E-007  0.1030038E+04  0.7818608E-02  0.9343273E-01
         -2   -1    0    0    0  501 -0.00000000000E+00  0.00000000000E+00  0.62897614017E+03  0.62897614017E+03  0.25500000000E-02 0.  1.
          2   -1    0    0  501    0  0.00000000000E+00 -0.00000000000E+00 -0.18753687648E+04  0.18753687648E+04  0.25500000000E-02 0. -1.
    8880023    1    1    2    0    0  0.97539647057E+02 -0.78590914237E+03 -0.12373083006E+02  0.10301118688E+04  0.65864270000E+03 0.  0.
    8880022    1    1    2    0    0 -0.97539647057E+02  0.78590914237E+03 -0.12340195417E+04  0.14742330362E+04  0.15294330000E+03 0.  0.
<mgrwt>
<rscale>  0 0.96894832E+03</rscale>
<asrwt>0</asrwt>
<pdfrwt beam="1">  1        2 0.28851827E+00 0.10300376E+04</pdfrwt>
<pdfrwt beam="2">  1       -2 0.96765561E-01 0.10300376E+04</pdfrwt>
<totfact> 0.69657480E+00</totfact>
</mgrwt>
</event>
<event>
 4    5  0.1112901E-007  0.7117813E+03  0.7818608E-02  0.9951445E-01
          2   -1    0    0  501    0  0.00000000000E+00  0.00000000000E+00  0.20936475788E+04  0.20936475788E+04  0.25500000000E-02 0. -1.
         -2   -1    0    0    0  501 -0.00000000000E+00 -0.00000000000E+00 -0.29619543975E+03  0.29619543976E+03  0.25500000000E-02 0.  1.
    8880023    1    1    2    0    0 -0.14279900581E+03 -0.22897799233E+03  0.16827752007E+03  0.73140276664E+03  0.65864270000E+03 0.  0.
    8880022    1    1    2    0    0  0.14279900581E+03  0.22897799233E+03  0.16291746190E+04  0.16584402519E+04  0.15294330000E+03 0.  0.
<mgrwt>
<rscale>  0 0.57831547E+03</rscale>
<asrwt>0</asrwt>
<pdfrwt beam="1">  1        2 0.32209963E+00 0.71178135E+03</pdfrwt>
<pdfrwt beam="2">  1       -2 0.45568529E-01 0.71178135E+03</pdfrwt>
<totfact> 0.28142158E+01</totfact>
</mgrwt>
</event>
<event>
 4    5  0.1112901E-007  0.6991296E+03  0.7818608E-02  0.1000083E+00
          2   -1    0    0  501    0  0.00000000000E+00  0.00000000000E+00  0.86550832026E+03  0.86550832026E+03  0.25500000000E-02 0. -1.
         -2   -1    0    0    0  501 -0.00000000000E+00 -0.00000000000E+00 -0.25192949568E+04  0.25192949568E+04  0.25500000000E-02 0.  1.
    8880023    1    1    2    0    0 -0.10862363488E+03 -0.20778079295E+03 -0.24463320862E+04  0.25442725550E+04  0.65864270000E+03 0.  1.
    8880022    1    1    2    0    0  0.10862363488E+03  0.20778079295E+03  0.79254544964E+03  0.84053072207E+03  0.15294330000E+03 0.  0.
<mgrwt>
<rscale>  0 0.55613798E+03</rscale>
<asrwt>0</asrwt>
<pdfrwt beam="1">  1        2 0.13315513E+00 0.69912957E+03</pdfrwt>
<pdfrwt beam="2">  1       -2 0.38758384E+00 0.69912957E+03</pdfrwt>
<totfact> 0.29834287E-01</totfact>
</mgrwt>
</event>
<event>
 4    5  0.1112901E-007  0.6964243E+03  0.7818608E-02  0.1001237E+00
         -2   -1    0    0    0  501 -0.00000000000E+00  0.00000000000E+00  0.18689338149E+03  0.18689338151E+03  0.25500000000E-02 0.  1.
          2   -1    0    0  501    0  0.00000000000E+00 -0.00000000000E+00 -0.24123004897E+04  0.24123004897E+04  0.25500000000E-02 0. -1.
    8880023    1    1    2    0    0 -0.14631280880E+03  0.17259551181E+03 -0.51256122272E+03  0.86471143280E+03  0.65864270000E+03 0.  1.
    8880022    1    1    2    0    0  0.14631280880E+03 -0.17259551181E+03 -0.17128458855E+04  0.17344824385E+04  0.15294330000E+03 0.  0.
<mgrwt>
<rscale>  0 0.55111127E+03</rscale>
<asrwt>0</asrwt>
<pdfrwt beam="1">  1        2 0.37112313E+00 0.69642434E+03</pdfrwt>
<pdfrwt beam="2">  1       -2 0.28752830E-01 0.69642434E+03</pdfrwt>
<totfact> 0.45424859E+01</totfact>
</mgrwt>
</event>
<event>
 4    5  0.1112901E-007  0.1485136E+04  0.7818608E-02  0.8920204E-01
          2   -1    0    0  501    0  0.00000000000E+00  0.00000000000E+00  0.28044732710E+04  0.28044732710E+04  0.25500000000E-02 0. -1.
         -2   -1    0    0    0  501 -0.00000000000E+00 -0.00000000000E+00 -0.12542579934E+04  0.12542579934E+04  0.25500000000E-02 0.  1.
    8880023    1    1    2    0    0 -0.63336125736E+03 -0.11707566091E+04  0.21317863384E+04  0.25981032926E+04  0.65864270000E+03 0. -1.
    8880022    1    1    2    0    0  0.63336125736E+03  0.11707566091E+04 -0.58157106079E+03  0.14606279718E+04  0.15294330000E+03 0.  0.
<mgrwt>
<rscale>  0 0.14474013E+04</rscale>
<asrwt>0</asrwt>
<pdfrwt beam="1">  1        2 0.43145743E+00 0.14851356E+04</pdfrwt>
<pdfrwt beam="2">  1       -2 0.19296277E+00 0.14851356E+04</pdfrwt>
<totfact> 0.32100014E-01</totfact>
</mgrwt>
</event>
<event>
 4    5  0.1112901E-007  0.1580930E+04  0.7818608E-02  0.8854506E-01
         -2   -1    0    0    0  501 -0.00000000000E+00  0.00000000000E+00  0.10120115150E+04  0.10120115150E+04  0.25500000000E-02 0.  1.
          2   -1    0    0  501    0  0.00000000000E+00 -0.00000000000E+00 -0.31377536524E+04  0.31377536524E+04  0.25500000000E-02 0. -1.
    8880023    1    1    2    0    0 -0.39923710908E+03  0.13806303972E+04 -0.21923588885E+04  0.27029203217E+04  0.65864270000E+03 0.  0.
    8880022    1    1    2    0    0  0.39923710908E+03 -0.13806303972E+04  0.66616751202E+02  0.14468448457E+04  0.15294330000E+03 0.  0.
<mgrwt>
<rscale>  0 0.15458766E+04</rscale>
<asrwt>0</asrwt>
<pdfrwt beam="1">  1        2 0.48273133E+00 0.15809303E+04</pdfrwt>
<pdfrwt beam="2">  1       -2 0.15569408E+00 0.15809303E+04</pdfrwt>
<totfact> 0.36263640E-01</totfact>
</mgrwt>
</event>
<event>
 4    5  0.1532988E-007  0.1713956E+04  0.7818608E-02  0.8771688E-01
          2   -1    0    0  501    0  0.00000000000E+00  0.00000000000E+00  0.27662749165E+04  0.27662749165E+04  0.25500000000E-02 0. -1.
         -2   -1    0    0    0  501 -0.00000000000E+00 -0.00000000000E+00 -0.20868595308E+04  0.20868595309E+04  0.25500000000E-02 0.  1.
    8880023    1    1    2    0    0  0.13889158257E+04  0.75812187513E+03 -0.14157961299E+04  0.22230890302E+04  0.65864270000E+03 0.  0.
    8880022    1    1    2    0    0 -0.13889158257E+04 -0.75812187513E+03  0.20952115156E+04  0.26300454172E+04  0.15294330000E+03 0.  0.
<mgrwt>
<rscale>  0 0.16820169E+04</rscale>
<asrwt>0</asrwt>
<pdfrwt beam="1">  1        2 0.42558075E+00 0.17139563E+04</pdfrwt>
<pdfrwt beam="2">  1       -2 0.32105531E+00 0.17139563E+04</pdfrwt>
<totfact> 0.52223956E-02</totfact>
</mgrwt>
</event>
<event>
 4    5  0.1112901E-007  0.7643288E+03  0.7818608E-02  0.9794027E-01
          2   -1    0    0  501    0  0.00000000000E+00  0.00000000000E+00  0.21162936537E+04  0.21162936537E+04  0.25500000000E-02 0. -1.
         -2   -1    0    0    0  501 -0.00000000000E+00 -0.00000000000E+00 -0.32037655746E+03  0.32037655747E+03  0.25500000000E-02 0.  1.
    8880023    1    1    2    0    0  0.32802911932E+03  0.20684581587E+03  0.20401167871E+03  0.79108739465E+03  0.65864270000E+03 0.  1.
    8880022    1    1    2    0    0 -0.32802911932E+03 -0.20684581587E+03  0.15919054175E+04  0.16455828165E+04  0.15294330000E+03 0.  0.
<mgrwt>
<rscale>  0 0.65684080E+03</rscale>
<asrwt>0</asrwt>
<pdfrwt beam="1">  1        2 0.32558363E+00 0.76432879E+03</pdfrwt>
<pdfrwt beam="2">  1       -2 0.49288703E-01 0.76432879E+03</pdfrwt>
<totfact> 0.23182799E+01</totfact>
</mgrwt>
</event>
<event>
 4    5  0.1112901E-007  0.1313389E+04  0.7818608E-02  0.9054083E-01
          2   -1    0    0  501    0  0.00000000000E+00  0.00000000000E+00  0.24785373703E+04  0.24785373703E+04  0.25500000000E-02 0. -1.
         -2   -1    0    0    0  501 -0.00000000000E+00 -0.00000000000E+00 -0.78456565921E+03  0.78456565921E+03  0.25500000000E-02 0.  1.
    8880023    1    1    2    0    0  0.91042890505E+03  0.67992608731E+03  0.12426634863E+03  0.13192545649E+04  0.65864270000E+03 0.  0.
    8880022    1    1    2    0    0 -0.91042890505E+03 -0.67992608731E+03  0.15697053624E+04  0.19438484646E+04  0.15294330000E+03 0.  0.
<mgrwt>
<rscale>  0 0.12695303E+04</rscale>
<asrwt>0</asrwt>
<pdfrwt beam="1">  1        2 0.38131344E+00 0.13133889E+04</pdfrwt>
<pdfrwt beam="2">  1       -2 0.12070241E+00 0.13133889E+04</pdfrwt>
<totfact> 0.18142777E+00</totfact>
</mgrwt>
</event>
<event>
 4    5  0.1112901E-007  0.6974345E+03  0.7818608E-02  0.1000801E+00
         -2   -1    0    0    0  501 -0.00000000000E+00  0.00000000000E+00  0.53392176865E+03  0.53392176865E+03  0.25500000000E-02 0.  1.
          2   -1    0    0  501    0  0.00000000000E+00 -0.00000000000E+00 -0.13844247891E+04  0.13844247891E+04  0.25500000000E-02 0. -1.
    8880023    1    1    2    0    0 -0.73731724182E+02 -0.21718274694E+03  0.28236002932E+03  0.75242415242E+03  0.65864270000E+03 0.  1.
    8880022    1    1    2    0    0  0.73731724182E+02  0.21718274694E+03 -0.11328630498E+04  0.11659224054E+04  0.15294330000E+03 0.  0.
<mgrwt>
<rscale>  0 0.55300198E+03</rscale>
<asrwt>0</asrwt>
<pdfrwt beam="1">  1        2 0.21298843E+00 0.69743453E+03</pdfrwt>
<pdfrwt beam="2">  1       -2 0.82141811E-01 0.69743453E+03</pdfrwt>
<totfact> 0.19786783E+01</totfact>
</mgrwt>
</event>
<event>
 4    5  0.1112901E-007  0.6994310E+03  0.7818608E-02  0.9999570E-01
         -2   -1    0    0    0  501 -0.00000000000E+00  0.00000000000E+00  0.18067256263E+04  0.18067256263E+04  0.25500000000E-02 0.  1.
          2   -1    0    0  501    0  0.00000000000E+00 -0.00000000000E+00 -0.64516883042E+03  0.64516883042E+03  0.25500000000E-02 0. -1.
    8880023    1    1    2    0    0  0.22475331069E+03 -0.69853148636E+02  0.17035433183E+04  0.18415383668E+04  0.65864270000E+03 0.  1.
    8880022    1    1    2    0    0 -0.22475331069E+03  0.69853148636E+02 -0.54198652237E+03  0.61035608991E+03  0.15294330000E+03 0.  0.
<mgrwt>
<rscale>  0 0.55669102E+03</rscale>
<asrwt>0</asrwt>
<pdfrwt beam="1">  1        2 0.99256744E-01 0.69943100E+03</pdfrwt>
<pdfrwt beam="2">  1       -2 0.27795779E+00 0.69943100E+03</pdfrwt>
<totfact> 0.20565504E+00</totfact>
</mgrwt>
</event>
<event>
 4    5  0.1112901E-007  0.1047961E+04  0.7818608E-02  0.9321337E-01
          2   -1    0    0  501    0  0.00000000000E+00  0.00000000000E+00  0.11239489418E+04  0.11239489418E+04  0.25500000000E-02 0. -1.
         -2   -1    0    0    0  501 -0.00000000000E+00 -0.00000000000E+00 -0.12354345752E+04  0.12354345752E+04  0.25500000000E-02 0.  1.
    8880023    1    1    2    0    0  0.81213306808E+03  0.69650648428E+02  0.65025138477E+03  0.12333079108E+04  0.65864270000E+03 0.  0.
    8880022    1    1    2    0    0 -0.81213306808E+03 -0.69650648428E+02 -0.76173701815E+03  0.11260756062E+04  0.15294330000E+03 0.  0.
<mgrwt>
<rscale>  0 0.98842049E+03</rscale>
<asrwt>0</asrwt>
<pdfrwt beam="1">  1        2 0.17291522E+00 0.10479607E+04</pdfrwt>
<pdfrwt beam="2">  1       -2 0.19006686E+00 0.10479607E+04</pdfrwt>
<totfact> 0.32165845E+00</totfact>
</mgrwt>
</event>
<event>
 4    5  0.1112901E-007  0.1090528E+04  0.7818608E-02  0.9271676E-01
          2   -1    0    0  501    0  0.00000000000E+00  0.00000000000E+00  0.93014329606E+03  0.93014329606E+03  0.25500000000E-02 0. -1.
         -2   -1    0    0    0  501 -0.00000000000E+00 -0.00000000000E+00 -0.12317154613E+04  0.12317154614E+04  0.25500000000E-02 0.  1.
    8880023    1    1    2    0    0  0.15609140619E+03 -0.85503048329E+03 -0.58167304110E+03  0.12359592985E+04  0.65864270000E+03 0.  0.
    8880022    1    1    2    0    0 -0.15609140619E+03  0.85503048329E+03  0.28010087581E+03  0.92589945895E+03  0.15294330000E+03 0.  0.
<mgrwt>
<rscale>  0 0.10343279E+04</rscale>
<asrwt>0</asrwt>
<pdfrwt beam="1">  1        2 0.14309897E+00 0.10905282E+04</pdfrwt>
<pdfrwt beam="2">  1       -2 0.18949469E+00 0.10905282E+04</pdfrwt>
<totfact> 0.42976010E+00</totfact>
</mgrwt>
</event>
<event>
 4    5  0.1112901E-007  0.1023149E+04  0.7818608E-02  0.9351879E-01
         -2   -1    0    0    0  501 -0.00000000000E+00  0.00000000000E+00  0.93968717997E+03  0.93968717997E+03  0.25500000000E-02 0.  1.
          2   -1    0    0  501    0  0.00000000000E+00 -0.00000000000E+00 -0.22757230025E+04  0.22757230025E+04  0.25500000000E-02 0. -1.
    8880023    1    1    2    0    0  0.78130297850E+03 -0.50889437055E+02  0.55428814906E+03  0.11636449791E+04  0.65864270000E+03 0.  0.
    8880022    1    1    2    0    0 -0.78130297850E+03  0.50889437055E+02 -0.18903239716E+04  0.20517652033E+04  0.15294330000E+03 0.  0.
<mgrwt>
<rscale>  0 0.96143923E+03</rscale>
<asrwt>0</asrwt>
<pdfrwt beam="1">  1        2 0.35011123E+00 0.10231492E+04</pdfrwt>
<pdfrwt beam="2">  1       -2 0.14456726E+00 0.10231492E+04</pdfrwt>
<totfact> 0.15433367E+00</totfact>
</mgrwt>
</event>
<event>
 4    5  0.1112901E-007  0.9788019E+03  0.7818608E-02  0.9409832E-01
          2   -1    0    0  501    0  0.00000000000E+00  0.00000000000E+00  0.27462267256E+04  0.27462267256E+04  0.25500000000E-02 0. -1.
         -2   -1    0    0    0  501 -0.00000000000E+00 -0.00000000000E+00 -0.30163393254E+03  0.30163393255E+03  0.25500000000E-02 0.  1.
    8880023    1    1    2    0    0 -0.72395261475E+03  0.11643278141E+02  0.87637041034E+03  0.13138029748E+04  0.65864270000E+03 0.  0.
    8880022    1    1    2    0    0  0.72395261475E+03 -0.11643278141E+02  0.15682223827E+04  0.17340576833E+04  0.15294330000E+03 0.  0.
<mgrwt>
<rscale>  0 0.91270927E+03</rscale>
<asrwt>0</asrwt>
<pdfrwt beam="1">  1        2 0.42249642E+00 0.97880190E+03</pdfrwt>
<pdfrwt beam="2">  1       -2 0.46405220E-01 0.97880190E+03</pdfrwt>
<totfact> 0.11189529E+01</totfact>
</mgrwt>
</event>
<event>
 4    5  0.1112901E-007  0.1152894E+04  0.7818608E-02  0.9204331E-01
         -2   -1    0    0    0  501 -0.00000000000E+00  0.00000000000E+00  0.55669422579E+03  0.55669422580E+03  0.25500000000E-02 0.  1.
          2   -1    0    0  501    0  0.00000000000E+00 -0.00000000000E+00 -0.34136276404E+04  0.34136276404E+04  0.25500000000E-02 0. -1.
    8880023    1    1    2    0    0 -0.45255818428E+03 -0.83099098356E+03 -0.27789892487E+04  0.30086452725E+04  0.65864270000E+03 0.  0.
    8880022    1    1    2    0    0  0.45255818428E+03  0.83099098356E+03 -0.77944165907E+02  0.96167659373E+03  0.15294330000E+03 0.  0.
<mgrwt>
<rscale>  0 0.11008840E+04</rscale>
<asrwt>0</asrwt>
<pdfrwt beam="1">  1        2 0.52517347E+00 0.11528942E+04</pdfrwt>
<pdfrwt beam="2">  1       -2 0.85645268E-01 0.11528942E+04</pdfrwt>
<totfact> 0.11133866E+00</totfact>
</mgrwt>
</event>
<event>
 4    5  0.1112901E-007  0.1062121E+04  0.7818608E-02  0.9304451E-01
          2   -1    0    0  501    0  0.00000000000E+00  0.00000000000E+00  0.14795453459E+04  0.14795453459E+04  0.25500000000E-02 0. -1.
         -2   -1    0    0    0  501 -0.00000000000E+00 -0.00000000000E+00 -0.96379630359E+03  0.96379630359E+03  0.25500000000E-02 0.  1.
    8880023    1    1    2    0    0  0.52396739760E+02 -0.83159184627E+03 -0.45451308708E+03  0.11552847137E+04  0.65864270000E+03 0.  0.
    8880022    1    1    2    0    0 -0.52396739760E+02  0.83159184627E+03  0.97026212940E+03  0.12880569358E+04  0.15294330000E+03 0.  0.
<mgrwt>
<rscale>  0 0.10037417E+04</rscale>
<asrwt>0</asrwt>
<pdfrwt beam="1">  1        2 0.22762236E+00 0.10621208E+04</pdfrwt>
<pdfrwt beam="2">  1       -2 0.14827635E+00 0.10621208E+04</pdfrwt>
<totfact> 0.39702128E+00</totfact>
</mgrwt>
</event>
<event>
 4    5  0.1112901E-007  0.8032998E+03  0.7818608E-02  0.9703706E-01
          2   -1    0    0  501    0  0.00000000000E+00  0.00000000000E+00  0.17081039429E+04  0.17081039429E+04  0.25500000000E-02 0. -1.
         -2   -1    0    0    0  501 -0.00000000000E+00 -0.00000000000E+00 -0.41308002117E+03  0.41308002118E+03  0.25500000000E-02 0.  1.
    8880023    1    1    2    0    0  0.12564132967E+03  0.44237388010E+03  0.73049707876E+02  0.80661444297E+03  0.65864270000E+03 0.  0.
    8880022    1    1    2    0    0 -0.12564132967E+03 -0.44237388010E+03  0.12219742138E+04  0.13145695211E+04  0.15294330000E+03 0.  0.
<mgrwt>
<rscale>  0 0.70796562E+03</rscale>
<asrwt>0</asrwt>
<pdfrwt beam="1">  1        2 0.26278523E+00 0.80329982E+03</pdfrwt>
<pdfrwt beam="2">  1       -2 0.63550772E-01 0.80329982E+03</pdfrwt>
<totfact> 0.22706392E+01</totfact>
</mgrwt>
</event>
<event>
 4    5  0.1112901E-007  0.8929875E+03  0.7818608E-02  0.9537384E-01
         -2   -1    0    0    0  501 -0.00000000000E+00  0.00000000000E+00  0.90385019072E+03  0.90385019073E+03  0.25500000000E-02 0.  1.
          2   -1    0    0  501    0  0.00000000000E+00 -0.00000000000E+00 -0.10121666032E+04  0.10121666032E+04  0.25500000000E-02 0. -1.
    8880023    1    1    2    0    0  0.44593273466E+03  0.40590701261E+03  0.51873956871E+03  0.10327233188E+04  0.65864270000E+03 0.  1.
    8880022    1    1    2    0    0 -0.44593273466E+03 -0.40590701261E+03 -0.62705598122E+03  0.88329347520E+03  0.15294330000E+03 0.  0.
<mgrwt>
<rscale>  0 0.81582885E+03</rscale>
<asrwt>0</asrwt>
<pdfrwt beam="1">  1        2 0.15571794E+00 0.89298752E+03</pdfrwt>
<pdfrwt beam="2">  1       -2 0.13905388E+00 0.89298752E+03</pdfrwt>
<totfact> 0.90600484E+00</totfact>
</mgrwt>
</event>
<event>
 4    5  0.1112901E-007  0.6677609E+03  0.7818608E-02  0.1017321E+00
         -2   -1    0    0    0  501 -0.00000000000E+00  0.00000000000E+00  0.17868596804E+03  0.17868596805E+03  0.25500000000E-02 0.  1.
          2   -1    0    0  501    0  0.00000000000E+00 -0.00000000000E+00 -0.21187647463E+04  0.21187647463E+04  0.25500000000E-02 0. -1.
    8880023    1    1    2    0    0  0.67594353421E+02 -0.86749503171E+02 -0.47296193254E+03  0.81828947739E+03  0.65864270000E+03 0.  0.
    8880022    1    1    2    0    0 -0.67594353421E+02  0.86749503171E+02 -0.14671168458E+04  0.14791612370E+04  0.15294330000E+03 0. -1.
<mgrwt>
<rscale>  0 0.48665712E+03</rscale>
<asrwt>0</asrwt>
<pdfrwt beam="1">  1        2 0.32596379E+00 0.66776094E+03</pdfrwt>
<pdfrwt beam="2">  1       -2 0.27490150E-01 0.66776094E+03</pdfrwt>
<totfact> 0.71944121E+01</totfact>
</mgrwt>
</event>
<event>
 4    5  0.1112901E-007  0.9095416E+03  0.7818608E-02  0.9510885E-01
         -2   -1    0    0    0  501 -0.00000000000E+00  0.00000000000E+00  0.23917618052E+04  0.23917618052E+04  0.25500000000E-02 0.  1.
          2   -1    0    0  501    0  0.00000000000E+00 -0.00000000000E+00 -0.87562203281E+03  0.87562203282E+03  0.25500000000E-02 0. -1.
    8880023    1    1    2    0    0 -0.34620237940E+03 -0.52306746843E+03  0.21672910269E+04  0.23504076807E+04  0.65864270000E+03 0.  1.
    8880022    1    1    2    0    0  0.34620237940E+03  0.52306746843E+03 -0.65115125444E+03  0.91697615738E+03  0.15294330000E+03 0.  0.
<mgrwt>
<rscale>  0 0.83486075E+03</rscale>
<asrwt>0</asrwt>
<pdfrwt beam="1">  1        2 0.13471108E+00 0.90954157E+03</pdfrwt>
<pdfrwt beam="2">  1       -2 0.36796335E+00 0.90954157E+03</pdfrwt>
<totfact> 0.37519882E-01</totfact>
</mgrwt>
</event>
<event>
 4    5  0.1112901E-007  0.1379007E+04  0.7818608E-02  0.9000169E-01
         -2   -1    0    0    0  501 -0.00000000000E+00  0.00000000000E+00  0.12212493430E+04  0.12212493430E+04  0.25500000000E-02 0.  1.
          2   -1    0    0  501    0  0.00000000000E+00 -0.00000000000E+00 -0.29107116744E+04  0.29107116744E+04  0.25500000000E-02 0. -1.
    8880023    1    1    2    0    0  0.17010793022E+03  0.11995468232E+04  0.62582301132E+03  0.15143691547E+04  0.65864270000E+03 0.  1.
    8880022    1    1    2    0    0 -0.17010793022E+03 -0.11995468232E+04 -0.23152853426E+04  0.26175918627E+04  0.15294330000E+03 0.  0.
<mgrwt>
<rscale>  0 0.13377294E+04</rscale>
<asrwt>0</asrwt>
<pdfrwt beam="1">  1        2 0.44780179E+00 0.13790067E+04</pdfrwt>
<pdfrwt beam="2">  1       -2 0.18788452E+00 0.13790067E+04</pdfrwt>
<totfact> 0.30337700E-01</totfact>
</mgrwt>
</event>
<event>
 4    5  0.1112901E-007  0.6995412E+03  0.7818608E-02  0.9999110E-01
          2   -1    0    0  501    0  0.00000000000E+00  0.00000000000E+00  0.52235165875E+03  0.52235165875E+03  0.25500000000E-02 0. -1.
         -2   -1    0    0    0  501 -0.00000000000E+00 -0.00000000000E+00 -0.10753750176E+04  0.10753750176E+04  0.25500000000E-02 0.  1.
    8880023    1    1    2    0    0  0.14197972200E+03  0.18812089763E+03 -0.90723492792E+03  0.11456147408E+04  0.65864270000E+03 0.  1.
    8880022    1    1    2    0    0 -0.14197972200E+03 -0.18812089763E+03  0.35421156909E+03  0.45211193556E+03  0.15294330000E+03 0.  0.
<mgrwt>
<rscale>  0 0.55689291E+03</rscale>
<asrwt>0</asrwt>
<pdfrwt beam="1">  1        2 0.80361794E-01 0.69954122E+03</pdfrwt>
<pdfrwt beam="2">  1       -2 0.16544231E+00 0.69954122E+03</pdfrwt>
<totfact> 0.13719241E+01</totfact>
</mgrwt>
</event>
<event>
 4    5  0.1112901E-007  0.7060257E+03  0.7818608E-02  0.9973066E-01
         -2   -1    0    0    0  501 -0.00000000000E+00  0.00000000000E+00  0.80533589067E+03  0.80533589068E+03  0.25500000000E-02 0.  1.
          2   -1    0    0  501    0  0.00000000000E+00 -0.00000000000E+00 -0.22171684279E+04  0.22171684279E+04  0.25500000000E-02 0. -1.
    8880023    1    1    2    0    0  0.15648308140E+03 -0.20043741158E+03  0.63783052138E+03  0.95147259078E+03  0.65864270000E+03 0.  0.
    8880022    1    1    2    0    0 -0.15648308140E+03  0.20043741158E+03 -0.20496630586E+04  0.20710317278E+04  0.15294330000E+03 0.  0.
<mgrwt>
<rscale>  0 0.56847174E+03</rscale>
<asrwt>0</asrwt>
<pdfrwt beam="1">  1        2 0.34110283E+00 0.70602572E+03</pdfrwt>
<pdfrwt beam="2">  1       -2 0.12389783E+00 0.70602572E+03</pdfrwt>
<totfact> 0.26026967E+00</totfact>
</mgrwt>
</event>
<event>
 4    5  0.1112901E-007  0.1354316E+04  0.7818608E-02  0.9020018E-01
          2   -1    0    0  501    0  0.00000000000E+00  0.00000000000E+00  0.14399402014E+04  0.14399402014E+04  0.25500000000E-02 0. -1.
         -2   -1    0    0    0  501 -0.00000000000E+00 -0.00000000000E+00 -0.14053527997E+04  0.14053527997E+04  0.25500000000E-02 0.  1.
    8880023    1    1    2    0    0 -0.11516801571E+04  0.27202085339E+03 -0.61422334256E+03  0.14870921457E+04  0.65864270000E+03 0.  0.
    8880022    1    1    2    0    0  0.11516801571E+04 -0.27202085339E+03  0.64881074421E+03  0.13582008554E+04  0.15294330000E+03 0.  0.
<mgrwt>
<rscale>  0 0.13121076E+04</rscale>
<asrwt>0</asrwt>
<pdfrwt beam="1">  1        2 0.22152926E+00 0.13543163E+04</pdfrwt>
<pdfrwt beam="2">  1       -2 0.21620812E+00 0.13543163E+04</pdfrwt>
<totfact> 0.13697062E+00</totfact>
</mgrwt>
</event>
<event>
 4    5  0.1112901E-007  0.1533939E+04  0.7818608E-02  0.8886035E-01
          2   -1    0    0  501    0  0.00000000000E+00  0.00000000000E+00  0.21904508318E+04  0.21904508318E+04  0.25500000000E-02 0. -1.
         -2   -1    0    0    0  501 -0.00000000000E+00 -0.00000000000E+00 -0.15486853088E+04  0.15486853088E+04  0.25500000000E-02 0.  1.
    8880023    1    1    2    0    0 -0.13679579036E+04 -0.21874835148E+03 -0.80322463357E+03  0.17315136978E+04  0.65864270000E+03 0.  0.
    8880022    1    1    2    0    0  0.13679579036E+04  0.21874835148E+03  0.14449901566E+04  0.20076224428E+04  0.15294330000E+03 0.  0.
<mgrwt>
<rscale>  0 0.14976237E+04</rscale>
<asrwt>0</asrwt>
<pdfrwt beam="1">  1        2 0.33699244E+00 0.15339393E+04</pdfrwt>
<pdfrwt beam="2">  1       -2 0.23825928E+00 0.15339393E+04</pdfrwt>
<totfact> 0.37079615E-01</totfact>
</mgrwt>
</event>
<event>
 4    5  0.1112901E-007  0.9754521E+03  0.7818608E-02  0.9414403E-01
         -2   -1    0    0    0  501 -0.00000000000E+00  0.00000000000E+00  0.78321582624E+03  0.78321582624E+03  0.25500000000E-02 0.  1.
          2   -1    0    0  501    0  0.00000000000E+00 -0.00000000000E+00 -0.16084216954E+04  0.16084216954E+04  0.25500000000E-02 0. -1.
    8880023    1    1    2    0    0 -0.63827642189E+03  0.33211419060E+03  0.32341222910E+03  0.10276683816E+04  0.65864270000E+03 0.  0.
    8880022    1    1    2    0    0  0.63827642189E+03 -0.33211419060E+03 -0.11486180983E+04  0.13639691401E+04  0.15294330000E+03 0.  0.
<mgrwt>
<rscale>  0 0.90899811E+03</rscale>
<asrwt>0</asrwt>
<pdfrwt beam="1">  1        2 0.24744949E+00 0.97545212E+03</pdfrwt>
<pdfrwt beam="2">  1       -2 0.12049474E+00 0.97545212E+03</pdfrwt>
<totfact> 0.57838877E+00</totfact>
</mgrwt>
</event>
<event>
 4    5  0.1112901E-007  0.1489262E+04  0.7818608E-02  0.8917256E-01
          2   -1    0    0  501    0  0.00000000000E+00  0.00000000000E+00  0.28948680768E+04  0.28948680768E+04  0.25500000000E-02 0. -1.
         -2   -1    0    0    0  501 -0.00000000000E+00 -0.00000000000E+00 -0.83842551493E+03  0.83842551493E+03  0.25500000000E-02 0.  1.
    8880023    1    1    2    0    0 -0.12191824681E+04 -0.54560458051E+03  0.29632148587E+03  0.15184554251E+04  0.65864270000E+03 0.  0.
    8880022    1    1    2    0    0  0.12191824681E+04  0.54560458051E+03  0.17601210760E+04  0.22148381665E+04  0.15294330000E+03 0.  0.
<mgrwt>
<rscale>  0 0.14516520E+04</rscale>
<asrwt>0</asrwt>
<pdfrwt beam="1">  1        2 0.44536432E+00 0.14892617E+04</pdfrwt>
<pdfrwt beam="2">  1       -2 0.12898854E+00 0.14892617E+04</pdfrwt>
<totfact> 0.85285083E-01</totfact>
</mgrwt>
</event>
<event>
 4    5  0.1112901E-007  0.7784001E+03  0.7818608E-02  0.9759609E-01
          2   -1    0    0  501    0  0.00000000000E+00  0.00000000000E+00  0.96511085009E+03  0.96511085010E+03  0.25500000000E-02 0. -1.
         -2   -1    0    0    0  501 -0.00000000000E+00 -0.00000000000E+00 -0.47335298438E+03  0.47335298438E+03  0.25500000000E-02 0.  1.
    8880023    1    1    2    0    0  0.38978252860E+03  0.14200755314E+03  0.16624409842E+01  0.77840191079E+03  0.65864270000E+03 0.  0.
    8880022    1    1    2    0    0 -0.38978252860E+03 -0.14200755314E+03  0.49009542473E+03  0.66006192369E+03  0.15294330000E+03 0.  0.
<mgrwt>
<rscale>  0 0.67575964E+03</rscale>
<asrwt>0</asrwt>
<pdfrwt beam="1">  1        2 0.14847859E+00 0.77840014E+03</pdfrwt>
<pdfrwt beam="2">  1       -2 0.72823537E-01 0.77840014E+03</pdfrwt>
<totfact> 0.45804925E+01</totfact>
</mgrwt>
</event>
<event>
 4    5  0.1112901E-007  0.6592611E+03  0.7818608E-02  0.1024927E+00
         -2   -1    0    0    0  501 -0.00000000000E+00  0.00000000000E+00  0.25119939835E+04  0.25119939835E+04  0.25500000000E-02 0.  1.
          2   -1    0    0  501    0  0.00000000000E+00 -0.00000000000E+00 -0.79484259939E+02  0.79484259980E+02  0.25500000000E-02 0. -1.
    8880023    1    1    2    0    0 -0.28276802496E+02  0.39281239090E+01  0.22808107455E+04  0.23741783570E+04  0.65864270000E+03 0.  1.
    8880022    1    1    2    0    0  0.28276802496E+02 -0.39281239090E+01  0.15169897810E+03  0.21729988653E+03  0.15294330000E+03 0.  0.
<mgrwt>
<rscale>  0 0.45949941E+03</rscale>
<asrwt>0</asrwt>
<pdfrwt beam="1">  1        2 0.12228348E-01 0.65926111E+03</pdfrwt>
<pdfrwt beam="2">  1       -2 0.38646061E+00 0.65926111E+03</pdfrwt>
<totfact> 0.50353440E+00</totfact>
</mgrwt>
</event>
<event>
 4    5  0.1112901E-007  0.7356886E+03  0.7818608E-02  0.9872689E-01
          2   -1    0    0  501    0  0.00000000000E+00  0.00000000000E+00  0.27896939245E+04  0.27896939245E+04  0.25500000000E-02 0. -1.
         -2   -1    0    0    0  501 -0.00000000000E+00 -0.00000000000E+00 -0.22052925576E+03  0.22052925578E+03  0.25500000000E-02 0.  1.
    8880023    1    1    2    0    0  0.24841530166E+03 -0.21381613654E+03  0.45430190807E+03  0.86465480527E+03  0.65864270000E+03 0.  0.
    8880022    1    1    2    0    0 -0.24841530166E+03  0.21381613654E+03  0.21148627606E+04  0.21455683750E+04  0.15294330000E+03 0.  0.
<mgrwt>
<rscale>  0 0.61603365E+03</rscale>
<asrwt>0</asrwt>
<pdfrwt beam="1">  1        2 0.42918371E+00 0.73568859E+03</pdfrwt>
<pdfrwt beam="2">  1       -2 0.33927575E-01 0.73568859E+03</pdfrwt>
<totfact> 0.20131578E+01</totfact>
</mgrwt>
</event>
<event>
 4    5  0.1112901E-007  0.6961795E+03  0.7818608E-02  0.1001343E+00
         -2   -1    0    0    0  501 -0.00000000000E+00  0.00000000000E+00  0.43851694822E+03  0.43851694823E+03  0.25500000000E-02 0.  1.
          2   -1    0    0  501    0  0.00000000000E+00 -0.00000000000E+00 -0.12957075975E+04  0.12957075975E+04  0.25500000000E-02 0. -1.
    8880023    1    1    2    0    0 -0.98587656196E+02 -0.20282040826E+03  0.13165892676E+03  0.70851952917E+03  0.65864270000E+03 0.  1.
    8880022    1    1    2    0    0  0.98587656196E+02  0.20282040826E+03 -0.98884957604E+03  0.10257050166E+04  0.15294330000E+03 0.  0.
<mgrwt>
<rscale>  0 0.55065044E+03</rscale>
<asrwt>0</asrwt>
<pdfrwt beam="1">  1        2 0.19933963E+00 0.69617947E+03</pdfrwt>
<pdfrwt beam="2">  1       -2 0.67464147E-01 0.69617947E+03</pdfrwt>
<totfact> 0.34359934E+01</totfact>
</mgrwt>
</event>
<event>
 4    5  0.1112901E-007  0.8373518E+03  0.7818608E-02  0.9635194E-01
          2   -1    0    0  501    0  0.00000000000E+00  0.00000000000E+00  0.15226731629E+04  0.15226731629E+04  0.25500000000E-02 0. -1.
         -2   -1    0    0    0  501 -0.00000000000E+00 -0.00000000000E+00 -0.44547893297E+03  0.44547893298E+03  0.25500000000E-02 0.  1.
    8880023    1    1    2    0    0  0.62505770227E+02 -0.51326496397E+03  0.88541669029E+02  0.84202002825E+03  0.65864270000E+03 0.  1.
    8880022    1    1    2    0    0 -0.62505770227E+02  0.51326496397E+03  0.98865256087E+03  0.11261320676E+04  0.15294330000E+03 0.  0.
<mgrwt>
<rscale>  0 0.75009971E+03</rscale>
<asrwt>0</asrwt>
<pdfrwt beam="1">  1        2 0.23425741E+00 0.83735184E+03</pdfrwt>
<pdfrwt beam="2">  1       -2 0.68535221E-01 0.83735184E+03</pdfrwt>
<totfact> 0.24330180E+01</totfact>
</mgrwt>
</event>
<event>
 4    5  0.1112901E-007  0.7831056E+03  0.7818608E-02  0.9748592E-01
          2   -1    0    0  501    0  0.00000000000E+00  0.00000000000E+00  0.44011487183E+03  0.44011487183E+03  0.25500000000E-02 0. -1.
         -2   -1    0    0    0  501 -0.00000000000E+00 -0.00000000000E+00 -0.21506382580E+04  0.21506382580E+04  0.25500000000E-02 0.  1.
    8880023    1    1    2    0    0  0.39112010816E+03 -0.16269383660E+03 -0.19350584036E+04  0.20875117856E+04  0.65864270000E+03 0.  1.
    8880022    1    1    2    0    0 -0.39112010816E+03  0.16269383660E+03  0.22453501742E+03  0.50324134423E+03  0.15294330000E+03 0.  0.
<mgrwt>
<rscale>  0 0.68195914E+03</rscale>
<asrwt>0</asrwt>
<pdfrwt beam="1">  1        2 0.67709982E-01 0.78310563E+03</pdfrwt>
<pdfrwt beam="2">  1       -2 0.33086742E+00 0.78310563E+03</pdfrwt>
<totfact> 0.15260341E+00</totfact>
</mgrwt>
</event>
<event>
 4    5  0.1112901E-007  0.6959823E+03  0.7818608E-02  0.1001429E+00
         -2   -1    0    0    0  501 -0.00000000000E+00  0.00000000000E+00  0.52595982753E+03  0.52595982754E+03  0.25500000000E-02 0.  1.
          2   -1    0    0  501    0  0.00000000000E+00 -0.00000000000E+00 -0.81114471593E+03  0.81114471593E+03  0.25500000000E-02 0. -1.
    8880023    1    1    2    0    0  0.18500961045E+03  0.12787713615E+03  0.24776345216E+03  0.73876792865E+03  0.65864270000E+03 0.  0.
    8880022    1    1    2    0    0 -0.18500961045E+03 -0.12787713615E+03 -0.53294834056E+03  0.59833661482E+03  0.15294330000E+03 0.  0.
<mgrwt>
<rscale>  0 0.55027859E+03</rscale>
<asrwt>0</asrwt>
<pdfrwt beam="1">  1        2 0.12479150E+00 0.69598227E+03</pdfrwt>
<pdfrwt beam="2">  1       -2 0.80916896E-01 0.69598227E+03</pdfrwt>
<totfact> 0.46397543E+01</totfact>
</mgrwt>
</event>
<event>
 4    5  0.1431416E-007  0.9960771E+03  0.7818608E-02  0.9386708E-01
          2   -1    0    0  501    0  0.00000000000E+00  0.00000000000E+00  0.22776455110E+04  0.22776455110E+04  0.25500000000E-02 0. -1.
         -2   -1    0    0    0  501 -0.00000000000E+00 -0.00000000000E+00 -0.17315430469E+04  0.17315430469E+04  0.25500000000E-02 0.  1.
    8880023    1    1    2    0    0 -0.72580561769E+03  0.17766729573E+03 -0.15140802995E+04  0.18123489791E+04  0.65864270000E+03 0.  0.
    8880022    1    1    2    0    0  0.72580561769E+03 -0.17766729573E+03  0.20601827636E+04  0.21968395788E+04  0.15294330000E+03 0.  0.
<mgrwt>
<rscale>  0 0.93177678E+03</rscale>
<asrwt>0</asrwt>
<pdfrwt beam="1">  1        2 0.35040700E+00 0.99607714E+03</pdfrwt>
<pdfrwt beam="2">  1       -2 0.26639124E+00 0.99607714E+03</pdfrwt>
<totfact> 0.24048596E-01</totfact>
</mgrwt>
</event>
<event>
 4    5  0.1112901E-007  0.7611295E+03  0.7818608E-02  0.9802192E-01
          2   -1    0    0  501    0  0.00000000000E+00  0.00000000000E+00  0.15844785376E+04  0.15844785376E+04  0.25500000000E-02 0. -1.
         -2   -1    0    0    0  501 -0.00000000000E+00 -0.00000000000E+00 -0.10268426457E+04  0.10268426457E+04  0.25500000000E-02 0.  1.
    8880023    1    1    2    0    0  0.26641907103E+03 -0.27299966103E+03 -0.85231352007E+03  0.11426970198E+04  0.65864270000E+03 0.  1.
    8880022    1    1    2    0    0 -0.26641907103E+03  0.27299966103E+03  0.14099494120E+04  0.14686241636E+04  0.15294330000E+03 0.  0.
<mgrwt>
<rscale>  0 0.65245039E+03</rscale>
<asrwt>0</asrwt>
<pdfrwt beam="1">  1        2 0.24376593E+00 0.76112952E+03</pdfrwt>
<pdfrwt beam="2">  1       -2 0.15797579E+00 0.76112952E+03</pdfrwt>
<totfact> 0.30471896E+00</totfact>
</mgrwt>
</event>
<event>
 4    5  0.1112901E-007  0.1151665E+04  0.7818608E-02  0.9205602E-01
          2   -1    0    0  501    0  0.00000000000E+00  0.00000000000E+00  0.16456915399E+04  0.16456915399E+04  0.25500000000E-02 0. -1.
         -2   -1    0    0    0  501 -0.00000000000E+00 -0.00000000000E+00 -0.77045658156E+03  0.77045658157E+03  0.25500000000E-02 0.  1.
    8880023    1    1    2    0    0  0.10250690041E+03  0.93915671855E+03  0.50489201264E+02  0.11527716046E+04  0.65864270000E+03 0.  0.
    8880022    1    1    2    0    0 -0.10250690041E+03 -0.93915671855E+03  0.82474575710E+03  0.12633765169E+04  0.15294330000E+03 0.  0.
<mgrwt>
<rscale>  0 0.10995795E+04</rscale>
<asrwt>0</asrwt>
<pdfrwt beam="1">  1        2 0.25318331E+00 0.11516654E+04</pdfrwt>
<pdfrwt beam="2">  1       -2 0.11853178E+00 0.11516654E+04</pdfrwt>
<totfact> 0.56398572E+00</totfact>
</mgrwt>
</event>
<event>
 4    5  0.1112901E-007  0.1275458E+04  0.7818608E-02  0.9087048E-01
         -2   -1    0    0    0  501 -0.00000000000E+00  0.00000000000E+00  0.16463347803E+04  0.16463347803E+04  0.25500000000E-02 0.  1.
          2   -1    0    0  501    0  0.00000000000E+00 -0.00000000000E+00 -0.18676722319E+04  0.18676722319E+04  0.25500000000E-02 0. -1.
    8880023    1    1    2    0    0  0.41378162332E+03  0.10108252949E+04  0.11753097716E+04  0.17344008401E+04  0.65864270000E+03 0.  1.
    8880022    1    1    2    0    0 -0.41378162332E+03 -0.10108252949E+04 -0.13966472232E+04  0.17796061721E+04  0.15294330000E+03 0.  0.
<mgrwt>
<rscale>  0 0.12299375E+04</rscale>
<asrwt>0</asrwt>
<pdfrwt beam="1">  1        2 0.28733419E+00 0.12754580E+04</pdfrwt>
<pdfrwt beam="2">  1       -2 0.25328227E+00 0.12754580E+04</pdfrwt>
<totfact> 0.46742845E-01</totfact>
</mgrwt>
</event>
<event>
 4    5  0.1112901E-007  0.7363377E+03  0.7818608E-02  0.9870746E-01
          2   -1    0    0  501    0  0.00000000000E+00  0.00000000000E+00  0.14313076652E+04  0.14313076652E+04  0.25500000000E-02 0. -1.
         -2   -1    0    0    0  501 -0.00000000000E+00 -0.00000000000E+00 -0.72664803959E+03  0.72664803960E+03  0.25500000000E-02 0.  1.
    8880023    1    1    2    0    0 -0.21827192469E+03  0.24645563283E+03 -0.50639872459E+03  0.89366262459E+03  0.65864270000E+03 0.  1.
    8880022    1    1    2    0    0  0.21827192469E+03 -0.24645563283E+03  0.12110583502E+04  0.12642930802E+04  0.15294330000E+03 0.  0.
<mgrwt>
<rscale>  0 0.61700228E+03</rscale>
<asrwt>0</asrwt>
<pdfrwt beam="1">  1        2 0.22020118E+00 0.73633771E+03</pdfrwt>
<pdfrwt beam="2">  1       -2 0.11179201E+00 0.73633771E+03</pdfrwt>
<totfact> 0.89961796E+00</totfact>
</mgrwt>
</event>
<event>
 4    5  0.1112901E-007  0.1260946E+04  0.7818608E-02  0.9100041E-01
          2   -1    0    0  501    0  0.00000000000E+00  0.00000000000E+00  0.23918574149E+04  0.23918574149E+04  0.25500000000E-02 0. -1.
         -2   -1    0    0    0  501 -0.00000000000E+00 -0.00000000000E+00 -0.74585556645E+03  0.74585556646E+03  0.25500000000E-02 0.  1.
    8880023    1    1    2    0    0 -0.73421816051E+03  0.78555645228E+03  0.12273047159E+03  0.12669049774E+04  0.65864270000E+03 0.  0.
    8880022    1    1    2    0    0  0.73421816051E+03 -0.78555645228E+03  0.15232713768E+04  0.18708080039E+04  0.15294330000E+03 0.  0.
<mgrwt>
<rscale>  0 0.12147524E+04</rscale>
<asrwt>0</asrwt>
<pdfrwt beam="1">  1        2 0.36797806E+00 0.12609463E+04</pdfrwt>
<pdfrwt beam="2">  1       -2 0.11474701E+00 0.12609463E+04</pdfrwt>
<totfact> 0.23189431E+00</totfact>
</mgrwt>
</event>
<event>
 4    5  0.1112901E-007  0.7058689E+03  0.7818608E-02  0.9973674E-01
         -2   -1    0    0    0  501 -0.00000000000E+00  0.00000000000E+00  0.20083612145E+03  0.20083612147E+03  0.25500000000E-02 0.  1.
          2   -1    0    0  501    0  0.00000000000E+00 -0.00000000000E+00 -0.12647468530E+04  0.12647468530E+04  0.25500000000E-02 0. -1.
    8880023    1    1    2    0    0  0.96199149261E+02 -0.23491796470E+03 -0.67543134136E+03  0.97696388347E+03  0.65864270000E+03 0.  0.
    8880022    1    1    2    0    0 -0.96199149261E+02  0.23491796470E+03 -0.38847939015E+03  0.48861909095E+03  0.15294330000E+03 0.  0.
<mgrwt>
<rscale>  0 0.56819823E+03</rscale>
<asrwt>0</asrwt>
<pdfrwt beam="1">  1        2 0.19457643E+00 0.70586892E+03</pdfrwt>
<pdfrwt beam="2">  1       -2 0.30897866E-01 0.70586892E+03</pdfrwt>
<totfact> 0.17089998E+02</totfact>
</mgrwt>
</event>
<event>
 4    5  0.1112901E-007  0.1640023E+04  0.7818608E-02  0.8816608E-01
          2   -1    0    0  501    0  0.00000000000E+00  0.00000000000E+00  0.38605957239E+04  0.38605957239E+04  0.25500000000E-02 0. -1.
         -2   -1    0    0    0  501 -0.00000000000E+00 -0.00000000000E+00 -0.74875902562E+03  0.74875902562E+03  0.25500000000E-02 0.  1.
    8880023    1    1    2    0    0  0.14871606990E+04 -0.21028140767E+03  0.74335592978E+03  0.18006258522E+04  0.65864270000E+03 0.  0.
    8880022    1    1    2    0    0 -0.14871606990E+04  0.21028140767E+03  0.23684807685E+04  0.28087288974E+04  0.15294330000E+03 0.  0.
<mgrwt>
<rscale>  0 0.16064293E+04</rscale>
<asrwt>0</asrwt>
<pdfrwt beam="1">  1        2 0.59393780E+00 0.16400230E+04</pdfrwt>
<pdfrwt beam="2">  1       -2 0.11519370E+00 0.16400230E+04</pdfrwt>
<totfact> 0.24563065E-01</totfact>
</mgrwt>
</event>
<event>
 4    5  0.1112901E-007  0.1149552E+04  0.7818608E-02  0.9207793E-01
          2   -1    0    0  501    0  0.00000000000E+00  0.00000000000E+00  0.11091775519E+04  0.11091775519E+04  0.25500000000E-02 0. -1.
         -2   -1    0    0    0  501 -0.00000000000E+00 -0.00000000000E+00 -0.18400870930E+04  0.18400870930E+04  0.25500000000E-02 0.  1.
    8880023    1    1    2    0    0  0.62826114662E+03 -0.70210283219E+03 -0.13791808042E+04  0.17954415480E+04  0.65864270000E+03 0.  0.
    8880022    1    1    2    0    0 -0.62826114662E+03  0.70210283219E+03  0.64827126310E+03  0.11538230969E+04  0.15294330000E+03 0.  0.
<mgrwt>
<rscale>  0 0.10973356E+04</rscale>
<asrwt>0</asrwt>
<pdfrwt beam="1">  1        2 0.17064270E+00 0.11495524E+04</pdfrwt>
<pdfrwt beam="2">  1       -2 0.28309032E+00 0.11495524E+04</pdfrwt>
<totfact> 0.85124336E-01</totfact>
</mgrwt>
</event>
<event>
 4    5  0.1112901E-007  0.1318421E+04  0.7818608E-02  0.9049813E-01
         -2   -1    0    0    0  501 -0.00000000000E+00  0.00000000000E+00  0.99576485860E+03  0.99576485860E+03  0.25500000000E-02 0.  1.
          2   -1    0    0  501    0  0.00000000000E+00 -0.00000000000E+00 -0.20110429881E+04  0.20110429881E+04  0.25500000000E-02 0. -1.
    8880023    1    1    2    0    0 -0.98566270640E+03  0.57696803999E+03  0.19837126622E+03  0.13332608355E+04  0.65864270000E+03 0.  0.
    8880022    1    1    2    0    0  0.98566270640E+03 -0.57696803999E+03 -0.12136493958E+04  0.16735470112E+04  0.15294330000E+03 0.  0.
<mgrwt>
<rscale>  0 0.12747726E+04</rscale>
<asrwt>0</asrwt>
<pdfrwt beam="1">  1        2 0.30939123E+00 0.13184208E+04</pdfrwt>
<pdfrwt beam="2">  1       -2 0.15319459E+00 0.13184208E+04</pdfrwt>
<totfact> 0.17927944E+00</totfact>
</mgrwt>
</event>
<event>
 4    5  0.1112901E-007  0.7636578E+03  0.7818608E-02  0.9795728E-01
          2   -1    0    0  501    0  0.00000000000E+00  0.00000000000E+00  0.94853515917E+03  0.94853515917E+03  0.25500000000E-02 0. -1.
         -2   -1    0    0    0  501 -0.00000000000E+00 -0.00000000000E+00 -0.82012466098E+03  0.82012466098E+03  0.25500000000E-02 0.  1.
    8880023    1    1    2    0    0 -0.84930461229E+02  0.37702756711E+03 -0.57205687179E+03  0.95416048987E+03  0.65864270000E+03 0.  1.
    8880022    1    1    2    0    0  0.84930461229E+02 -0.37702756711E+03  0.70046736998E+03  0.81449933028E+03  0.15294330000E+03 0.  0.
<mgrwt>
<rscale>  0 0.65592289E+03</rscale>
<asrwt>0</asrwt>
<pdfrwt beam="1">  1        2 0.14592849E+00 0.76365776E+03</pdfrwt>
<pdfrwt beam="2">  1       -2 0.12617303E+00 0.76365776E+03</pdfrwt>
<totfact> 0.12935043E+01</totfact>
</mgrwt>
</event>
<event>
 4    5  0.1112901E-007  0.7341047E+03  0.7818608E-02  0.9877465E-01
         -2   -1    0    0    0  501 -0.00000000000E+00  0.00000000000E+00  0.10110689550E+04  0.10110689550E+04  0.25500000000E-02 0.  1.
          2   -1    0    0  501    0  0.00000000000E+00 -0.00000000000E+00 -0.14214170950E+04  0.14214170950E+04  0.25500000000E-02 0. -1.
    8880023    1    1    2    0    0  0.21412969371E+03  0.24340899321E+03  0.84943535270E+03  0.11226976834E+04  0.65864270000E+03 0.  1.
    8880022    1    1    2    0    0 -0.21412969371E+03 -0.24340899321E+03 -0.12597834927E+04  0.13097883666E+04  0.15294330000E+03 0.  0.
<mgrwt>
<rscale>  0 0.61365974E+03</rscale>
<asrwt>0</asrwt>
<pdfrwt beam="1">  1        2 0.21867955E+00 0.73410467E+03</pdfrwt>
<pdfrwt beam="2">  1       -2 0.15554907E+00 0.73410467E+03</pdfrwt>
<totfact> 0.39327225E+00</totfact>
</mgrwt>
</event>
<event>
 4    5  0.1112901E-007  0.1096438E+04  0.7818608E-02  0.9265033E-01
          2   -1    0    0  501    0  0.00000000000E+00  0.00000000000E+00  0.27084032779E+04  0.27084032779E+04  0.25500000000E-02 0. -1.
         -2   -1    0    0    0  501 -0.00000000000E+00 -0.00000000000E+00 -0.50902145877E+03  0.50902145877E+03  0.25500000000E-02 0.  1.
    8880023    1    1    2    0    0  0.83383464040E+03  0.27034286854E+03  0.32666757171E+03  0.11440661619E+04  0.65864270000E+03 0.  1.
    8880022    1    1    2    0    0 -0.83383464040E+03 -0.27034286854E+03  0.18727142474E+04  0.20733585748E+04  0.15294330000E+03 0.  0.
<mgrwt>
<rscale>  0 0.10406675E+04</rscale>
<asrwt>0</asrwt>
<pdfrwt beam="1">  1        2 0.41667742E+00 0.10964377E+04</pdfrwt>
<pdfrwt beam="2">  1       -2 0.78310995E-01 0.10964377E+04</pdfrwt>
<totfact> 0.38131526E+00</totfact>
</mgrwt>
</event>
<event>
 4    5  0.1112901E-007  0.1812320E+04  0.7818608E-02  0.8715752E-01
         -2   -1    0    0    0  501 -0.00000000000E+00  0.00000000000E+00  0.16200241355E+04  0.16200241355E+04  0.25500000000E-02 0.  1.
          2   -1    0    0  501    0  0.00000000000E+00 -0.00000000000E+00 -0.21013570116E+04  0.21013570116E+04  0.25500000000E-02 0. -1.
    8880023    1    1    2    0    0  0.11771494001E+04 -0.12103776030E+04 -0.82552507556E+03  0.19914809837E+04  0.65864270000E+03 0.  0.
    8880022    1    1    2    0    0 -0.11771494001E+04  0.12103776030E+04  0.34419219946E+03  0.17299001633E+04  0.15294330000E+03 0.  0.
<mgrwt>
<rscale>  0 0.17823324E+04</rscale>
<asrwt>0</asrwt>
<pdfrwt beam="1">  1        2 0.32328570E+00 0.18123203E+04</pdfrwt>
<pdfrwt beam="2">  1       -2 0.24923448E+00 0.18123203E+04</pdfrwt>
<totfact> 0.34605491E-01</totfact>
</mgrwt>
</event>
<event>
 4    5  0.1112901E-007  0.1118093E+04  0.7818608E-02  0.9241175E-01
          2   -1    0    0  501    0  0.00000000000E+00  0.00000000000E+00  0.34039398886E+04  0.34039398886E+04  0.25500000000E-02 0. -1.
         -2   -1    0    0    0  501 -0.00000000000E+00 -0.00000000000E+00 -0.51807537294E+03  0.51807537294E+03  0.25500000000E-02 0.  1.
    8880023    1    1    2    0    0  0.43965918591E+03 -0.78931655631E+03  0.26991626901E+03  0.11502112086E+04  0.65864270000E+03 0.  0.
    8880022    1    1    2    0    0 -0.43965918591E+03  0.78931655631E+03  0.26159482467E+04  0.27718040530E+04  0.15294330000E+03 0.  0.
<mgrwt>
<rscale>  0 0.10638359E+04</rscale>
<asrwt>0</asrwt>
<pdfrwt beam="1">  1        2 0.52368306E+00 0.11180926E+04</pdfrwt>
<pdfrwt beam="2">  1       -2 0.79703904E-01 0.11180926E+04</pdfrwt>
<totfact> 0.13381741E+00</totfact>
</mgrwt>
</event>
<event>
 4    5  0.1112901E-007  0.7431491E+03  0.7818608E-02  0.9850867E-01
         -2   -1    0    0    0  501 -0.00000000000E+00  0.00000000000E+00  0.55814564369E+03  0.55814564370E+03  0.25500000000E-02 0.  1.
          2   -1    0    0  501    0  0.00000000000E+00 -0.00000000000E+00 -0.23298525056E+04  0.23298525056E+04  0.25500000000E-02 0. -1.
    8880023    1    1    2    0    0  0.33230629687E+03 -0.89626698391E+02  0.28586873947E+03  0.79623587113E+03  0.65864270000E+03 0.  1.
    8880022    1    1    2    0    0 -0.33230629687E+03  0.89626698391E+02 -0.20575756014E+04  0.20917622782E+04  0.15294330000E+03 0.  0.
<mgrwt>
<rscale>  0 0.62702729E+03</rscale>
<asrwt>0</asrwt>
<pdfrwt beam="1">  1        2 0.35843884E+00 0.74314913E+03</pdfrwt>
<pdfrwt beam="2">  1       -2 0.85868562E-01 0.74314913E+03</pdfrwt>
<totfact> 0.53688799E+00</totfact>
</mgrwt>
</event>
<event>
 4    5  0.1112901E-007  0.7228327E+03  0.7818608E-02  0.9913115E-01
         -2   -1    0    0    0  501 -0.00000000000E+00  0.00000000000E+00  0.97557319713E+03  0.97557319713E+03  0.25500000000E-02 0.  1.
          2   -1    0    0  501    0  0.00000000000E+00 -0.00000000000E+00 -0.48281806999E+03  0.48281807000E+03  0.25500000000E-02 0. -1.
    8880023    1    1    2    0    0 -0.10306020433E+03  0.27938404381E+03  0.74590688692E+03  0.10386838498E+04  0.65864270000E+03 0.  1.
    8880022    1    1    2    0    0  0.10306020433E+03 -0.27938404381E+03 -0.25315175979E+03  0.41970741731E+03  0.15294330000E+03 0.  0.
<mgrwt>
<rscale>  0 0.59629858E+03</rscale>
<asrwt>0</asrwt>
<pdfrwt beam="1">  1        2 0.74279703E-01 0.72283266E+03</pdfrwt>
<pdfrwt beam="2">  1       -2 0.15008818E+00 0.72283266E+03</pdfrwt>
<totfact> 0.19491909E+01</totfact>
</mgrwt>
</event>
<event>
 4    5  0.1112901E-007  0.1237106E+04  0.7818608E-02  0.9121870E-01
         -2   -1    0    0    0  501 -0.00000000000E+00  0.00000000000E+00  0.11701893031E+04  0.11701893031E+04  0.25500000000E-02 0.  1.
          2   -1    0    0  501    0  0.00000000000E+00 -0.00000000000E+00 -0.30196904077E+04  0.30196904077E+04  0.25500000000E-02 0. -1.
    8880023    1    1    2    0    0  0.55503768428E+03 -0.88800544890E+03  0.70566560427E+03  0.14242172094E+04  0.65864270000E+03 0.  1.
    8880022    1    1    2    0    0 -0.55503768428E+03  0.88800544890E+03 -0.25551667089E+04  0.27656625014E+04  0.15294330000E+03 0.  0.
<mgrwt>
<rscale>  0 0.11897562E+04</rscale>
<asrwt>0</asrwt>
<pdfrwt beam="1">  1        2 0.46456775E+00 0.12371058E+04</pdfrwt>
<pdfrwt beam="2">  1       -2 0.18002913E+00 0.12371058E+04</pdfrwt>
<totfact> 0.29997850E-01</totfact>
</mgrwt>
</event>
<event>
 4    5  0.1112901E-007  0.9546669E+03  0.7818608E-02  0.9443431E-01
         -2   -1    0    0    0  501 -0.00000000000E+00  0.00000000000E+00  0.68190882715E+03  0.68190882716E+03  0.25500000000E-02 0.  1.
          2   -1    0    0  501    0  0.00000000000E+00 -0.00000000000E+00 -0.29610671966E+04  0.29610671966E+04  0.25500000000E-02 0. -1.
    8880023    1    1    2    0    0 -0.15521007337E+03 -0.67341551639E+03  0.27425504555E+03  0.99327974955E+03  0.65864270000E+03 0.  1.
    8880022    1    1    2    0    0  0.15521007337E+03  0.67341551639E+03 -0.25534134150E+04  0.26496962742E+04  0.15294330000E+03 0.  0.
<mgrwt>
<rscale>  0 0.88586059E+03</rscale>
<asrwt>0</asrwt>
<pdfrwt beam="1">  1        2 0.45554879E+00 0.95466687E+03</pdfrwt>
<pdfrwt beam="2">  1       -2 0.10490905E+00 0.95466687E+03</pdfrwt>
<totfact> 0.13914966E+00</totfact>
</mgrwt>
</event>
<event>
 4    5  0.1112901E-007  0.7036106E+03  0.7818608E-02  0.9982540E-01
          2   -1    0    0  501    0  0.00000000000E+00  0.00000000000E+00  0.21834192693E+04  0.21834192693E+04  0.25500000000E-02 0. -1.
         -2   -1    0    0    0  501 -0.00000000000E+00 -0.00000000000E+00 -0.71300623885E+03  0.71300623885E+03  0.25500000000E-02 0.  1.
    8880023    1    1    2    0    0 -0.20867683037E+03 -0.13308495326E+03 -0.52627323364E+03  0.87865314375E+03  0.65864270000E+03 0.  0.
    8880022    1    1    2    0    0  0.20867683037E+03  0.13308495326E+03  0.19966862641E+04  0.20177723644E+04  0.15294330000E+03 0. -1.
<mgrwt>
<rscale>  0 0.56422480E+03</rscale>
<asrwt>0</asrwt>
<pdfrwt beam="1">  1        2 0.33591066E+00 0.70361057E+03</pdfrwt>
<pdfrwt beam="2">  1       -2 0.10969327E+00 0.70361057E+03</pdfrwt>
<totfact> 0.36643612E+00</totfact>
</mgrwt>
</event>
<event>
 4    5  0.1112901E-007  0.1457366E+04  0.7818608E-02  0.8940343E-01
         -2   -1    0    0    0  501 -0.00000000000E+00  0.00000000000E+00  0.14934430678E+04  0.14934430678E+04  0.25500000000E-02 0.  1.
          2   -1    0    0  501    0  0.00000000000E+00 -0.00000000000E+00 -0.17606245052E+04  0.17606245052E+04  0.25500000000E-02 0. -1.
    8880023    1    1    2    0    0 -0.25562236084E+03 -0.12746616722E+04  0.70945392801E+03  0.16208763840E+04  0.65864270000E+03 0.  0.
    8880022    1    1    2    0    0  0.25562236084E+03  0.12746616722E+04 -0.97663536539E+03  0.16331911890E+04  0.15294330000E+03 0.  0.
<mgrwt>
<rscale>  0 0.14187696E+04</rscale>
<asrwt>0</asrwt>
<pdfrwt beam="1">  1        2 0.27086531E+00 0.14573659E+04</pdfrwt>
<pdfrwt beam="2">  1       -2 0.22976047E+00 0.14573659E+04</pdfrwt>
<totfact> 0.73415050E-01</totfact>
</mgrwt>
</event>
<event>
 4    5  0.1112901E-007  0.7788335E+03  0.7818608E-02  0.9758584E-01
         -2   -1    0    0    0  501 -0.00000000000E+00  0.00000000000E+00  0.10550162561E+04  0.10550162561E+04  0.25500000000E-02 0.  1.
          2   -1    0    0  501    0  0.00000000000E+00 -0.00000000000E+00 -0.20009001038E+04  0.20009001038E+04  0.25500000000E-02 0. -1.
    8880023    1    1    2    0    0  0.19170559436E+03  0.36880933103E+03  0.88112225462E+03  0.11759923433E+04  0.65864270000E+03 0.  1.
    8880022    1    1    2    0    0 -0.19170559436E+03 -0.36880933103E+03 -0.18270061023E+04  0.18799240167E+04  0.15294330000E+03 0.  0.
<mgrwt>
<rscale>  0 0.67633302E+03</rscale>
<asrwt>0</asrwt>
<pdfrwt beam="1">  1        2 0.30783078E+00 0.77883346E+03</pdfrwt>
<pdfrwt beam="2">  1       -2 0.16231019E+00 0.77883346E+03</pdfrwt>
<totfact> 0.16705626E+00</totfact>
</mgrwt>
</event>
<event>
 4    5  0.1112901E-007  0.8340447E+03  0.7818608E-02  0.9641513E-01
         -2   -1    0    0    0  501 -0.00000000000E+00  0.00000000000E+00  0.47462797244E+03  0.47462797245E+03  0.25500000000E-02 0.  1.
          2   -1    0    0  501    0  0.00000000000E+00 -0.00000000000E+00 -0.25661693526E+04  0.25661693526E+04  0.25500000000E-02 0. -1.
    8880023    1    1    2    0    0  0.42561042475E+03 -0.28403543916E+03  0.48180604156E+02  0.83543518075E+03  0.65864270000E+03 0.  1.
    8880022    1    1    2    0    0 -0.42561042475E+03  0.28403543916E+03 -0.21397219843E+04  0.22053621443E+04  0.15294330000E+03 0.  0.
<mgrwt>
<rscale>  0 0.74608443E+03</rscale>
<asrwt>0</asrwt>
<pdfrwt beam="1">  1        2 0.39479528E+00 0.83404471E+03</pdfrwt>
<pdfrwt beam="2">  1       -2 0.73019690E-01 0.83404471E+03</pdfrwt>
<totfact> 0.55956492E+00</totfact>
</mgrwt>
</event>
<event>
 4    5  0.1112901E-007  0.9506516E+03  0.7818608E-02  0.9449177E-01
          2   -1    0    0  501    0  0.00000000000E+00  0.00000000000E+00  0.68409542744E+03  0.68409542744E+03  0.25500000000E-02 0. -1.
         -2   -1    0    0    0  501 -0.00000000000E+00 -0.00000000000E+00 -0.13505044878E+04  0.13505044878E+04  0.25500000000E-02 0.  1.
    8880023    1    1    2    0    0  0.68543599215E+03 -0.10281627710E+02  0.14475596837E+03  0.96160943623E+03  0.65864270000E+03 0. -1.
    8880022    1    1    2    0    0 -0.68543599215E+03  0.10281627710E+02 -0.81116502873E+03  0.10729904790E+04  0.15294330000E+03 0.  0.
<mgrwt>
<rscale>  0 0.88136765E+03</rscale>
<asrwt>0</asrwt>
<pdfrwt beam="1">  1        2 0.10524545E+00 0.95065158E+03</pdfrwt>
<pdfrwt beam="2">  1       -2 0.20776992E+00 0.95065158E+03</pdfrwt>
<totfact> 0.49876170E+00</totfact>
</mgrwt>
</event>
<event>
 4    5  0.1112901E-007  0.1344486E+04  0.7818608E-02  0.9028065E-01
          2   -1    0    0  501    0  0.00000000000E+00  0.00000000000E+00  0.10773464534E+04  0.10773464534E+04  0.25500000000E-02 0. -1.
         -2   -1    0    0    0  501 -0.00000000000E+00 -0.00000000000E+00 -0.16719292412E+04  0.16719292412E+04  0.25500000000E-02 0.  1.
    8880023    1    1    2    0    0  0.33460290937E+03 -0.11233316640E+04 -0.77758295667E+03  0.15531511823E+04  0.65864270000E+03 0.  0.
    8880022    1    1    2    0    0 -0.33460290937E+03  0.11233316640E+04  0.18300016879E+03  0.11961245123E+04  0.15294330000E+03 0.  0.
<mgrwt>
<rscale>  0 0.13018938E+04</rscale>
<asrwt>0</asrwt>
<pdfrwt beam="1">  1        2 0.16574561E+00 0.13444863E+04</pdfrwt>
<pdfrwt beam="2">  1       -2 0.25721988E+00 0.13444863E+04</pdfrwt>
<totfact> 0.12530023E+00</totfact>
</mgrwt>
</event>
<event>
 4    5  0.1112901E-007  0.1018822E+04  0.7818608E-02  0.9357337E-01
         -2   -1    0    0    0  501 -0.00000000000E+00  0.00000000000E+00  0.19026316540E+04  0.19026316540E+04  0.25500000000E-02 0.  1.
          2   -1    0    0  501    0  0.00000000000E+00 -0.00000000000E+00 -0.72651309278E+03  0.72651309279E+03  0.25500000000E-02 0. -1.
    8880023    1    1    2    0    0  0.52643989978E+03  0.57188169778E+03  0.14662699332E+04  0.17854818307E+04  0.65864270000E+03 0.  0.
    8880022    1    1    2    0    0 -0.52643989978E+03 -0.57188169778E+03 -0.29015137200E+03  0.84366291612E+03  0.15294330000E+03 0.  0.
<mgrwt>
<rscale>  0 0.95671426E+03</rscale>
<asrwt>0</asrwt>
<pdfrwt beam="1">  1        2 0.11177125E+00 0.10188218E+04</pdfrwt>
<pdfrwt beam="2">  1       -2 0.29271256E+00 0.10188218E+04</pdfrwt>
<totfact> 0.13782533E+00</totfact>
</mgrwt>
</event>
<event>
 4    5  0.1112901E-007  0.8638605E+03  0.7818608E-02  0.9586733E-01
         -2   -1    0    0    0  501 -0.00000000000E+00  0.00000000000E+00  0.82821674308E+03  0.82821674309E+03  0.25500000000E-02 0.  1.
          2   -1    0    0  501    0  0.00000000000E+00 -0.00000000000E+00 -0.18347037170E+04  0.18347037170E+04  0.25500000000E-02 0. -1.
    8880023    1    1    2    0    0  0.55894624021E+03 -0.48847909991E+01  0.53499283437E+03  0.10161064411E+04  0.65864270000E+03 0.  0.
    8880022    1    1    2    0    0 -0.55894624021E+03  0.48847909991E+01 -0.15414798083E+04  0.16468140189E+04  0.15294330000E+03 0.  0.
<mgrwt>
<rscale>  0 0.78180544E+03</rscale>
<asrwt>0</asrwt>
<pdfrwt beam="1">  1        2 0.28226211E+00 0.86386050E+03</pdfrwt>
<pdfrwt beam="2">  1       -2 0.12741796E+00 0.86386050E+03</pdfrwt>
<totfact> 0.38267423E+00</totfact>
</mgrwt>
</event>
<event>
 4    5  0.1112901E-007  0.8871304E+03  0.7818608E-02  0.9547016E-01
          2   -1    0    0  501    0  0.00000000000E+00  0.00000000000E+00  0.18316942923E+04  0.18316942923E+04  0.25500000000E-02 0. -1.
         -2   -1    0    0    0  501 -0.00000000000E+00 -0.00000000000E+00 -0.33511262475E+03  0.33511262476E+03  0.25500000000E-02 0.  1.
    8880023    1    1    2    0    0  0.58249168961E+03  0.11787066172E+03  0.56669641574E+03  0.10526847084E+04  0.65864270000E+03 0.  1.
    8880022    1    1    2    0    0 -0.58249168961E+03 -0.11787066172E+03  0.92988525183E+03  0.11141222087E+04  0.15294330000E+03 0.  0.
<mgrwt>
<rscale>  0 0.80904557E+03</rscale>
<asrwt>0</asrwt>
<pdfrwt beam="1">  1        2 0.28179912E+00 0.88713036E+03</pdfrwt>
<pdfrwt beam="2">  1       -2 0.51555789E-01 0.88713036E+03</pdfrwt>
<totfact> 0.29835744E+01</totfact>
</mgrwt>
</event>
<event>
 4    5  0.1112901E-007  0.7007197E+03  0.7818608E-02  0.9994229E-01
         -2   -1    0    0    0  501 -0.00000000000E+00  0.00000000000E+00  0.26828428828E+03  0.26828428830E+03  0.25500000000E-02 0.  1.
          2   -1    0    0  501    0  0.00000000000E+00 -0.00000000000E+00 -0.15721142020E+04  0.15721142020E+04  0.25500000000E-02 0. -1.
    8880023    1    1    2    0    0 -0.23532385420E+03  0.42667653599E+02 -0.24208784942E+03  0.74135995179E+03  0.65864270000E+03 0.  1.
    8880022    1    1    2    0    0  0.23532385420E+03 -0.42667653599E+02 -0.10617420643E+04  0.10990385385E+04  0.15294330000E+03 0.  0.
<mgrwt>
<rscale>  0 0.55904020E+03</rscale>
<asrwt>0</asrwt>
<pdfrwt beam="1">  1        2 0.24186372E+00 0.70071967E+03</pdfrwt>
<pdfrwt beam="2">  1       -2 0.41274507E-01 0.70071967E+03</pdfrwt>
<totfact> 0.66005357E+01</totfact>
</mgrwt>
</event>
<event>
 4    5  0.1112901E-007  0.8502943E+03  0.7818608E-02  0.9611067E-01
         -2   -1    0    0    0  501 -0.00000000000E+00  0.00000000000E+00  0.42970509624E+03  0.42970509625E+03  0.25500000000E-02 0.  1.
          2   -1    0    0  501    0  0.00000000000E+00 -0.00000000000E+00 -0.16505636646E+04  0.16505636646E+04  0.25500000000E-02 0. -1.
    8880023    1    1    2    0    0  0.50070846683E+03  0.19616647019E+03 -0.12597152029E+04  0.15198298758E+04  0.65864270000E+03 0. -1.
    8880022    1    1    2    0    0 -0.50070846683E+03 -0.19616647019E+03  0.38856634539E+02  0.56043888503E+03  0.15294330000E+03 0.  0.
<mgrwt>
<rscale>  0 0.76568025E+03</rscale>
<asrwt>0</asrwt>
<pdfrwt beam="1">  1        2 0.25393287E+00 0.85029434E+03</pdfrwt>
<pdfrwt beam="2">  1       -2 0.66108477E-01 0.85029434E+03</pdfrwt>
<totfact> 0.22315768E+01</totfact>
</mgrwt>
</event>
<event>
 4    5  0.1112901E-007  0.1280070E+04  0.7818608E-02  0.9082965E-01
         -2   -1    0    0    0  501 -0.00000000000E+00  0.00000000000E+00  0.10457066817E+04  0.10457066817E+04  0.25500000000E-02 0.  1.
          2   -1    0    0  501    0  0.00000000000E+00 -0.00000000000E+00 -0.23822840570E+04  0.23822840571E+04  0.25500000000E-02 0. -1.
    8880023    1    1    2    0    0  0.95460261712E+03  0.54175811160E+03  0.42330407443E+03  0.13482449903E+04  0.65864270000E+03 0.  0.
    8880022    1    1    2    0    0 -0.95460261712E+03 -0.54175811160E+03 -0.17598814498E+04  0.20797457485E+04  0.15294330000E+03 0.  0.
<mgrwt>
<rscale>  0 0.12347586E+04</rscale>
<asrwt>0</asrwt>
<pdfrwt beam="1">  1        2 0.36650524E+00 0.12800696E+04</pdfrwt>
<pdfrwt beam="2">  1       -2 0.16087795E+00 0.12800696E+04</pdfrwt>
<totfact> 0.97562021E-01</totfact>
</mgrwt>
</event>
<event>
 4    5  0.1112901E-007  0.1084035E+04  0.7818608E-02  0.9279042E-01
          2   -1    0    0  501    0  0.00000000000E+00  0.00000000000E+00  0.49758049915E+04  0.49758049915E+04  0.25500000000E-02 0. -1.
         -2   -1    0    0    0  501 -0.00000000000E+00 -0.00000000000E+00 -0.75051211403E+03  0.75051211403E+03  0.25500000000E-02 0.  1.
    8880023    1    1    2    0    0  0.35583205947E+03  0.78403183086E+03 -0.29400039960E+03  0.11231958011E+04  0.65864270000E+03 0.  1.
    8880022    1    1    2    0    0 -0.35583205947E+03 -0.78403183086E+03  0.45192932771E+04  0.46031213044E+04  0.15294330000E+03 0.  0.
<mgrwt>
<rscale>  0 0.10273536E+04</rscale>
<asrwt>0</asrwt>
<pdfrwt beam="1">  1        2 0.76550843E+00 0.10840353E+04</pdfrwt>
<pdfrwt beam="2">  1       -2 0.11546341E+00 0.10840353E+04</pdfrwt>
<totfact> 0.23126544E-02</totfact>
</mgrwt>
</event>
<event>
 4    5  0.1112901E-007  0.1487514E+04  0.7818608E-02  0.8918503E-01
          2   -1    0    0  501    0  0.00000000000E+00  0.00000000000E+00  0.26532116969E+04  0.26532116969E+04  0.25500000000E-02 0. -1.
         -2   -1    0    0    0  501 -0.00000000000E+00 -0.00000000000E+00 -0.13063710351E+04  0.13063710351E+04  0.25500000000E-02 0.  1.
    8880023    1    1    2    0    0 -0.12973716555E+04 -0.30937956515E+03 -0.59228182786E+03  0.16010924076E+04  0.65864270000E+03 0.  0.
    8880022    1    1    2    0    0  0.12973716555E+04  0.30937956515E+03  0.19391224897E+04  0.23584903245E+04  0.15294330000E+03 0.  0.
<mgrwt>
<rscale>  0 0.14498521E+04</rscale>
<asrwt>0</asrwt>
<pdfrwt beam="1">  1        2 0.40818641E+00 0.14875144E+04</pdfrwt>
<pdfrwt beam="2">  1       -2 0.20098016E+00 0.14875144E+04</pdfrwt>
<totfact> 0.34932636E-01</totfact>
</mgrwt>
</event>
<event>
 4    5  0.1112901E-007  0.6702243E+03  0.7818608E-02  0.1015503E+00
          2   -1    0    0  501    0  0.00000000000E+00  0.00000000000E+00  0.13215644973E+04  0.13215644973E+04  0.25500000000E-02 0. -1.
         -2   -1    0    0    0  501 -0.00000000000E+00 -0.00000000000E+00 -0.21326850568E+03  0.21326850570E+03  0.25500000000E-02 0.  1.
    8880023    1    1    2    0    0 -0.12331492066E+03  0.13557662584E+02  0.35945809832E+03  0.76053317520E+03  0.65864270000E+03 0.  1.
    8880022    1    1    2    0    0  0.12331492066E+03 -0.13557662584E+02  0.74883789326E+03  0.77429982776E+03  0.15294330000E+03 0.  0.
<mgrwt>
<rscale>  0 0.49345089E+03</rscale>
<asrwt>0</asrwt>
<pdfrwt beam="1">  1        2 0.20331762E+00 0.67022428E+03</pdfrwt>
<pdfrwt beam="2">  1       -2 0.32810538E-01 0.67022428E+03</pdfrwt>
<totfact> 0.14205323E+02</totfact>
</mgrwt>
</event>
<event>
 4    5  0.1112901E-007  0.6766504E+03  0.7818608E-02  0.1011286E+00
         -2   -1    0    0    0  501 -0.00000000000E+00  0.00000000000E+00  0.20726944079E+03  0.20726944081E+03  0.25500000000E-02 0.  1.
          2   -1    0    0  501    0  0.00000000000E+00 -0.00000000000E+00 -0.96914674899E+03  0.96914674899E+03  0.25500000000E-02 0. -1.
    8880023    1    1    2    0    0 -0.15072445369E+03  0.36438153465E+02 -0.54238486430E+03  0.86720075372E+03  0.65864270000E+03 0.  1.
    8880022    1    1    2    0    0  0.15072445369E+03 -0.36438153465E+02 -0.21949244390E+03  0.30921543609E+03  0.15294330000E+03 0. -1.
<mgrwt>
<rscale>  0 0.50966899E+03</rscale>
<asrwt>0</asrwt>
<pdfrwt beam="1">  1        2 0.14909950E+00 0.67665043E+03</pdfrwt>
<pdfrwt beam="2">  1       -2 0.31887607E-01 0.67665043E+03</pdfrwt>
<totfact> 0.24430284E+02</totfact>
</mgrwt>
</event>
<event>
 4    5  0.1112901E-007  0.7883869E+03  0.7818608E-02  0.9736492E-01
          2   -1    0    0  501    0  0.00000000000E+00  0.00000000000E+00  0.12802718280E+04  0.12802718280E+04  0.25500000000E-02 0. -1.
         -2   -1    0    0    0  501 -0.00000000000E+00 -0.00000000000E+00 -0.18766093094E+04  0.18766093094E+04  0.25500000000E-02 0.  1.
    8880023    1    1    2    0    0 -0.40190542395E+03 -0.16191260898E+03 -0.17476583378E+04  0.19172541654E+04  0.65864270000E+03 0.  1.
    8880022    1    1    2    0    0  0.40190542395E+03  0.16191260898E+03  0.11513208563E+04  0.12396269721E+04  0.15294330000E+03 0.  0.
<mgrwt>
<rscale>  0 0.68884998E+03</rscale>
<asrwt>0</asrwt>
<pdfrwt beam="1">  1        2 0.19696490E+00 0.78838688E+03</pdfrwt>
<pdfrwt beam="2">  1       -2 0.28870912E+00 0.78838688E+03</pdfrwt>
<totfact> 0.65769782E-01</totfact>
</mgrwt>
</event>
<event>
 4    5  0.1112901E-007  0.7470357E+03  0.7818608E-02  0.9839907E-01
          2   -1    0    0  501    0  0.00000000000E+00  0.00000000000E+00  0.12136064898E+04  0.12136064898E+04  0.25500000000E-02 0. -1.
         -2   -1    0    0    0  501 -0.00000000000E+00 -0.00000000000E+00 -0.57857249195E+03  0.57857249196E+03  0.25500000000E-02 0.  1.
    8880023    1    1    2    0    0 -0.33101911785E+03 -0.12115487096E+03 -0.28153551686E+03  0.79832613176E+03  0.65864270000E+03 0.  0.
    8880022    1    1    2    0    0  0.33101911785E+03  0.12115487096E+03  0.91656951475E+03  0.99385285004E+03  0.15294330000E+03 0.  0.
<mgrwt>
<rscale>  0 0.63264187E+03</rscale>
<asrwt>0</asrwt>
<pdfrwt beam="1">  1        2 0.18670869E+00 0.74703572E+03</pdfrwt>
<pdfrwt beam="2">  1       -2 0.89011154E-01 0.74703572E+03</pdfrwt>
<totfact> 0.20548145E+01</totfact>
</mgrwt>
</event>
<event>
 4    5  0.1112901E-007  0.7026461E+03  0.7818608E-02  0.9986396E-01
          2   -1    0    0  501    0  0.00000000000E+00  0.00000000000E+00  0.42326361587E+03  0.42326361587E+03  0.25500000000E-02 0. -1.
         -2   -1    0    0    0  501 -0.00000000000E+00 -0.00000000000E+00 -0.18448779111E+04  0.18448779111E+04  0.25500000000E-02 0.  1.
    8880023    1    1    2    0    0 -0.23840042887E+03 -0.55376904268E+02 -0.17169760221E+04  0.18551868457E+04  0.65864270000E+03 0.  0.
    8880022    1    1    2    0    0  0.23840042887E+03  0.55376904268E+02  0.29536172686E+03  0.41295468120E+03  0.15294330000E+03 0.  0.
<mgrwt>
<rscale>  0 0.56250782E+03</rscale>
<asrwt>0</asrwt>
<pdfrwt beam="1">  1        2 0.65117480E-01 0.70264612E+03</pdfrwt>
<pdfrwt beam="2">  1       -2 0.28382737E+00 0.70264612E+03</pdfrwt>
<totfact> 0.31074541E+00</totfact>
</mgrwt>
</event>
<event>
 4    5  0.1112901E-007  0.7111871E+03  0.7818608E-02  0.9953619E-01
         -2   -1    0    0    0  501 -0.00000000000E+00  0.00000000000E+00  0.71113075878E+03  0.71113075878E+03  0.25500000000E-02 0.  1.
          2   -1    0    0  501    0  0.00000000000E+00 -0.00000000000E+00 -0.15679651100E+04  0.15679651100E+04  0.25500000000E-02 0. -1.
    8880023    1    1    2    0    0 -0.29497142911E+02  0.26665853437E+03  0.51170597467E+03  0.87614500293E+03  0.65864270000E+03 0.  1.
    8880022    1    1    2    0    0  0.29497142911E+02 -0.26665853437E+03 -0.13685403259E+04  0.14029508658E+04  0.15294330000E+03 0.  0.
<mgrwt>
<rscale>  0 0.57731590E+03</rscale>
<asrwt>0</asrwt>
<pdfrwt beam="1">  1        2 0.24122540E+00 0.71118708E+03</pdfrwt>
<pdfrwt beam="2">  1       -2 0.10940473E+00 0.71118708E+03</pdfrwt>
<totfact> 0.79853019E+00</totfact>
</mgrwt>
</event>
<event>
 4    5  0.1112901E-007  0.1023135E+04  0.7818608E-02  0.9351896E-01
         -2   -1    0    0    0  501 -0.00000000000E+00  0.00000000000E+00  0.62481589507E+03  0.62481589508E+03  0.25500000000E-02 0.  1.
          2   -1    0    0  501    0  0.00000000000E+00 -0.00000000000E+00 -0.27821579620E+04  0.27821579620E+04  0.25500000000E-02 0. -1.
    8880023    1    1    2    0    0 -0.78213395027E+03  0.35529182173E+02  0.85288527249E+02  0.10266840693E+04  0.65864270000E+03 0.  1.
    8880022    1    1    2    0    0  0.78213395027E+03 -0.35529182173E+02 -0.22426305941E+04  0.23802897878E+04  0.15294330000E+03 0.  0.
<mgrwt>
<rscale>  0 0.96142417E+03</rscale>
<asrwt>0</asrwt>
<pdfrwt beam="1">  1        2 0.42802430E+00 0.10231354E+04</pdfrwt>
<pdfrwt beam="2">  1       -2 0.96125524E-01 0.10231354E+04</pdfrwt>
<totfact> 0.21734864E+00</totfact>
</mgrwt>
</event>
<event>
 4    5  0.1112901E-007  0.1549238E+04  0.7818608E-02  0.8875628E-01
         -2   -1    0    0    0  501 -0.00000000000E+00  0.00000000000E+00  0.12754798435E+04  0.12754798435E+04  0.25500000000E-02 0.  1.
          2   -1    0    0  501    0  0.00000000000E+00 -0.00000000000E+00 -0.29165187376E+04  0.29165187376E+04  0.25500000000E-02 0. -1.
    8880023    1    1    2    0    0  0.59086207042E+03 -0.12716954129E+04  0.50012133070E+03  0.16279615355E+04  0.65864270000E+03 0.  0.
    8880022    1    1    2    0    0 -0.59086207042E+03  0.12716954129E+04 -0.21411602248E+04  0.25640370455E+04  0.15294330000E+03 0.  0.
<mgrwt>
<rscale>  0 0.15133435E+04</rscale>
<asrwt>0</asrwt>
<pdfrwt beam="1">  1        2 0.44869519E+00 0.15492377E+04</pdfrwt>
<pdfrwt beam="2">  1       -2 0.19622767E+00 0.15492377E+04</pdfrwt>
<totfact> 0.25889941E-01</totfact>
</mgrwt>
</event>
<event>
 4    5  0.1112901E-007  0.7721484E+03  0.7818608E-02  0.9774615E-01
          2   -1    0    0  501    0  0.00000000000E+00  0.00000000000E+00  0.25836028893E+04  0.25836028893E+04  0.25500000000E-02 0. -1.
         -2   -1    0    0    0  501 -0.00000000000E+00 -0.00000000000E+00 -0.29732324230E+03  0.29732324231E+03  0.25500000000E-02 0.  1.
    8880023    1    1    2    0    0 -0.40265868255E+03 -0.16398480982E+02  0.26831336648E+03  0.81743818954E+03  0.65864270000E+03 0.  0.
    8880022    1    1    2    0    0  0.40265868255E+03  0.16398480982E+02  0.20179662806E+04  0.20634879421E+04  0.15294330000E+03 0.  0.
<mgrwt>
<rscale>  0 0.66742844E+03</rscale>
<asrwt>0</asrwt>
<pdfrwt beam="1">  1        2 0.39747736E+00 0.77214839E+03</pdfrwt>
<pdfrwt beam="2">  1       -2 0.45742039E-01 0.77214839E+03</pdfrwt>
<totfact> 0.14745902E+01</totfact>
</mgrwt>
</event>
<event>
 4    5  0.1112901E-007  0.8677880E+03  0.7818608E-02  0.9579857E-01
          2   -1    0    0  501    0  0.00000000000E+00  0.00000000000E+00  0.61398750136E+03  0.61398750136E+03  0.25500000000E-02 0. -1.
         -2   -1    0    0    0  501 -0.00000000000E+00 -0.00000000000E+00 -0.19269285295E+04  0.19269285295E+04  0.25500000000E-02 0.  1.
    8880023    1    1    2    0    0  0.55667431189E+03 -0.96744399359E+02 -0.16508462859E+04  0.18650333601E+04  0.65864270000E+03 0.  1.
    8880022    1    1    2    0    0 -0.55667431189E+03  0.96744399359E+02  0.33790525780E+03  0.67588267073E+03  0.15294330000E+03 0.  0.
<mgrwt>
<rscale>  0 0.78643815E+03</rscale>
<asrwt>0</asrwt>
<pdfrwt beam="1">  1        2 0.94459616E-01 0.86778798E+03</pdfrwt>
<pdfrwt beam="2">  1       -2 0.29645054E+00 0.86778798E+03</pdfrwt>
<totfact> 0.16483216E+00</totfact>
</mgrwt>
</event>
<event>
 4    5  0.1112901E-007  0.1513007E+04  0.7818608E-02  0.8900506E-01
         -2   -1    0    0    0  501 -0.00000000000E+00  0.00000000000E+00  0.13772964103E+04  0.13772964103E+04  0.25500000000E-02 0.  1.
          2   -1    0    0  501    0  0.00000000000E+00 -0.00000000000E+00 -0.19339315752E+04  0.19339315752E+04  0.25500000000E-02 0. -1.
    8880023    1    1    2    0    0 -0.13621229849E+04 -0.73965768694E+00  0.48590639091E+03  0.15891176168E+04  0.65864270000E+03 0.  0.
    8880022    1    1    2    0    0  0.13621229849E+04  0.73965768694E+00 -0.10425415559E+04  0.17221103687E+04  0.15294330000E+03 0.  0.
<mgrwt>
<rscale>  0 0.14760970E+04</rscale>
<asrwt>0</asrwt>
<pdfrwt beam="1">  1        2 0.29752793E+00 0.15130069E+04</pdfrwt>
<pdfrwt beam="2">  1       -2 0.21189176E+00 0.15130069E+04</pdfrwt>
<totfact> 0.75909481E-01</totfact>
</mgrwt>
</event>
<event>
 4    5  0.1112901E-007  0.1324390E+04  0.7818608E-02  0.9044779E-01
          2   -1    0    0  501    0  0.00000000000E+00  0.00000000000E+00  0.12516034979E+04  0.12516034979E+04  0.25500000000E-02 0. -1.
         -2   -1    0    0    0  501 -0.00000000000E+00 -0.00000000000E+00 -0.15293812889E+04  0.15293812889E+04  0.25500000000E-02 0.  1.
    8880023    1    1    2    0    0 -0.59180323510E+03  0.98486880856E+03 -0.75839397083E+03  0.15261616102E+04  0.65864270000E+03 0.  1.
    8880022    1    1    2    0    0  0.59180323510E+03 -0.98486880856E+03  0.48061617981E+03  0.12548231766E+04  0.15294330000E+03 0.  0.
<mgrwt>
<rscale>  0 0.12809882E+04</rscale>
<asrwt>0</asrwt>
<pdfrwt beam="1">  1        2 0.19255438E+00 0.13243896E+04</pdfrwt>
<pdfrwt beam="2">  1       -2 0.23528943E+00 0.13243896E+04</pdfrwt>
<totfact> 0.13412844E+00</totfact>
</mgrwt>
</event>
<event>
 4    5  0.1112901E-007  0.9933235E+03  0.7818608E-02  0.9390345E-01
         -2   -1    0    0    0  501 -0.00000000000E+00  0.00000000000E+00  0.11260539330E+04  0.11260539330E+04  0.25500000000E-02 0.  1.
          2   -1    0    0  501    0  0.00000000000E+00 -0.00000000000E+00 -0.10331023378E+04  0.10331023378E+04  0.25500000000E-02 0. -1.
    8880023    1    1    2    0    0 -0.22356174791E+03  0.70915548005E+03  0.67637210117E+03  0.12017365666E+04  0.65864270000E+03 0.  1.
    8880022    1    1    2    0    0  0.22356174791E+03 -0.70915548005E+03 -0.58342050600E+03  0.95741970412E+03  0.15294330000E+03 0.  0.
<mgrwt>
<rscale>  0 0.92874516E+03</rscale>
<asrwt>0</asrwt>
<pdfrwt beam="1">  1        2 0.15893882E+00 0.99332349E+03</pdfrwt>
<pdfrwt beam="2">  1       -2 0.17323907E+00 0.99332349E+03</pdfrwt>
<totfact> 0.48108318E+00</totfact>
</mgrwt>
</event>
<event>
 4    5  0.1112901E-007  0.9787712E+03  0.7818608E-02  0.9409874E-01
         -2   -1    0    0    0  501 -0.00000000000E+00  0.00000000000E+00  0.10469063315E+04  0.10469063315E+04  0.25500000000E-02 0.  1.
          2   -1    0    0  501    0  0.00000000000E+00 -0.00000000000E+00 -0.23602744969E+04  0.23602744969E+04  0.25500000000E-02 0. -1.
    8880023    1    1    2    0    0  0.50397156550E+03  0.51980340925E+03  0.73839298218E+03  0.12260576355E+04  0.65864270000E+03 0.  1.
    8880022    1    1    2    0    0 -0.50397156550E+03 -0.51980340925E+03 -0.20517611476E+04  0.21811231929E+04  0.15294330000E+03 0.  0.
<mgrwt>
<rscale>  0 0.91267532E+03</rscale>
<asrwt>0</asrwt>
<pdfrwt beam="1">  1        2 0.36311915E+00 0.97877123E+03</pdfrwt>
<pdfrwt beam="2">  1       -2 0.16106251E+00 0.97877123E+03</pdfrwt>
<totfact> 0.10430050E+00</totfact>
</mgrwt>
</event>
<event>
 4    5  0.1112901E-007  0.1365960E+04  0.7818608E-02  0.9010594E-01
         -2   -1    0    0    0  501 -0.00000000000E+00  0.00000000000E+00  0.18051593856E+04  0.18051593856E+04  0.25500000000E-02 0.  1.
          2   -1    0    0  501    0  0.00000000000E+00 -0.00000000000E+00 -0.16424266475E+04  0.16424266475E+04  0.25500000000E-02 0. -1.
    8880023    1    1    2    0    0  0.19167703942E+02  0.11965238026E+04  0.12290295520E+04  0.18374875393E+04  0.65864270000E+03 0.  0.
    8880022    1    1    2    0    0 -0.19167703942E+02 -0.11965238026E+04 -0.10662968140E+04  0.16100984937E+04  0.15294330000E+03 0.  0.
<mgrwt>
<rscale>  0 0.13241962E+04</rscale>
<asrwt>0</asrwt>
<pdfrwt beam="1">  1        2 0.25268102E+00 0.13659600E+04</pdfrwt>
<pdfrwt beam="2">  1       -2 0.27771683E+00 0.13659600E+04</pdfrwt>
<totfact> 0.43784622E-01</totfact>
</mgrwt>
</event>
<event>
 4    5  0.1112901E-007  0.7125128E+03  0.7818608E-02  0.9948786E-01
          2   -1    0    0  501    0  0.00000000000E+00  0.00000000000E+00  0.15682777156E+04  0.15682777156E+04  0.25500000000E-02 0. -1.
         -2   -1    0    0    0  501 -0.00000000000E+00 -0.00000000000E+00 -0.41490248226E+03  0.41490248227E+03  0.25500000000E-02 0.  1.
    8880023    1    1    2    0    0  0.23492469990E+03 -0.13665530127E+03 -0.74428651010E+02  0.71638964003E+03  0.65864270000E+03 0.  1.
    8880022    1    1    2    0    0 -0.23492469990E+03  0.13665530127E+03  0.12278038843E+04  0.12667905578E+04  0.15294330000E+03 0.  0.
<mgrwt>
<rscale>  0 0.57954081E+03</rscale>
<asrwt>0</asrwt>
<pdfrwt beam="1">  1        2 0.24127350E+00 0.71251280E+03</pdfrwt>
<pdfrwt beam="2">  1       -2 0.63831150E-01 0.71251280E+03</pdfrwt>
<totfact> 0.27146445E+01</totfact>
</mgrwt>
</event>
<event>
 4    5  0.1112901E-007  0.8178786E+03  0.7818608E-02  0.9673394E-01
          2   -1    0    0  501    0  0.00000000000E+00  0.00000000000E+00  0.25406091732E+04  0.25406091733E+04  0.25500000000E-02 0. -1.
         -2   -1    0    0    0  501 -0.00000000000E+00 -0.00000000000E+00 -0.91759837758E+03  0.91759837759E+03  0.25500000000E-02 0.  1.
    8880023    1    1    2    0    0  0.41067849403E+03 -0.25779507030E+03 -0.70225663159E+03  0.10780026468E+04  0.65864270000E+03 0.  0.
    8880022    1    1    2    0    0 -0.41067849403E+03  0.25779507030E+03  0.23252674273E+04  0.23802049040E+04  0.15294330000E+03 0.  0.
<mgrwt>
<rscale>  0 0.72623238E+03</rscale>
<asrwt>0</asrwt>
<pdfrwt beam="1">  1        2 0.39086295E+00 0.81787855E+03</pdfrwt>
<pdfrwt beam="2">  1       -2 0.14116898E+00 0.81787855E+03</pdfrwt>
<totfact> 0.12037892E+00</totfact>
</mgrwt>
</event>
<event>
 4    5  0.1112901E-007  0.7423035E+03  0.7818608E-02  0.9853287E-01
          2   -1    0    0  501    0  0.00000000000E+00  0.00000000000E+00  0.20396730775E+04  0.20396730775E+04  0.25500000000E-02 0. -1.
         -2   -1    0    0    0  501 -0.00000000000E+00 -0.00000000000E+00 -0.23730525408E+03  0.23730525410E+03  0.25500000000E-02 0.  1.
    8880023    1    1    2    0    0  0.20807738038E+03  0.27186048487E+03  0.43771137004E+03  0.86174576830E+03  0.65864270000E+03 0.  1.
    8880022    1    1    2    0    0 -0.20807738038E+03 -0.27186048487E+03  0.13646564534E+04  0.14152325633E+04  0.15294330000E+03 0.  0.
<mgrwt>
<rscale>  0 0.62579596E+03</rscale>
<asrwt>0</asrwt>
<pdfrwt beam="1">  1        2 0.31379588E+00 0.74230353E+03</pdfrwt>
<pdfrwt beam="2">  1       -2 0.36508498E-01 0.74230353E+03</pdfrwt>
<totfact> 0.46290392E+01</totfact>
</mgrwt>
</event>
<event>
 4    5  0.1112901E-007  0.6814009E+03  0.7818608E-02  0.1008542E+00
         -2   -1    0    0    0  501 -0.00000000000E+00  0.00000000000E+00  0.96406201215E+03  0.96406201216E+03  0.25500000000E-02 0.  1.
          2   -1    0    0  501    0  0.00000000000E+00 -0.00000000000E+00 -0.19298868238E+04  0.19298868238E+04  0.25500000000E-02 0. -1.
    8880023    1    1    2    0    0  0.15387372591E+03  0.82582792444E+02  0.83527136130E+03  0.10779543100E+04  0.65864270000E+03 0.  1.
    8880022    1    1    2    0    0 -0.15387372591E+03 -0.82582792444E+02 -0.18010961729E+04  0.18159945260E+04  0.15294330000E+03 0.  0.
<mgrwt>
<rscale>  0 0.52058213E+03</rscale>
<asrwt>0</asrwt>
<pdfrwt beam="1">  1        2 0.29690566E+00 0.68140094E+03</pdfrwt>
<pdfrwt beam="2">  1       -2 0.14831723E+00 0.68140094E+03</pdfrwt>
<totfact> 0.23682985E+00</totfact>
</mgrwt>
</event>
<event>
 4    5  0.1112901E-007  0.1176004E+04  0.7818608E-02  0.9180809E-01
          2   -1    0    0  501    0  0.00000000000E+00  0.00000000000E+00  0.25421798135E+04  0.25421798135E+04  0.25500000000E-02 0. -1.
         -2   -1    0    0    0  501 -0.00000000000E+00 -0.00000000000E+00 -0.67071710066E+03  0.67071710067E+03  0.25500000000E-02 0.  1.
    8880023    1    1    2    0    0  0.16966159894E+03  0.95936937014E+03  0.93465476268E+02  0.11797121039E+04  0.65864270000E+03 0.  1.
    8880022    1    1    2    0    0 -0.16966159894E+03 -0.95936937014E+03  0.17779972366E+04  0.20331848103E+04  0.15294330000E+03 0.  0.
<mgrwt>
<rscale>  0 0.11253729E+04</rscale>
<asrwt>0</asrwt>
<pdfrwt beam="1">  1        2 0.39110458E+00 0.11760038E+04</pdfrwt>
<pdfrwt beam="2">  1       -2 0.10318725E+00 0.11760038E+04</pdfrwt>
<totfact> 0.24868646E+00</totfact>
</mgrwt>
</event>
<event>
 4    5  0.1112901E-007  0.1043441E+04  0.7818608E-02  0.9326808E-01
         -2   -1    0    0    0  501 -0.00000000000E+00  0.00000000000E+00  0.15786899362E+04  0.15786899362E+04  0.25500000000E-02 0.  1.
          2   -1    0    0  501    0  0.00000000000E+00 -0.00000000000E+00 -0.19681835982E+04  0.19681835982E+04  0.25500000000E-02 0. -1.
    8880023    1    1    2    0    0 -0.74718163779E+03 -0.31093095700E+03  0.13002093487E+04  0.16671271747E+04  0.65864270000E+03 0.  0.
    8880022    1    1    2    0    0  0.74718163779E+03  0.31093095700E+03 -0.16897030107E+04  0.18797463598E+04  0.15294330000E+03 0.  0.
<mgrwt>
<rscale>  0 0.98351863E+03</rscale>
<asrwt>0</asrwt>
<pdfrwt beam="1">  1        2 0.30279748E+00 0.10434408E+04</pdfrwt>
<pdfrwt beam="2">  1       -2 0.24287537E+00 0.10434408E+04</pdfrwt>
<totfact> 0.49230514E-01</totfact>
</mgrwt>
</event>
<event>
 4    5  0.1112901E-007  0.7622555E+03  0.7818608E-02  0.9799303E-01
          2   -1    0    0  501    0  0.00000000000E+00  0.00000000000E+00  0.29653070850E+03  0.29653070851E+03  0.25500000000E-02 0. -1.
         -2   -1    0    0    0  501 -0.00000000000E+00 -0.00000000000E+00 -0.14064681261E+04  0.14064681261E+04  0.25500000000E-02 0.  1.
    8880023    1    1    2    0    0  0.31876044361E+03 -0.21357671259E+03 -0.10314615219E+04  0.12825546031E+04  0.65864270000E+03 0.  0.
    8880022    1    1    2    0    0 -0.31876044361E+03  0.21357671259E+03 -0.78475895709E+02  0.42044423149E+03  0.15294330000E+03 0.  0.
<mgrwt>
<rscale>  0 0.65399968E+03</rscale>
<asrwt>0</asrwt>
<pdfrwt beam="1">  1        2 0.45620110E-01 0.76225549E+03</pdfrwt>
<pdfrwt beam="2">  1       -2 0.21637971E+00 0.76225549E+03</pdfrwt>
<totfact> 0.11811954E+01</totfact>
</mgrwt>
</event>
<event>
 4    5  0.1112901E-007  0.1353892E+04  0.7818608E-02  0.9020364E-01
         -2   -1    0    0    0  501 -0.00000000000E+00  0.00000000000E+00  0.23243737186E+04  0.23243737186E+04  0.25500000000E-02 0.  1.
          2   -1    0    0  501    0  0.00000000000E+00 -0.00000000000E+00 -0.11786330393E+04  0.11786330393E+04  0.25500000000E-02 0. -1.
    8880023    1    1    2    0    0  0.51745421755E+03 -0.10636980623E+04  0.17120264880E+04  0.21826720635E+04  0.65864270000E+03 0.  0.
    8880022    1    1    2    0    0 -0.51745421755E+03  0.10636980623E+04 -0.56628580874E+03  0.13203346944E+04  0.15294330000E+03 0.  0.
<mgrwt>
<rscale>  0 0.13116665E+04</rscale>
<asrwt>0</asrwt>
<pdfrwt beam="1">  1        2 0.18132816E+00 0.13538917E+04</pdfrwt>
<pdfrwt beam="2">  1       -2 0.35759595E+00 0.13538917E+04</pdfrwt>
<totfact> 0.26154481E-01</totfact>
</mgrwt>
</event>
<event>
 4    5  0.1112901E-007  0.9010963E+03  0.7818608E-02  0.9524274E-01
         -2   -1    0    0    0  501 -0.00000000000E+00  0.00000000000E+00  0.68179034022E+03  0.68179034023E+03  0.25500000000E-02 0.  1.
          2   -1    0    0  501    0  0.00000000000E+00 -0.00000000000E+00 -0.24851647233E+04  0.24851647233E+04  0.25500000000E-02 0. -1.
    8880023    1    1    2    0    0 -0.52812497473E+03 -0.31503710224E+03  0.31598102269E+03  0.95489191938E+03  0.65864270000E+03 0.  0.
    8880022    1    1    2    0    0  0.52812497473E+03  0.31503710224E+03 -0.21193554057E+04  0.22120631441E+04  0.15294330000E+03 0.  0.
<mgrwt>
<rscale>  0 0.82517617E+03</rscale>
<asrwt>0</asrwt>
<pdfrwt beam="1">  1        2 0.38233303E+00 0.90109632E+03</pdfrwt>
<pdfrwt beam="2">  1       -2 0.10489082E+00 0.90109632E+03</pdfrwt>
<totfact> 0.26764900E+00</totfact>
</mgrwt>
</event>
<event>
 4    5  0.1112901E-007  0.9425785E+03  0.7818608E-02  0.9460873E-01
         -2   -1    0    0    0  501 -0.00000000000E+00  0.00000000000E+00  0.41994083004E+03  0.41994083005E+03  0.25500000000E-02 0.  1.
          2   -1    0    0  501    0  0.00000000000E+00 -0.00000000000E+00 -0.30920235299E+04  0.30920235299E+04  0.25500000000E-02 0. -1.
    8880023    1    1    2    0    0 -0.35711096498E+03 -0.57194028454E+03 -0.22497080918E+03  0.96905417890E+03  0.65864270000E+03 0.  1.
    8880022    1    1    2    0    0  0.35711096498E+03  0.57194028454E+03 -0.24471118906E+04  0.25429101810E+04  0.15294330000E+03 0.  0.
<mgrwt>
<rscale>  0 0.87230961E+03</rscale>
<asrwt>0</asrwt>
<pdfrwt beam="1">  1        2 0.47569591E+00 0.94257845E+03</pdfrwt>
<pdfrwt beam="2">  1       -2 0.64606284E-01 0.94257845E+03</pdfrwt>
<totfact> 0.34820084E+00</totfact>
</mgrwt>
</event>
<event>
 4    5  0.1112901E-007  0.1090146E+04  0.7818608E-02  0.9272107E-01
         -2   -1    0    0    0  501 -0.00000000000E+00  0.00000000000E+00  0.11042772717E+04  0.11042772717E+04  0.25500000000E-02 0.  1.
          2   -1    0    0  501    0  0.00000000000E+00 -0.00000000000E+00 -0.14913135928E+04  0.14913135928E+04  0.25500000000E-02 0. -1.
    8880023    1    1    2    0    0  0.54777231997E+02  0.86695361019E+03  0.62221856383E+03  0.12552192059E+04  0.65864270000E+03 0.  1.
    8880022    1    1    2    0    0 -0.54777231997E+02 -0.86695361019E+03 -0.10092548850E+04  0.13403716586E+04  0.15294330000E+03 0.  0.
<mgrwt>
<rscale>  0 0.10339181E+04</rscale>
<asrwt>0</asrwt>
<pdfrwt beam="1">  1        2 0.22943286E+00 0.10901465E+04</pdfrwt>
<pdfrwt beam="2">  1       -2 0.16988881E+00 0.10901465E+04</pdfrwt>
<totfact> 0.26923426E+00</totfact>
</mgrwt>
</event>
<event>
 4    5  0.1112901E-007  0.1362920E+04  0.7818608E-02  0.9013044E-01
         -2   -1    0    0    0  501 -0.00000000000E+00  0.00000000000E+00  0.76562717258E+03  0.76562717258E+03  0.25500000000E-02 0.  1.
          2   -1    0    0  501    0  0.00000000000E+00 -0.00000000000E+00 -0.23721168353E+04  0.23721168353E+04  0.25500000000E-02 0. -1.
    8880023    1    1    2    0    0  0.11819290236E+04  0.16365773058E+03 -0.36917805473E+03  0.14120349542E+04  0.65864270000E+03 0. -1.
    8880022    1    1    2    0    0 -0.11819290236E+04 -0.16365773058E+03 -0.12373116080E+04  0.17257090536E+04  0.15294330000E+03 0.  0.
<mgrwt>
<rscale>  0 0.13210408E+04</rscale>
<asrwt>0</asrwt>
<pdfrwt beam="1">  1        2 0.36494105E+00 0.13629198E+04</pdfrwt>
<pdfrwt beam="2">  1       -2 0.11778880E+00 0.13629198E+04</pdfrwt>
<totfact> 0.22072311E+00</totfact>
</mgrwt>
</event>
<event>
 4    5  0.1112901E-007  0.7108106E+03  0.7818608E-02  0.9955003E-01
         -2   -1    0    0    0  501 -0.00000000000E+00  0.00000000000E+00  0.80713617596E+03  0.80713617596E+03  0.25500000000E-02 0.  1.
          2   -1    0    0  501    0  0.00000000000E+00 -0.00000000000E+00 -0.25781761015E+04  0.25781761015E+04  0.25500000000E-02 0. -1.
    8880023    1    1    2    0    0  0.24703385283E+03  0.10205788732E+03  0.63892014710E+03  0.95575660994E+03  0.65864270000E+03 0.  1.
    8880022    1    1    2    0    0 -0.24703385283E+03 -0.10205788732E+03 -0.24099600727E+04  0.24295556676E+04  0.15294330000E+03 0.  0.
<mgrwt>
<rscale>  0 0.57668078E+03</rscale>
<asrwt>0</asrwt>
<pdfrwt beam="1">  1        2 0.39664248E+00 0.71081062E+03</pdfrwt>
<pdfrwt beam="2">  1       -2 0.12417480E+00 0.71081062E+03</pdfrwt>
<totfact> 0.16230796E+00</totfact>
</mgrwt>
</event>
<event>
 4    5  0.1112901E-007  0.8514678E+03  0.7818608E-02  0.9608925E-01
         -2   -1    0    0    0  501 -0.00000000000E+00  0.00000000000E+00  0.44608949274E+03  0.44608949274E+03  0.25500000000E-02 0.  1.
          2   -1    0    0  501    0  0.00000000000E+00 -0.00000000000E+00 -0.20179406501E+04  0.20179406501E+04  0.25500000000E-02 0. -1.
    8880023    1    1    2    0    0 -0.53503491389E+03 -0.70177084583E+02 -0.62408416723E+02  0.85375183691E+03  0.65864270000E+03 0.  0.
    8880022    1    1    2    0    0  0.53503491389E+03  0.70177084583E+02 -0.15094427407E+04  0.16102783060E+04  0.15294330000E+03 0.  0.
<mgrwt>
<rscale>  0 0.76708299E+03</rscale>
<asrwt>0</asrwt>
<pdfrwt beam="1">  1        2 0.31045240E+00 0.85146778E+03</pdfrwt>
<pdfrwt beam="2">  1       -2 0.68629154E-01 0.85146778E+03</pdfrwt>
<totfact> 0.12939568E+01</totfact>
</mgrwt>
</event>
<event>
 4    5  0.1112901E-007  0.7488073E+03  0.7818608E-02  0.9834997E-01
         -2   -1    0    0    0  501 -0.00000000000E+00  0.00000000000E+00  0.91435240163E+03  0.91435240163E+03  0.25500000000E-02 0.  1.
          2   -1    0    0  501    0  0.00000000000E+00 -0.00000000000E+00 -0.12004567855E+04  0.12004567855E+04  0.25500000000E-02 0. -1.
    8880023    1    1    2    0    0  0.22524133036E+03  0.27598638193E+03  0.71864342045E+03  0.10378635324E+04  0.65864270000E+03 0.  1.
    8880022    1    1    2    0    0 -0.22524133036E+03 -0.27598638193E+03 -0.10047478043E+04  0.10769456547E+04  0.15294330000E+03 0.  0.
<mgrwt>
<rscale>  0 0.63517760E+03</rscale>
<asrwt>0</asrwt>
<pdfrwt beam="1">  1        2 0.18468566E+00 0.74880728E+03</pdfrwt>
<pdfrwt beam="2">  1       -2 0.14066960E+00 0.74880728E+03</pdfrwt>
<totfact> 0.68547141E+00</totfact>
</mgrwt>
</event>
<event>
 4    5  0.1112901E-007  0.6637674E+03  0.7818608E-02  0.1020591E+00
         -2   -1    0    0    0  501 -0.00000000000E+00  0.00000000000E+00  0.27238800136E+03  0.27238800137E+03  0.25500000000E-02 0.  1.
          2   -1    0    0  501    0  0.00000000000E+00 -0.00000000000E+00 -0.23133928111E+04  0.23133928111E+04  0.25500000000E-02 0. -1.
    8880023    1    1    2    0    0  0.50534019063E+02  0.64986523338E+02 -0.14192022110E+03  0.67876983634E+03  0.65864270000E+03 0.  1.
    8880022    1    1    2    0    0 -0.50534019063E+02 -0.64986523338E+02 -0.18990845886E+04  0.19070109761E+04  0.15294330000E+03 0.  0.
<mgrwt>
<rscale>  0 0.47474052E+03</rscale>
<asrwt>0</asrwt>
<pdfrwt beam="1">  1        2 0.35590657E+00 0.66376739E+03</pdfrwt>
<pdfrwt beam="2">  1       -2 0.41905848E-01 0.66376739E+03</pdfrwt>
<totfact> 0.25336123E+01</totfact>
</mgrwt>
</event>
<event>
 4    5  0.1112901E-007  0.9428782E+03  0.7818608E-02  0.9460436E-01
          2   -1    0    0  501    0  0.00000000000E+00  0.00000000000E+00  0.92699148399E+03  0.92699148399E+03  0.25500000000E-02 0. -1.
         -2   -1    0    0    0  501 -0.00000000000E+00 -0.00000000000E+00 -0.13666463526E+04  0.13666463526E+04  0.25500000000E-02 0.  1.
    8880023    1    1    2    0    0 -0.96200635069E+01  0.67462327507E+03 -0.10211663519E+04  0.13898920941E+04  0.65864270000E+03 0.  1.
    8880022    1    1    2    0    0  0.96200635069E+01 -0.67462327507E+03  0.58151148324E+03  0.90374574248E+03  0.15294330000E+03 0.  0.
<mgrwt>
<rscale>  0 0.87264654E+03</rscale>
<asrwt>0</asrwt>
<pdfrwt beam="1">  1        2 0.14261407E+00 0.94287821E+03</pdfrwt>
<pdfrwt beam="2">  1       -2 0.21025329E+00 0.94287821E+03</pdfrwt>
<totfact> 0.32063162E+00</totfact>
</mgrwt>
</event>
<event>
 4    5  0.1112901E-007  0.9707222E+03  0.7818608E-02  0.9420906E-01
          2   -1    0    0  501    0  0.00000000000E+00  0.00000000000E+00  0.79769149365E+03  0.79769149365E+03  0.25500000000E-02 0. -1.
         -2   -1    0    0    0  501 -0.00000000000E+00 -0.00000000000E+00 -0.20940669311E+04  0.20940669311E+04  0.25500000000E-02 0.  1.
    8880023    1    1    2    0    0  0.52198217075E+03 -0.48582506815E+03 -0.17724224541E+04  0.20208371892E+04  0.65864270000E+03 0.  1.
    8880022    1    1    2    0    0 -0.52198217075E+03  0.48582506815E+03  0.47604701662E+03  0.87092123552E+03  0.15294330000E+03 0.  0.
<mgrwt>
<rscale>  0 0.90374985E+03</rscale>
<asrwt>0</asrwt>
<pdfrwt beam="1">  1        2 0.12272177E+00 0.97072220E+03</pdfrwt>
<pdfrwt beam="2">  1       -2 0.32216414E+00 0.97072220E+03</pdfrwt>
<totfact> 0.81262825E-01</totfact>
</mgrwt>
</event>
<event>
 4    5  0.1112901E-007  0.1036627E+04  0.7818608E-02  0.9335132E-01
         -2   -1    0    0    0  501 -0.00000000000E+00  0.00000000000E+00  0.15479777210E+04  0.15479777210E+04  0.25500000000E-02 0.  1.
          2   -1    0    0  501    0  0.00000000000E+00 -0.00000000000E+00 -0.19375813887E+04  0.19375813887E+04  0.25500000000E-02 0. -1.
    8880023    1    1    2    0    0  0.79177148853E+03 -0.11783084031E+03  0.12683805244E+04  0.16381042574E+04  0.65864270000E+03 0.  1.
    8880022    1    1    2    0    0 -0.79177148853E+03  0.11783084031E+03 -0.16579841921E+04  0.18474548523E+04  0.15294330000E+03 0.  0.
<mgrwt>
<rscale>  0 0.97611855E+03</rscale>
<asrwt>0</asrwt>
<pdfrwt beam="1">  1        2 0.29808944E+00 0.10366274E+04</pdfrwt>
<pdfrwt beam="2">  1       -2 0.23815042E+00 0.10366274E+04</pdfrwt>
<totfact> 0.54780532E-01</totfact>
</mgrwt>
</event>
<event>
 4    5  0.1112901E-007  0.7924507E+03  0.7818608E-02  0.9727363E-01
         -2   -1    0    0    0  501 -0.00000000000E+00  0.00000000000E+00  0.17369010238E+04  0.17369010238E+04  0.25500000000E-02 0.  1.
          2   -1    0    0  501    0  0.00000000000E+00 -0.00000000000E+00 -0.18715149070E+04  0.18715149070E+04  0.25500000000E-02 0. -1.
    8880023    1    1    2    0    0  0.29738218572E+03 -0.32516405719E+03  0.16143297001E+04  0.17983432418E+04  0.65864270000E+03 0.  1.
    8880022    1    1    2    0    0 -0.29738218572E+03  0.32516405719E+03 -0.17489435834E+04  0.18100726890E+04  0.15294330000E+03 0.  0.
<mgrwt>
<rscale>  0 0.69410700E+03</rscale>
<asrwt>0</asrwt>
<pdfrwt beam="1">  1        2 0.28792537E+00 0.79245065E+03</pdfrwt>
<pdfrwt beam="2">  1       -2 0.26721554E+00 0.79245065E+03</pdfrwt>
<totfact> 0.41470773E-01</totfact>
</mgrwt>
</event>
<event>
 4    5  0.1112901E-007  0.6844990E+03  0.7818608E-02  0.1006885E+00
          2   -1    0    0  501    0  0.00000000000E+00  0.00000000000E+00  0.24323859494E+04  0.24323859494E+04  0.25500000000E-02 0. -1.
         -2   -1    0    0    0  501 -0.00000000000E+00 -0.00000000000E+00 -0.16331498466E+03  0.16331498468E+03  0.25500000000E-02 0.  1.
    8880023    1    1    2    0    0  0.55021990068E+02 -0.17804852751E+03  0.60282788552E+03  0.91210764900E+03  0.65864270000E+03 0.  1.
    8880022    1    1    2    0    0 -0.55021990068E+02  0.17804852751E+03  0.16662430792E+04  0.16835932851E+04  0.15294330000E+03 0.  0.
<mgrwt>
<rscale>  0 0.52731564E+03</rscale>
<asrwt>0</asrwt>
<pdfrwt beam="1">  1        2 0.37421323E+00 0.68449902E+03</pdfrwt>
<pdfrwt beam="2">  1       -2 0.25125382E-01 0.68449902E+03</pdfrwt>
<totfact> 0.56685918E+01</totfact>
</mgrwt>
</event>
<event>
 4    5  0.1112901E-007  0.1170388E+04  0.7818608E-02  0.9186459E-01
         -2   -1    0    0    0  501 -0.00000000000E+00  0.00000000000E+00  0.72161842506E+03  0.72161842507E+03  0.25500000000E-02 0.  1.
          2   -1    0    0  501    0  0.00000000000E+00 -0.00000000000E+00 -0.22657204153E+04  0.22657204153E+04  0.25500000000E-02 0. -1.
    8880023    1    1    2    0    0 -0.50490582442E+03 -0.82526826363E+03 -0.13865712168E+02  0.11704700179E+04  0.65864270000E+03 0.  0.
    8880022    1    1    2    0    0  0.50490582442E+03  0.82526826363E+03 -0.15302362781E+04  0.18168688225E+04  0.15294330000E+03 0.  0.
<mgrwt>
<rscale>  0 0.11194294E+04</rscale>
<asrwt>0</asrwt>
<pdfrwt beam="1">  1        2 0.34857237E+00 0.11703879E+04</pdfrwt>
<pdfrwt beam="2">  1       -2 0.11101822E+00 0.11703879E+04</pdfrwt>
<totfact> 0.29934826E+00</totfact>
</mgrwt>
</event>
<event>
 4    5  0.1112901E-007  0.7349252E+03  0.7818608E-02  0.9874984E-01
         -2   -1    0    0    0  501 -0.00000000000E+00  0.00000000000E+00  0.12313414040E+04  0.12313414040E+04  0.25500000000E-02 0.  1.
          2   -1    0    0  501    0  0.00000000000E+00 -0.00000000000E+00 -0.53096961639E+03  0.53096961639E+03  0.25500000000E-02 0. -1.
    8880023    1    1    2    0    0 -0.29259415484E+03  0.14385218966E+03  0.10358842353E+04  0.12701067463E+04  0.65864270000E+03 0.  1.
    8880022    1    1    2    0    0  0.29259415484E+03 -0.14385218966E+03 -0.33551244763E+03  0.49220427410E+03  0.15294330000E+03 0.  0.
<mgrwt>
<rscale>  0 0.61489130E+03</rscale>
<asrwt>0</asrwt>
<pdfrwt beam="1">  1        2 0.81687634E-01 0.73492517E+03</pdfrwt>
<pdfrwt beam="2">  1       -2 0.18943714E+00 0.73492517E+03</pdfrwt>
<totfact> 0.91507244E+00</totfact>
</mgrwt>
</event>
<event>
 4    5  0.1112901E-007  0.7478129E+03  0.7818608E-02  0.9837746E-01
         -2   -1    0    0    0  501 -0.00000000000E+00  0.00000000000E+00  0.10096283177E+04  0.10096283177E+04  0.25500000000E-02 0.  1.
          2   -1    0    0  501    0  0.00000000000E+00 -0.00000000000E+00 -0.33487128389E+04  0.33487128389E+04  0.25500000000E-02 0. -1.
    8880023    1    1    2    0    0  0.30215505030E+03 -0.18470596070E+03  0.85795272987E+03  0.11381155738E+04  0.65864270000E+03 0.  0.
    8880022    1    1    2    0    0 -0.30215505030E+03  0.18470596070E+03 -0.31970372511E+04  0.32202255828E+04  0.15294330000E+03 0.  0.
<mgrwt>
<rscale>  0 0.63375609E+03</rscale>
<asrwt>0</asrwt>
<pdfrwt beam="1">  1        2 0.51518659E+00 0.74781293E+03</pdfrwt>
<pdfrwt beam="2">  1       -2 0.15532743E+00 0.74781293E+03</pdfrwt>
<totfact> 0.30600205E-01</totfact>
</mgrwt>
</event>
<event>
 4    5  0.1112901E-007  0.7391043E+03  0.7818608E-02  0.9862564E-01
         -2   -1    0    0    0  501 -0.00000000000E+00  0.00000000000E+00  0.10413115500E+04  0.10413115500E+04  0.25500000000E-02 0.  1.
          2   -1    0    0  501    0  0.00000000000E+00 -0.00000000000E+00 -0.11079457251E+04  0.11079457251E+04  0.25500000000E-02 0. -1.
    8880023    1    1    2    0    0  0.16677672557E+03 -0.29094745674E+03  0.87067443740E+03  0.11420810308E+04  0.65864270000E+03 0.  1.
    8880022    1    1    2    0    0 -0.16677672557E+03  0.29094745674E+03 -0.93730861252E+03  0.10071762442E+04  0.15294330000E+03 0.  0.
<mgrwt>
<rscale>  0 0.62110404E+03</rscale>
<asrwt>0</asrwt>
<pdfrwt beam="1">  1        2 0.17045319E+00 0.73910426E+03</pdfrwt>
<pdfrwt beam="2">  1       -2 0.16020178E+00 0.73910426E+03</pdfrwt>
<totfact> 0.55279874E+00</totfact>
</mgrwt>
</event>
<event>
 4    5  0.1112901E-007  0.1260404E+04  0.7818608E-02  0.9100530E-01
         -2   -1    0    0    0  501 -0.00000000000E+00  0.00000000000E+00  0.73414932142E+03  0.73414932142E+03  0.25500000000E-02 0.  1.
          2   -1    0    0  501    0  0.00000000000E+00 -0.00000000000E+00 -0.30320592423E+04  0.30320592423E+04  0.25500000000E-02 0. -1.
    8880023    1    1    2    0    0 -0.59540520071E+03  0.89459562994E+03 -0.40110661314E+02  0.12610423330E+04  0.65864270000E+03 0.  0.
    8880022    1    1    2    0    0  0.59540520071E+03 -0.89459562994E+03 -0.22577992595E+04  0.25051662307E+04  0.15294330000E+03 0.  0.
<mgrwt>
<rscale>  0 0.12141848E+04</rscale>
<asrwt>0</asrwt>
<pdfrwt beam="1">  1        2 0.46647065E+00 0.12604043E+04</pdfrwt>
<pdfrwt beam="2">  1       -2 0.11294605E+00 0.12604043E+04</pdfrwt>
<totfact> 0.10050777E+00</totfact>
</mgrwt>
</event>
<event>
 4    5  0.1112901E-007  0.7642563E+03  0.7818608E-02  0.9794210E-01
         -2   -1    0    0    0  501 -0.00000000000E+00  0.00000000000E+00  0.57473459694E+03  0.57473459694E+03  0.25500000000E-02 0.  1.
          2   -1    0    0  501    0  0.00000000000E+00 -0.00000000000E+00 -0.13123369627E+04  0.13123369627E+04  0.25500000000E-02 0. -1.
    8880023    1    1    2    0    0  0.36076889324E+03  0.14185665763E+03  0.25891684048E+03  0.80692356651E+03  0.65864270000E+03 0.  0.
    8880022    1    1    2    0    0 -0.36076889324E+03 -0.14185665763E+03 -0.99651920623E+03  0.10801479931E+04  0.15294330000E+03 0. -1.
<mgrwt>
<rscale>  0 0.65674173E+03</rscale>
<asrwt>0</asrwt>
<pdfrwt beam="1">  1        2 0.20189799E+00 0.76425631E+03</pdfrwt>
<pdfrwt beam="2">  1       -2 0.88420707E-01 0.76425631E+03</pdfrwt>
<totfact> 0.18242968E+01</totfact>
</mgrwt>
</event>
<event>
 4    5  0.1112901E-007  0.1055386E+04  0.7818608E-02  0.9312434E-01
          2   -1    0    0  501    0  0.00000000000E+00  0.00000000000E+00  0.95030027084E+03  0.95030027084E+03  0.25500000000E-02 0. -1.
         -2   -1    0    0    0  501 -0.00000000000E+00 -0.00000000000E+00 -0.16535471402E+04  0.16535471402E+04  0.25500000000E-02 0.  1.
    8880023    1    1    2    0    0  0.43442450397E+03  0.70093159420E+03  0.47518629325E+03  0.11574290341E+04  0.65864270000E+03 0.  0.
    8880022    1    1    2    0    0 -0.43442450397E+03 -0.70093159420E+03 -0.11784331626E+04  0.14464183769E+04  0.15294330000E+03 0.  0.
<mgrwt>
<rscale>  0 0.99646143E+03</rscale>
<asrwt>0</asrwt>
<pdfrwt beam="1">  1        2 0.14620004E+00 0.10553862E+04</pdfrwt>
<pdfrwt beam="2">  1       -2 0.25439187E+00 0.10553862E+04</pdfrwt>
<totfact> 0.16235914E+00</totfact>
</mgrwt>
</event>
<event>
 4    5  0.1112901E-007  0.7958585E+03  0.7818608E-02  0.9719823E-01
         -2   -1    0    0    0  501 -0.00000000000E+00  0.00000000000E+00  0.81919913222E+03  0.81919913222E+03  0.25500000000E-02 0.  1.
          2   -1    0    0  501    0  0.00000000000E+00 -0.00000000000E+00 -0.15887142711E+04  0.15887142711E+04  0.25500000000E-02 0. -1.
    8880023    1    1    2    0    0  0.14602957817E+02 -0.44650570723E+03  0.57568419974E+03  0.98224390915E+03  0.65864270000E+03 0.  0.
    8880022    1    1    2    0    0 -0.14602957817E+02  0.44650570723E+03 -0.13451993386E+04  0.14256694942E+04  0.15294330000E+03 0.  0.
<mgrwt>
<rscale>  0 0.69848689E+03</rscale>
<asrwt>0</asrwt>
<pdfrwt beam="1">  1        2 0.24441758E+00 0.79585853E+03</pdfrwt>
<pdfrwt beam="2">  1       -2 0.12603064E+00 0.79585853E+03</pdfrwt>
<totfact> 0.54221661E+00</totfact>
</mgrwt>
</event>
<event>
 4    5  0.1112901E-007  0.9296492E+03  0.7818608E-02  0.9480020E-01
         -2   -1    0    0    0  501 -0.00000000000E+00  0.00000000000E+00  0.67713690239E+03  0.67713690240E+03  0.25500000000E-02 0.  1.
          2   -1    0    0  501    0  0.00000000000E+00 -0.00000000000E+00 -0.16228931940E+04  0.16228931940E+04  0.25500000000E-02 0. -1.
    8880023    1    1    2    0    0  0.48388859626E+03 -0.44304532975E+03  0.21844355813E+03  0.95496865507E+03  0.65864270000E+03 0.  0.
    8880022    1    1    2    0    0 -0.48388859626E+03  0.44304532975E+03 -0.11641998497E+04  0.13450614413E+04  0.15294330000E+03 0.  0.
<mgrwt>
<rscale>  0 0.85773047E+03</rscale>
<asrwt>0</asrwt>
<pdfrwt beam="1">  1        2 0.24967588E+00 0.92964915E+03</pdfrwt>
<pdfrwt beam="2">  1       -2 0.10417491E+00 0.92964915E+03</pdfrwt>
<totfact> 0.81428833E+00</totfact>
</mgrwt>
</event>
<event>
 4    5  0.1112901E-007  0.7594968E+03  0.7818608E-02  0.9806412E-01
         -2   -1    0    0    0  501 -0.00000000000E+00  0.00000000000E+00  0.12586274678E+04  0.12586274678E+04  0.25500000000E-02 0.  1.
          2   -1    0    0  501    0  0.00000000000E+00 -0.00000000000E+00 -0.16994237367E+04  0.16994237367E+04  0.25500000000E-02 0. -1.
    8880023    1    1    2    0    0 -0.40073828637E+02  0.37605760232E+03  0.11153149061E+04  0.13493564311E+04  0.65864270000E+03 0.  1.
    8880022    1    1    2    0    0  0.40073828637E+02 -0.37605760232E+03 -0.15561111750E+04  0.16086947734E+04  0.15294330000E+03 0.  0.
<mgrwt>
<rscale>  0 0.65019578E+03</rscale>
<asrwt>0</asrwt>
<pdfrwt beam="1">  1        2 0.26144980E+00 0.75949683E+03</pdfrwt>
<pdfrwt beam="2">  1       -2 0.19363500E+00 0.75949683E+03</pdfrwt>
<totfact> 0.14868887E+00</totfact>
</mgrwt>
</event>
<event>
 4    5  0.1112901E-007  0.9916785E+03  0.7818608E-02  0.9392527E-01
         -2   -1    0    0    0  501 -0.00000000000E+00  0.00000000000E+00  0.27958198948E+03  0.27958198950E+03  0.25500000000E-02 0.  1.
          2   -1    0    0  501    0  0.00000000000E+00 -0.00000000000E+00 -0.30909200460E+04  0.30909200460E+04  0.25500000000E-02 0. -1.
    8880023    1    1    2    0    0 -0.60276588478E+03  0.43161249192E+03 -0.10046709258E+04  0.14116621163E+04  0.65864270000E+03 0.  1.
    8880022    1    1    2    0    0  0.60276588478E+03 -0.43161249192E+03 -0.18066671307E+04  0.19588399192E+04  0.15294330000E+03 0.  0.
<mgrwt>
<rscale>  0 0.92693276E+03</rscale>
<asrwt>0</asrwt>
<pdfrwt beam="1">  1        2 0.47552614E+00 0.99167851E+03</pdfrwt>
<pdfrwt beam="2">  1       -2 0.43012616E-01 0.99167851E+03</pdfrwt>
<totfact> 0.80238026E+00</totfact>
</mgrwt>
</event>
<event>
 4    5  0.1112901E-007  0.1983940E+04  0.7818608E-02  0.8627080E-01
         -2   -1    0    0    0  501 -0.00000000000E+00  0.00000000000E+00  0.16405014696E+04  0.16405014696E+04  0.25500000000E-02 0.  1.
          2   -1    0    0  501    0  0.00000000000E+00 -0.00000000000E+00 -0.26817762301E+04  0.26817762301E+04  0.25500000000E-02 0. -1.
    8880023    1    1    2    0    0 -0.25729782078E+02  0.18712416519E+04  0.31125070570E+03  0.20082067995E+04  0.65864270000E+03 0.  0.
    8880022    1    1    2    0    0  0.25729782078E+02 -0.18712416519E+04 -0.13525254662E+04  0.23140709002E+04  0.15294330000E+03 0.  0.
<mgrwt>
<rscale>  0 0.19568183E+04</rscale>
<asrwt>0</asrwt>
<pdfrwt beam="1">  1        2 0.41258096E+00 0.19839399E+04</pdfrwt>
<pdfrwt beam="2">  1       -2 0.25238484E+00 0.19839399E+04</pdfrwt>
<totfact> 0.15059196E-01</totfact>
</mgrwt>
</event>
<event>
 4    5  0.1112901E-007  0.6675496E+03  0.7818608E-02  0.1017484E+00
          2   -1    0    0  501    0  0.00000000000E+00  0.00000000000E+00  0.21807148349E+04  0.21807148349E+04  0.25500000000E-02 0. -1.
         -2   -1    0    0    0  501 -0.00000000000E+00 -0.00000000000E+00 -0.23454590874E+03  0.23454590876E+03  0.25500000000E-02 0.  1.
    8880023    1    1    2    0    0 -0.65669992991E+02  0.86600660324E+02  0.25638396465E+03  0.71509101934E+03  0.65864270000E+03 0.  1.
    8880022    1    1    2    0    0  0.65669992991E+02 -0.86600660324E+02  0.16897849615E+04  0.17001697244E+04  0.15294330000E+03 0.  0.
<mgrwt>
<rscale>  0 0.48605616E+03</rscale>
<asrwt>0</asrwt>
<pdfrwt beam="1">  1        2 0.33549458E+00 0.66754957E+03</pdfrwt>
<pdfrwt beam="2">  1       -2 0.36083987E-01 0.66754957E+03</pdfrwt>
<totfact> 0.40032845E+01</totfact>
</mgrwt>
</event>
<event>
 4    5  0.1112901E-007  0.7323383E+03  0.7818608E-02  0.9882855E-01
          2   -1    0    0  501    0  0.00000000000E+00  0.00000000000E+00  0.86521092238E+03  0.86521092238E+03  0.25500000000E-02 0. -1.
         -2   -1    0    0    0  501 -0.00000000000E+00 -0.00000000000E+00 -0.46463792779E+03  0.46463792780E+03  0.25500000000E-02 0.  1.
    8880023    1    1    2    0    0  0.46686982045E+02 -0.31674842315E+03 -0.75359340764E+02  0.73620545663E+03  0.65864270000E+03 0.  1.
    8880022    1    1    2    0    0 -0.46686982045E+02  0.31674842315E+03  0.47593233535E+03  0.59364339356E+03  0.15294330000E+03 0.  0.
<mgrwt>
<rscale>  0 0.61099468E+03</rscale>
<asrwt>0</asrwt>
<pdfrwt beam="1">  1        2 0.13310937E+00 0.73233834E+03</pdfrwt>
<pdfrwt beam="2">  1       -2 0.71482758E-01 0.73233834E+03</pdfrwt>
<totfact> 0.55846261E+01</totfact>
</mgrwt>
</event>
<event>
 4    5  0.1112901E-007  0.1097072E+04  0.7818608E-02  0.9264324E-01
         -2   -1    0    0    0  501 -0.00000000000E+00  0.00000000000E+00  0.33465502541E+03  0.33465502542E+03  0.25500000000E-02 0.  1.
          2   -1    0    0  501    0  0.00000000000E+00 -0.00000000000E+00 -0.34003663182E+04  0.34003663182E+04  0.25500000000E-02 0. -1.
    8880023    1    1    2    0    0  0.15148554763E+03 -0.86418048223E+03 -0.99565686057E+03  0.14815190067E+04  0.65864270000E+03 0.  0.
    8880022    1    1    2    0    0 -0.15148554763E+03  0.86418048223E+03 -0.20700544322E+04  0.22535023369E+04  0.15294330000E+03 0.  0.
<mgrwt>
<rscale>  0 0.10413470E+04</rscale>
<asrwt>0</asrwt>
<pdfrwt beam="1">  1        2 0.52313326E+00 0.10970715E+04</pdfrwt>
<pdfrwt beam="2">  1       -2 0.51485391E-01 0.10970715E+04</pdfrwt>
<totfact> 0.34617688E+00</totfact>
</mgrwt>
</event>
<event>
 4    5  0.1112901E-007  0.7832215E+03  0.7818608E-02  0.9748323E-01
          2   -1    0    0  501    0  0.00000000000E+00  0.00000000000E+00  0.16492834203E+04  0.16492834203E+04  0.25500000000E-02 0. -1.
         -2   -1    0    0    0  501 -0.00000000000E+00 -0.00000000000E+00 -0.45214764004E+03  0.45214764004E+03  0.25500000000E-02 0.  1.
    8880023    1    1    2    0    0 -0.27180744390E+03 -0.32518669325E+03 -0.40560946184E+02  0.78427104285E+03  0.65864270000E+03 0.  1.
    8880022    1    1    2    0    0  0.27180744390E+03  0.32518669325E+03  0.12376967265E+04  0.13171600175E+04  0.15294330000E+03 0.  0.
<mgrwt>
<rscale>  0 0.68211104E+03</rscale>
<asrwt>0</asrwt>
<pdfrwt beam="1">  1        2 0.25373591E+00 0.78322147E+03</pdfrwt>
<pdfrwt beam="2">  1       -2 0.69561175E-01 0.78322147E+03</pdfrwt>
<totfact> 0.20169686E+01</totfact>
</mgrwt>
</event>
<event>
 4    5  0.1112901E-007  0.1167711E+04  0.7818608E-02  0.9189167E-01
          2   -1    0    0  501    0  0.00000000000E+00  0.00000000000E+00  0.39271456862E+04  0.39271456862E+04  0.25500000000E-02 0. -1.
         -2   -1    0    0    0  501 -0.00000000000E+00 -0.00000000000E+00 -0.74571068616E+03  0.74571068616E+03  0.25500000000E-02 0.  1.
    8880023    1    1    2    0    0  0.95957062379E+03 -0.94669569337E+02 -0.17189931460E+03  0.11802955943E+04  0.65864270000E+03 0.  0.
    8880022    1    1    2    0    0 -0.95957062379E+03  0.94669569337E+02  0.33533343146E+04  0.34925607780E+04  0.15294330000E+03 0.  0.
<mgrwt>
<rscale>  0 0.11165944E+04</rscale>
<asrwt>0</asrwt>
<pdfrwt beam="1">  1        2 0.60417628E+00 0.11677107E+04</pdfrwt>
<pdfrwt beam="2">  1       -2 0.11472472E+00 0.11677107E+04</pdfrwt>
<totfact> 0.23557587E-01</totfact>
</mgrwt>
</event>
<event>
 4    5  0.1112901E-007  0.7837375E+03  0.7818608E-02  0.9747130E-01
         -2   -1    0    0    0  501 -0.00000000000E+00  0.00000000000E+00  0.26684069483E+03  0.26684069484E+03  0.25500000000E-02 0.  1.
          2   -1    0    0  501    0  0.00000000000E+00 -0.00000000000E+00 -0.22139661800E+04  0.22139661800E+04  0.25500000000E-02 0. -1.
    8880023    1    1    2    0    0  0.42166973540E+03 -0.51272956251E+02 -0.42172483218E+03  0.88999793378E+03  0.65864270000E+03 0. -1.
    8880022    1    1    2    0    0 -0.42166973540E+03  0.51272956251E+02 -0.15254006530E+04  0.15908089411E+04  0.15294330000E+03 0.  0.
<mgrwt>
<rscale>  0 0.68278725E+03</rscale>
<asrwt>0</asrwt>
<pdfrwt beam="1">  1        2 0.34061017E+00 0.78373751E+03</pdfrwt>
<pdfrwt beam="2">  1       -2 0.41052416E-01 0.78373751E+03</pdfrwt>
<totfact> 0.29423544E+01</totfact>
</mgrwt>
</event>
<event>
 4    5  0.1112901E-007  0.1315338E+04  0.7818608E-02  0.9052426E-01
         -2   -1    0    0    0  501 -0.00000000000E+00  0.00000000000E+00  0.12592936410E+04  0.12592936411E+04  0.25500000000E-02 0.  1.
          2   -1    0    0  501    0  0.00000000000E+00 -0.00000000000E+00 -0.19852788618E+04  0.19852788618E+04  0.25500000000E-02 0. -1.
    8880023    1    1    2    0    0  0.79194703923E+03 -0.81800060159E+03  0.63747687185E+03  0.14616744048E+04  0.65864270000E+03 0.  0.
    8880022    1    1    2    0    0 -0.79194703923E+03  0.81800060159E+03 -0.13634620926E+04  0.17828980981E+04  0.15294330000E+03 0.  0.
<mgrwt>
<rscale>  0 0.12715616E+04</rscale>
<asrwt>0</asrwt>
<pdfrwt beam="1">  1        2 0.30542752E+00 0.13153385E+04</pdfrwt>
<pdfrwt beam="2">  1       -2 0.19373748E+00 0.13153385E+04</pdfrwt>
<totfact> 0.95462919E-01</totfact>
</mgrwt>
</event>
<event>
 4    5  0.1112901E-007  0.1629645E+04  0.7818608E-02  0.8823130E-01
          2   -1    0    0  501    0  0.00000000000E+00  0.00000000000E+00  0.18524667854E+04  0.18524667854E+04  0.25500000000E-02 0. -1.
         -2   -1    0    0    0  501 -0.00000000000E+00 -0.00000000000E+00 -0.21189094117E+04  0.21189094117E+04  0.25500000000E-02 0.  1.
    8880023    1    1    2    0    0 -0.14600982676E+04  0.30007585806E+03 -0.13549146443E+04  0.21193245082E+04  0.65864270000E+03 0.  1.
    8880022    1    1    2    0    0  0.14600982676E+04 -0.30007585806E+03  0.10884720179E+04  0.18520516889E+04  0.15294330000E+03 0.  0.
<mgrwt>
<rscale>  0 0.15958043E+04</rscale>
<asrwt>0</asrwt>
<pdfrwt beam="1">  1        2 0.28499489E+00 0.16296450E+04</pdfrwt>
<pdfrwt beam="2">  1       -2 0.32598606E+00 0.16296450E+04</pdfrwt>
<totfact> 0.16412171E-01</totfact>
</mgrwt>
</event>
<event>
 4    5  0.1112901E-007  0.8613259E+03  0.7818608E-02  0.9591209E-01
         -2   -1    0    0    0  501 -0.00000000000E+00  0.00000000000E+00  0.10488508424E+04  0.10488508424E+04  0.25500000000E-02 0.  1.
          2   -1    0    0  501    0  0.00000000000E+00 -0.00000000000E+00 -0.50526613124E+03  0.50526613125E+03  0.25500000000E-02 0. -1.
    8880023    1    1    2    0    0  0.33671712404E+03 -0.44124102082E+03  0.44677955104E+03  0.97030625762E+03  0.65864270000E+03 0. -1.
    8880022    1    1    2    0    0 -0.33671712404E+03  0.44124102082E+03  0.96805160092E+02  0.58381071600E+03  0.15294330000E+03 0.  1.
<mgrwt>
<rscale>  0 0.77880749E+03</rscale>
<asrwt>0</asrwt>
<pdfrwt beam="1">  1        2 0.77733252E-01 0.86132588E+03</pdfrwt>
<pdfrwt beam="2">  1       -2 0.16136167E+00 0.86132588E+03</pdfrwt>
<totfact> 0.15044257E+01</totfact>
</mgrwt>
</event>
<event>
 4    5  0.1112901E-007  0.8685461E+03  0.7818608E-02  0.9578539E-01
          2   -1    0    0  501    0  0.00000000000E+00  0.00000000000E+00  0.86283303185E+03  0.86283303185E+03  0.25500000000E-02 0. -1.
         -2   -1    0    0    0  501 -0.00000000000E+00 -0.00000000000E+00 -0.12717835662E+04  0.12717835662E+04  0.25500000000E-02 0.  1.
    8880023    1    1    2    0    0  0.52637459671E+03 -0.20854733708E+03 -0.98452760356E+03  0.13128849974E+04  0.65864270000E+03 0.  1.
    8880022    1    1    2    0    0 -0.52637459671E+03  0.20854733708E+03  0.57557706924E+03  0.82173160066E+03  0.15294330000E+03 0.  0.
<mgrwt>
<rscale>  0 0.78733072E+03</rscale>
<asrwt>0</asrwt>
<pdfrwt beam="1">  1        2 0.13274354E+00 0.86854615E+03</pdfrwt>
<pdfrwt beam="2">  1       -2 0.19565901E+00 0.86854615E+03</pdfrwt>
<totfact> 0.44468872E+00</totfact>
</mgrwt>
</event>
<event>
 4    5  0.1112901E-007  0.7981949E+03  0.7818608E-02  0.9714713E-01
          2   -1    0    0  501    0  0.00000000000E+00  0.00000000000E+00  0.12956655407E+04  0.12956655407E+04  0.25500000000E-02 0. -1.
         -2   -1    0    0    0  501 -0.00000000000E+00 -0.00000000000E+00 -0.69074368267E+03  0.69074368267E+03  0.25500000000E-02 0.  1.
    8880023    1    1    2    0    0 -0.43144750686E+03  0.13098821071E+03 -0.38630401127E+03  0.88676144363E+03  0.65864270000E+03 0.  1.
    8880022    1    1    2    0    0  0.43144750686E+03 -0.13098821071E+03  0.99122586933E+03  0.10996477798E+04  0.15294330000E+03 0.  0.
<mgrwt>
<rscale>  0 0.70147518E+03</rscale>
<asrwt>0</asrwt>
<pdfrwt beam="1">  1        2 0.19933316E+00 0.79819488E+03</pdfrwt>
<pdfrwt beam="2">  1       -2 0.10626826E+00 0.79819488E+03</pdfrwt>
<totfact> 0.12054283E+01</totfact>
</mgrwt>
</event>
<event>
 4    5  0.1112901E-007  0.1402956E+04  0.7818608E-02  0.8981389E-01
         -2   -1    0    0    0  501 -0.00000000000E+00  0.00000000000E+00  0.96803926422E+03  0.96803926422E+03  0.25500000000E-02 0.  1.
          2   -1    0    0  501    0  0.00000000000E+00 -0.00000000000E+00 -0.34702058207E+04  0.34702058207E+04  0.25500000000E-02 0. -1.
    8880023    1    1    2    0    0  0.12360628627E+04 -0.81384772007E+02  0.24189546451E+03  0.14236567366E+04  0.65864270000E+03 0.  1.
    8880022    1    1    2    0    0 -0.12360628627E+04  0.81384772007E+02 -0.27440620210E+04  0.30145883483E+04  0.15294330000E+03 0.  0.
<mgrwt>
<rscale>  0 0.13625401E+04</rscale>
<asrwt>0</asrwt>
<pdfrwt beam="1">  1        2 0.53387781E+00 0.14029558E+04</pdfrwt>
<pdfrwt beam="2">  1       -2 0.14892912E+00 0.14029558E+04</pdfrwt>
<totfact> 0.25133883E-01</totfact>
</mgrwt>
</event>
<event>
 4    5  0.1112901E-007  0.1692899E+04  0.7818608E-02  0.8784215E-01
          2   -1    0    0  501    0  0.00000000000E+00  0.00000000000E+00  0.21392481317E+04  0.21392481317E+04  0.25500000000E-02 0. -1.
         -2   -1    0    0    0  501 -0.00000000000E+00 -0.00000000000E+00 -0.14392441119E+04  0.14392441119E+04  0.25500000000E-02 0.  1.
    8880023    1    1    2    0    0 -0.10437838132E+03 -0.15560214132E+04  0.10237809387E+04  0.19783920495E+04  0.65864270000E+03 0.  0.
    8880022    1    1    2    0    0  0.10437838132E+03  0.15560214132E+04 -0.32377691890E+03  0.16001001941E+04  0.15294330000E+03 0.  0.
<mgrwt>
<rscale>  0 0.16605065E+04</rscale>
<asrwt>0</asrwt>
<pdfrwt beam="1">  1        2 0.32911510E+00 0.16928992E+04</pdfrwt>
<pdfrwt beam="2">  1       -2 0.22142217E+00 0.16928992E+04</pdfrwt>
<totfact> 0.49753544E-01</totfact>
</mgrwt>
</event>
<event>
 4    5  0.1112901E-007  0.1198862E+04  0.7818608E-02  0.9158230E-01
         -2   -1    0    0    0  501 -0.00000000000E+00  0.00000000000E+00  0.85266490410E+03  0.85266490410E+03  0.25500000000E-02 0.  1.
          2   -1    0    0  501    0  0.00000000000E+00 -0.00000000000E+00 -0.31476432773E+04  0.31476432773E+04  0.25500000000E-02 0. -1.
    8880023    1    1    2    0    0  0.99139495658E+03 -0.14351115355E+03  0.28171615520E+03  0.12315167922E+04  0.65864270000E+03 0.  0.
    8880022    1    1    2    0    0 -0.99139495658E+03  0.14351115355E+03 -0.25766945284E+04  0.27687913892E+04  0.15294330000E+03 0.  0.
<mgrwt>
<rscale>  0 0.11495167E+04</rscale>
<asrwt>0</asrwt>
<pdfrwt beam="1">  1        2 0.48425281E+00 0.11988618E+04</pdfrwt>
<pdfrwt beam="2">  1       -2 0.13117922E+00 0.11988618E+04</pdfrwt>
<totfact> 0.58897822E-01</totfact>
</mgrwt>
</event>
<event>
 4    5  0.1112901E-007  0.9728878E+03  0.7818608E-02  0.9417921E-01
          2   -1    0    0  501    0  0.00000000000E+00  0.00000000000E+00  0.24568148089E+04  0.24568148089E+04  0.25500000000E-02 0. -1.
         -2   -1    0    0    0  501 -0.00000000000E+00 -0.00000000000E+00 -0.59727873449E+03  0.59727873449E+03  0.25500000000E-02 0.  1.
    8880023    1    1    2    0    0 -0.50297238292E+03  0.50962655122E+03 -0.84692248251E+02  0.97656716249E+03  0.65864270000E+03 0.  1.
    8880022    1    1    2    0    0  0.50297238292E+03 -0.50962655122E+03  0.19442283226E+04  0.20775263809E+04  0.15294330000E+03 0.  0.
<mgrwt>
<rscale>  0 0.90615395E+03</rscale>
<asrwt>0</asrwt>
<pdfrwt beam="1">  1        2 0.37797151E+00 0.97288779E+03</pdfrwt>
<pdfrwt beam="2">  1       -2 0.91889036E-01 0.97288779E+03</pdfrwt>
<totfact> 0.37592326E+00</totfact>
</mgrwt>
</event>
<event>
 4    5  0.1112901E-007  0.9148907E+03  0.7818608E-02  0.9502538E-01
         -2   -1    0    0    0  501 -0.00000000000E+00  0.00000000000E+00  0.43962248559E+03  0.43962248560E+03  0.25500000000E-02 0.  1.
          2   -1    0    0  501    0  0.00000000000E+00 -0.00000000000E+00 -0.23347784659E+04  0.23347784659E+04  0.25500000000E-02 0. -1.
    8880023    1    1    2    0    0 -0.63359897005E+03 -0.42036760220E+02 -0.17107678875E+03  0.93074820332E+03  0.65864270000E+03 0.  1.
    8880022    1    1    2    0    0  0.63359897005E+03  0.42036760220E+02 -0.17240791915E+04  0.18436527481E+04  0.15294330000E+03 0.  0.
<mgrwt>
<rscale>  0 0.84096965E+03</rscale>
<asrwt>0</asrwt>
<pdfrwt beam="1">  1        2 0.35919668E+00 0.91489068E+03</pdfrwt>
<pdfrwt beam="2">  1       -2 0.67634230E-01 0.91489068E+03</pdfrwt>
<totfact> 0.88451452E+00</totfact>
</mgrwt>
</event>
<event>
 4    5  0.1112901E-007  0.9982503E+03  0.7818608E-02  0.9383850E-01
         -2   -1    0    0    0  501 -0.00000000000E+00  0.00000000000E+00  0.42824307937E+03  0.42824307938E+03  0.25500000000E-02 0.  1.
          2   -1    0    0  501    0  0.00000000000E+00 -0.00000000000E+00 -0.22144207745E+04  0.22144207745E+04  0.25500000000E-02 0. -1.
    8880023    1    1    2    0    0 -0.42631210639E+03  0.61721265199E+03 -0.43337497814E+03  0.10882635470E+04  0.65864270000E+03 0.  0.
    8880022    1    1    2    0    0  0.42631210639E+03 -0.61721265199E+03 -0.13528027169E+04  0.15544003068E+04  0.15294330000E+03 0.  0.
<mgrwt>
<rscale>  0 0.93416733E+03</rscale>
<asrwt>0</asrwt>
<pdfrwt beam="1">  1        2 0.34068011E+00 0.99825031E+03</pdfrwt>
<pdfrwt beam="2">  1       -2 0.65883552E-01 0.99825031E+03</pdfrwt>
<totfact> 0.10817883E+01</totfact>
</mgrwt>
</event>
<event>
 4    5  0.1112901E-007  0.9062367E+03  0.7818608E-02  0.9516093E-01
          2   -1    0    0  501    0  0.00000000000E+00  0.00000000000E+00  0.15473265906E+04  0.15473265906E+04  0.25500000000E-02 0. -1.
         -2   -1    0    0    0  501 -0.00000000000E+00 -0.00000000000E+00 -0.11406629100E+04  0.11406629100E+04  0.25500000000E-02 0.  1.
    8880023    1    1    2    0    0  0.21846065229E+03  0.58286328170E+03 -0.87201836162E+03  0.12576489538E+04  0.65864270000E+03 0.  0.
    8880022    1    1    2    0    0 -0.21846065229E+03 -0.58286328170E+03  0.12786820423E+04  0.14303405468E+04  0.15294330000E+03 0.  0.
<mgrwt>
<rscale>  0 0.83107677E+03</rscale>
<asrwt>0</asrwt>
<pdfrwt beam="1">  1        2 0.23805024E+00 0.90623665E+03</pdfrwt>
<pdfrwt beam="2">  1       -2 0.17548660E+00 0.90623665E+03</pdfrwt>
<totfact> 0.23396968E+00</totfact>
</mgrwt>
</event>
<event>
 4    5  0.1112901E-007  0.7064908E+03  0.7818608E-02  0.9971270E-01
         -2   -1    0    0    0  501 -0.00000000000E+00  0.00000000000E+00  0.10019025236E+04  0.10019025237E+04  0.25500000000E-02 0.  1.
          2   -1    0    0  501    0  0.00000000000E+00 -0.00000000000E+00 -0.98060242875E+03  0.98060242875E+03  0.25500000000E-02 0. -1.
    8880023    1    1    2    0    0 -0.13532589708E+03 -0.21680860440E+03  0.84803040290E+03  0.11037594121E+04  0.65864270000E+03 0.  0.
    8880022    1    1    2    0    0  0.13532589708E+03  0.21680860440E+03 -0.82673030800E+03  0.87874554027E+03  0.15294330000E+03 0.  0.
<mgrwt>
<rscale>  0 0.56928128E+03</rscale>
<asrwt>0</asrwt>
<pdfrwt beam="1">  1        2 0.15086191E+00 0.70649082E+03</pdfrwt>
<pdfrwt beam="2">  1       -2 0.15413885E+00 0.70649082E+03</pdfrwt>
<totfact> 0.73999215E+00</totfact>
</mgrwt>
</event>
<event>
 4    5  0.1112901E-007  0.1161058E+04  0.7818608E-02  0.9195939E-01
         -2   -1    0    0    0  501 -0.00000000000E+00  0.00000000000E+00  0.96303437991E+03  0.96303437991E+03  0.25500000000E-02 0.  1.
          2   -1    0    0  501    0  0.00000000000E+00 -0.00000000000E+00 -0.25883148741E+04  0.25883148741E+04  0.25500000000E-02 0. -1.
    8880023    1    1    2    0    0  0.85089100519E+03  0.43615340029E+03  0.46262503998E+03  0.12498309586E+04  0.65864270000E+03 0.  0.
    8880022    1    1    2    0    0 -0.85089100519E+03 -0.43615340029E+03 -0.20879055342E+04  0.23015182954E+04  0.15294330000E+03 0.  0.
<mgrwt>
<rscale>  0 0.11095446E+04</rscale>
<asrwt>0</asrwt>
<pdfrwt beam="1">  1        2 0.39820229E+00 0.11610579E+04</pdfrwt>
<pdfrwt beam="2">  1       -2 0.14815914E+00 0.11610579E+04</pdfrwt>
<totfact> 0.94190549E-01</totfact>
</mgrwt>
</event>
<event>
 4    5  0.1112901E-007  0.1043136E+04  0.7818608E-02  0.9327178E-01
          2   -1    0    0  501    0  0.00000000000E+00  0.00000000000E+00  0.12457480281E+04  0.12457480281E+04  0.25500000000E-02 0. -1.
         -2   -1    0    0    0  501 -0.00000000000E+00 -0.00000000000E+00 -0.91048863143E+03  0.91048863143E+03  0.25500000000E-02 0.  1.
    8880023    1    1    2    0    0  0.22045184839E+03  0.77828292199E+03  0.69956533415E+03  0.12559956955E+04  0.65864270000E+03 0.  0.
    8880022    1    1    2    0    0 -0.22045184839E+03 -0.77828292199E+03 -0.36430593752E+03  0.90024096399E+03  0.15294330000E+03 0.  0.
<mgrwt>
<rscale>  0 0.98318831E+03</rscale>
<asrwt>0</asrwt>
<pdfrwt beam="1">  1        2 0.19165354E+00 0.10431364E+04</pdfrwt>
<pdfrwt beam="2">  1       -2 0.14007517E+00 0.10431364E+04</pdfrwt>
<totfact> 0.63009785E+00</totfact>
</mgrwt>
</event>
<event>
 4    5  0.1112901E-007  0.7020543E+03  0.7818608E-02  0.9988783E-01
         -2   -1    0    0    0  501 -0.00000000000E+00  0.00000000000E+00  0.32192747676E+03  0.32192747677E+03  0.25500000000E-02 0.  1.
          2   -1    0    0  501    0  0.00000000000E+00 -0.00000000000E+00 -0.21106841357E+04  0.21106841357E+04  0.25500000000E-02 0. -1.
    8880023    1    1    2    0    0 -0.53272660078E+02  0.23713308628E+03 -0.87727829235E+02  0.70751427915E+03  0.65864270000E+03 0.  0.
    8880022    1    1    2    0    0  0.53272660078E+02 -0.23713308628E+03 -0.17010288297E+04  0.17250973333E+04  0.15294330000E+03 0. -1.
<mgrwt>
<rscale>  0 0.56144808E+03</rscale>
<asrwt>0</asrwt>
<pdfrwt beam="1">  1        2 0.32472063E+00 0.70205433E+03</pdfrwt>
<pdfrwt beam="2">  1       -2 0.49527305E-01 0.70205433E+03</pdfrwt>
<totfact> 0.23324784E+01</totfact>
</mgrwt>
</event>
<event>
 4    5  0.1112901E-007  0.7232240E+03  0.7818608E-02  0.9911824E-01
         -2   -1    0    0    0  501 -0.00000000000E+00  0.00000000000E+00  0.24744516604E+03  0.24744516605E+03  0.25500000000E-02 0.  1.
          2   -1    0    0  501    0  0.00000000000E+00 -0.00000000000E+00 -0.16552139415E+04  0.16552139415E+04  0.25500000000E-02 0. -1.
    8880023    1    1    2    0    0  0.13474244928E+03 -0.26662185354E+03 -0.37081297666E+03  0.81274547697E+03  0.65864270000E+03 0.  0.
    8880022    1    1    2    0    0 -0.13474244928E+03  0.26662185354E+03 -0.10369557988E+04  0.10899136306E+04  0.15294330000E+03 0.  0.
<mgrwt>
<rscale>  0 0.59691638E+03</rscale>
<asrwt>0</asrwt>
<pdfrwt beam="1">  1        2 0.25464829E+00 0.72322399E+03</pdfrwt>
<pdfrwt beam="2">  1       -2 0.38068488E-01 0.72322399E+03</pdfrwt>
<totfact> 0.69369910E+01</totfact>
</mgrwt>
</event>
<event>
 4    5  0.1112901E-007  0.8056336E+03  0.7818608E-02  0.9698745E-01
         -2   -1    0    0    0  501 -0.00000000000E+00  0.00000000000E+00  0.31425564693E+03  0.31425564694E+03  0.25500000000E-02 0.  1.
          2   -1    0    0  501    0  0.00000000000E+00 -0.00000000000E+00 -0.17499056086E+04  0.17499056086E+04  0.25500000000E-02 0. -1.
    8880023    1    1    2    0    0  0.18154206517E+03  0.42694002223E+03 -0.35925219421E+03  0.88210410345E+03  0.65864270000E+03 0.  1.
    8880022    1    1    2    0    0 -0.18154206517E+03 -0.42694002223E+03 -0.10763977675E+04  0.11820571521E+04  0.15294330000E+03 0.  0.
<mgrwt>
<rscale>  0 0.71091572E+03</rscale>
<asrwt>0</asrwt>
<pdfrwt beam="1">  1        2 0.26921624E+00 0.80563361E+03</pdfrwt>
<pdfrwt beam="2">  1       -2 0.48347024E-01 0.80563361E+03</pdfrwt>
<totfact> 0.38039291E+01</totfact>
</mgrwt>
</event>
<event>
 4    5  0.1112901E-007  0.1266971E+04  0.7818608E-02  0.9094620E-01
          2   -1    0    0  501    0  0.00000000000E+00  0.00000000000E+00  0.24606866432E+04  0.24606866432E+04  0.25500000000E-02 0. -1.
         -2   -1    0    0    0  501 -0.00000000000E+00 -0.00000000000E+00 -0.91947339687E+03  0.91947339687E+03  0.25500000000E-02 0.  1.
    8880023    1    1    2    0    0 -0.85065223860E+03  0.66917622075E+03 -0.24076713381E+03  0.12896453251E+04  0.65864270000E+03 0.  0.
    8880022    1    1    2    0    0  0.85065223860E+03 -0.66917622075E+03  0.17819803801E+04  0.20905147150E+04  0.15294330000E+03 0.  0.
<mgrwt>
<rscale>  0 0.12210596E+04</rscale>
<asrwt>0</asrwt>
<pdfrwt beam="1">  1        2 0.37856718E+00 0.12669713E+04</pdfrwt>
<pdfrwt beam="2">  1       -2 0.14145745E+00 0.12669713E+04</pdfrwt>
<totfact> 0.12440295E+00</totfact>
</mgrwt>
</event>
<event>
 4    5  0.1112901E-007  0.9339424E+03  0.7818608E-02  0.9473604E-01
          2   -1    0    0  501    0  0.00000000000E+00  0.00000000000E+00  0.83746025407E+03  0.83746025408E+03  0.25500000000E-02 0. -1.
         -2   -1    0    0    0  501 -0.00000000000E+00 -0.00000000000E+00 -0.14041688497E+04  0.14041688497E+04  0.25500000000E-02 0.  1.
    8880023    1    1    2    0    0 -0.28963054866E+03 -0.59544295529E+03  0.43570050845E+03  0.10305742608E+04  0.65864270000E+03 0.  0.
    8880022    1    1    2    0    0  0.28963054866E+03  0.59544295529E+03 -0.10024091040E+04  0.12110548429E+04  0.15294330000E+03 0.  1.
<mgrwt>
<rscale>  0 0.86258184E+03</rscale>
<asrwt>0</asrwt>
<pdfrwt beam="1">  1        2 0.12884004E+00 0.93394238E+03</pdfrwt>
<pdfrwt beam="2">  1       -2 0.21602598E+00 0.93394238E+03</pdfrwt>
<totfact> 0.33967278E+00</totfact>
</mgrwt>
</event>
<event>
 4    5  0.1112901E-007  0.1295711E+04  0.7818608E-02  0.9069272E-01
          2   -1    0    0  501    0  0.00000000000E+00  0.00000000000E+00  0.19774135406E+04  0.19774135406E+04  0.25500000000E-02 0. -1.
         -2   -1    0    0    0  501 -0.00000000000E+00 -0.00000000000E+00 -0.91019104694E+03  0.91019104694E+03  0.25500000000E-02 0.  1.
    8880023    1    1    2    0    0  0.96668580044E+03  0.55729365279E+03 -0.56082412940E+02  0.12969244756E+04  0.65864270000E+03 0.  0.
    8880022    1    1    2    0    0 -0.96668580044E+03 -0.55729365279E+03  0.11233049066E+04  0.15906801119E+04  0.15294330000E+03 0.  0.
<mgrwt>
<rscale>  0 0.12510951E+04</rscale>
<asrwt>0</asrwt>
<pdfrwt beam="1">  1        2 0.30421747E+00 0.12957113E+04</pdfrwt>
<pdfrwt beam="2">  1       -2 0.14002939E+00 0.12957113E+04</pdfrwt>
<totfact> 0.23806305E+00</totfact>
</mgrwt>
</event>
<event>
 4    5  0.1112901E-007  0.8401074E+03  0.7818608E-02  0.9629978E-01
          2   -1    0    0  501    0  0.00000000000E+00  0.00000000000E+00  0.46720800385E+03  0.46720800385E+03  0.25500000000E-02 0. -1.
         -2   -1    0    0    0  501 -0.00000000000E+00 -0.00000000000E+00 -0.10434731328E+04  0.10434731328E+04  0.25500000000E-02 0.  1.
    8880023    1    1    2    0    0  0.73486239062E+02  0.51630415071E+03 -0.44875885462E+03  0.95245205613E+03  0.65864270000E+03 0.  0.
    8880022    1    1    2    0    0 -0.73486239062E+02 -0.51630415071E+03 -0.12750627438E+03  0.55822908057E+03  0.15294330000E+03 0.  0.
<mgrwt>
<rscale>  0 0.75343432E+03</rscale>
<asrwt>0</asrwt>
<pdfrwt beam="1">  1        2 0.71878155E-01 0.84010738E+03</pdfrwt>
<pdfrwt beam="2">  1       -2 0.16053433E+00 0.84010738E+03</pdfrwt>
<totfact> 0.16735865E+01</totfact>
</mgrwt>
</event>
<event>
 4    5  0.1112901E-007  0.1083612E+04  0.7818608E-02  0.9279525E-01
         -2   -1    0    0    0  501 -0.00000000000E+00  0.00000000000E+00  0.70989721559E+03  0.70989721559E+03  0.25500000000E-02 0.  1.
          2   -1    0    0  501    0  0.00000000000E+00 -0.00000000000E+00 -0.17546107689E+04  0.17546107689E+04  0.25500000000E-02 0. -1.
    8880023    1    1    2    0    0 -0.78979009453E+03  0.34152210778E+03  0.24087571609E+02  0.10838801414E+04  0.65864270000E+03 0.  0.
    8880022    1    1    2    0    0  0.78979009453E+03 -0.34152210778E+03 -0.10688011249E+04  0.13806278431E+04  0.15294330000E+03 0.  0.
<mgrwt>
<rscale>  0 0.10268991E+04</rscale>
<asrwt>0</asrwt>
<pdfrwt beam="1">  1        2 0.26994012E+00 0.10836125E+04</pdfrwt>
<pdfrwt beam="2">  1       -2 0.10921496E+00 0.10836125E+04</pdfrwt>
<totfact> 0.60393284E+00</totfact>
</mgrwt>
</event>
<event>
 4    5  0.1112901E-007  0.1125805E+04  0.7818608E-02  0.9232855E-01
         -2   -1    0    0    0  501 -0.00000000000E+00  0.00000000000E+00  0.82677646341E+03  0.82677646341E+03  0.25500000000E-02 0.  1.
          2   -1    0    0  501    0  0.00000000000E+00 -0.00000000000E+00 -0.15376798615E+04  0.15376798615E+04  0.25500000000E-02 0. -1.
    8880023    1    1    2    0    0  0.67546610386E+03 -0.61430634844E+03  0.10470990527E+03  0.11306640163E+04  0.65864270000E+03 0.  1.
    8880022    1    1    2    0    0 -0.67546610386E+03  0.61430634844E+03 -0.81561330339E+03  0.12337923086E+04  0.15294330000E+03 0.  0.
<mgrwt>
<rscale>  0 0.10720651E+04</rscale>
<asrwt>0</asrwt>
<pdfrwt beam="1">  1        2 0.23656613E+00 0.11258050E+04</pdfrwt>
<pdfrwt beam="2">  1       -2 0.12719638E+00 0.11258050E+04</pdfrwt>
<totfact> 0.54417657E+00</totfact>
</mgrwt>
</event>
<event>
 4    5  0.1112901E-007  0.6635670E+03  0.7818608E-02  0.1020767E+00
          2   -1    0    0  501    0  0.00000000000E+00  0.00000000000E+00  0.68576458732E+03  0.68576458732E+03  0.25500000000E-02 0. -1.
         -2   -1    0    0    0  501 -0.00000000000E+00 -0.00000000000E+00 -0.13450448824E+04  0.13450448824E+04  0.25500000000E-02 0.  1.
    8880023    1    1    2    0    0 -0.31597762917E+02 -0.74246328839E+02 -0.12500482899E+04  0.14152532881E+04  0.65864270000E+03 0.  1.
    8880022    1    1    2    0    0  0.31597762917E+02  0.74246328839E+02  0.59076799487E+03  0.61555618163E+03  0.15294330000E+03 0.  0.
<mgrwt>
<rscale>  0 0.47410788E+03</rscale>
<asrwt>0</asrwt>
<pdfrwt beam="1">  1        2 0.10550224E+00 0.66356698E+03</pdfrwt>
<pdfrwt beam="2">  1       -2 0.20692998E+00 0.66356698E+03</pdfrwt>
<totfact> 0.52124038E+00</totfact>
</mgrwt>
</event>
<event>
 4    5  0.1112901E-007  0.9062885E+03  0.7818608E-02  0.9516011E-01
          2   -1    0    0  501    0  0.00000000000E+00  0.00000000000E+00  0.23582235533E+04  0.23582235533E+04  0.25500000000E-02 0. -1.
         -2   -1    0    0    0  501 -0.00000000000E+00 -0.00000000000E+00 -0.49145217250E+03  0.49145217251E+03  0.25500000000E-02 0.  1.
    8880023    1    1    2    0    0  0.42665386248E+03  0.45333784324E+03  0.32783986680E+02  0.90688131226E+03  0.65864270000E+03 0.  1.
    8880022    1    1    2    0    0 -0.42665386248E+03 -0.45333784324E+03  0.18339873941E+04  0.19427944135E+04  0.15294330000E+03 0.  0.
<mgrwt>
<rscale>  0 0.83113624E+03</rscale>
<asrwt>0</asrwt>
<pdfrwt beam="1">  1        2 0.36280363E+00 0.90628854E+03</pdfrwt>
<pdfrwt beam="2">  1       -2 0.75608026E-01 0.90628854E+03</pdfrwt>
<totfact> 0.67235078E+00</totfact>
</mgrwt>
</event>
<event>
 4    5  0.1112901E-007  0.1005006E+04  0.7818608E-02  0.9375038E-01
          2   -1    0    0  501    0  0.00000000000E+00  0.00000000000E+00  0.27415406001E+04  0.27415406001E+04  0.25500000000E-02 0. -1.
         -2   -1    0    0    0  501 -0.00000000000E+00 -0.00000000000E+00 -0.76369928127E+03  0.76369928128E+03  0.25500000000E-02 0.  1.
    8880023    1    1    2    0    0 -0.24836414641E+03 -0.71731552871E+03 -0.34040249376E+03  0.10610892427E+04  0.65864270000E+03 0.  1.
    8880022    1    1    2    0    0  0.24836414641E+03  0.71731552871E+03  0.23182438126E+04  0.24441506387E+04  0.15294330000E+03 0.  0.
<mgrwt>
<rscale>  0 0.94158761E+03</rscale>
<asrwt>0</asrwt>
<pdfrwt beam="1">  1        2 0.42177547E+00 0.10050057E+04</pdfrwt>
<pdfrwt beam="2">  1       -2 0.11749220E+00 0.10050057E+04</pdfrwt>
<totfact> 0.14191553E+00</totfact>
</mgrwt>
</event>
<event>
 4    5  0.1112901E-007  0.1022304E+04  0.7818608E-02  0.9352941E-01
          2   -1    0    0  501    0  0.00000000000E+00  0.00000000000E+00  0.35752044217E+04  0.35752044217E+04  0.25500000000E-02 0. -1.
         -2   -1    0    0    0  501 -0.00000000000E+00 -0.00000000000E+00 -0.40446507559E+03  0.40446507560E+03  0.25500000000E-02 0.  1.
    8880023    1    1    2    0    0 -0.15572434023E+03 -0.76618910068E+03  0.40185061284E+03  0.10984488743E+04  0.65864270000E+03 0.  1.
    8880022    1    1    2    0    0  0.15572434023E+03  0.76618910068E+03  0.27688887333E+04  0.28812206230E+04  0.15294330000E+03 0.  0.
<mgrwt>
<rscale>  0 0.96051714E+03</rscale>
<asrwt>0</asrwt>
<pdfrwt beam="1">  1        2 0.55003141E+00 0.10223043E+04</pdfrwt>
<pdfrwt beam="2">  1       -2 0.62225400E-01 0.10223043E+04</pdfrwt>
<totfact> 0.17846387E+00</totfact>
</mgrwt>
</event>
<event>
 4    5  0.1112901E-007  0.1211970E+04  0.7818608E-02  0.9145574E-01
         -2   -1    0    0    0  501 -0.00000000000E+00  0.00000000000E+00  0.15583029664E+04  0.15583029664E+04  0.25500000000E-02 0.  1.
          2   -1    0    0  501    0  0.00000000000E+00 -0.00000000000E+00 -0.18702217086E+04  0.18702217086E+04  0.25500000000E-02 0. -1.
    8880023    1    1    2    0    0  0.37061723684E+03 -0.94747193026E+03  0.11301110135E+04  0.16571123390E+04  0.65864270000E+03 0.  0.
    8880022    1    1    2    0    0 -0.37061723684E+03  0.94747193026E+03 -0.14420297557E+04  0.17714123360E+04  0.15294330000E+03 0.  0.
<mgrwt>
<rscale>  0 0.11633294E+04</rscale>
<asrwt>0</asrwt>
<pdfrwt beam="1">  1        2 0.28772642E+00 0.12119696E+04</pdfrwt>
<pdfrwt beam="2">  1       -2 0.23973892E+00 0.12119696E+04</pdfrwt>
<totfact> 0.56903009E-01</totfact>
</mgrwt>
</event>
<event>
 4    5  0.1112901E-007  0.9805782E+03  0.7818608E-02  0.9407420E-01
          2   -1    0    0  501    0  0.00000000000E+00  0.00000000000E+00  0.28692058644E+04  0.28692058644E+04  0.25500000000E-02 0. -1.
         -2   -1    0    0    0  501 -0.00000000000E+00 -0.00000000000E+00 -0.31329751740E+03  0.31329751741E+03  0.25500000000E-02 0.  1.
    8880023    1    1    2    0    0 -0.35415452203E+03  0.63426960212E+03  0.76454954199E+03  0.12434104560E+04  0.65864270000E+03 0.  0.
    8880022    1    1    2    0    0  0.35415452203E+03 -0.63426960212E+03  0.17913588050E+04  0.19390929258E+04  0.15294330000E+03 0.  0.
<mgrwt>
<rscale>  0 0.91467529E+03</rscale>
<asrwt>0</asrwt>
<pdfrwt beam="1">  1        2 0.44141630E+00 0.98057818E+03</pdfrwt>
<pdfrwt beam="2">  1       -2 0.48199617E-01 0.98057818E+03</pdfrwt>
<totfact> 0.87509506E+00</totfact>
</mgrwt>
</event>
<event>
 4    5  0.1112901E-007  0.1049651E+04  0.7818608E-02  0.9319301E-01
          2   -1    0    0  501    0  0.00000000000E+00  0.00000000000E+00  0.10269312695E+04  0.10269312695E+04  0.25500000000E-02 0. -1.
         -2   -1    0    0    0  501 -0.00000000000E+00 -0.00000000000E+00 -0.12964025997E+04  0.12964025997E+04  0.25500000000E-02 0.  1.
    8880023    1    1    2    0    0 -0.78277307654E+03 -0.23499610796E+03 -0.81497233118E+03  0.13288893735E+04  0.65864270000E+03 0.  1.
    8880022    1    1    2    0    0  0.78277307654E+03  0.23499610796E+03  0.54550100092E+03  0.99444449575E+03  0.15294330000E+03 0.  0.
<mgrwt>
<rscale>  0 0.99025216E+03</rscale>
<asrwt>0</asrwt>
<pdfrwt beam="1">  1        2 0.15798943E+00 0.10496509E+04</pdfrwt>
<pdfrwt beam="2">  1       -2 0.19944656E+00 0.10496509E+04</pdfrwt>
<totfact> 0.32039617E+00</totfact>
</mgrwt>
</event>
<event>
 4    5  0.1112901E-007  0.6743437E+03  0.7818608E-02  0.1012723E+00
          2   -1    0    0  501    0  0.00000000000E+00  0.00000000000E+00  0.25602813626E+04  0.25602813626E+04  0.25500000000E-02 0. -1.
         -2   -1    0    0    0  501 -0.00000000000E+00 -0.00000000000E+00 -0.70944664926E+03  0.70944664927E+03  0.25500000000E-02 0.  1.
    8880023    1    1    2    0    0  0.13860081647E+03  0.41461444162E+02 -0.54353345315E+03  0.86612242705E+03  0.65864270000E+03 0.  1.
    8880022    1    1    2    0    0 -0.13860081647E+03 -0.41461444162E+02  0.23943681665E+04  0.24036055848E+04  0.15294330000E+03 0.  0.
<mgrwt>
<rscale>  0 0.50406558E+03</rscale>
<asrwt>0</asrwt>
<pdfrwt beam="1">  1        2 0.39388944E+00 0.67434371E+03</pdfrwt>
<pdfrwt beam="2">  1       -2 0.10914564E+00 0.67434371E+03</pdfrwt>
<totfact> 0.22986934E+00</totfact>
</mgrwt>
</event>
<event>
 4    5  0.1112901E-007  0.1181490E+04  0.7818608E-02  0.9175329E-01
          2   -1    0    0  501    0  0.00000000000E+00  0.00000000000E+00  0.24054280785E+04  0.24054280785E+04  0.25500000000E-02 0. -1.
         -2   -1    0    0    0  501 -0.00000000000E+00 -0.00000000000E+00 -0.71270938614E+03  0.71270938614E+03  0.25500000000E-02 0.  1.
    8880023    1    1    2    0    0  0.41801358558E+03 -0.88734013123E+03  0.30311044316E+02  0.11818785182E+04  0.65864270000E+03 0.  0.
    8880022    1    1    2    0    0 -0.41801358558E+03  0.88734013123E+03  0.16624076480E+04  0.19362589464E+04  0.15294330000E+03 0.  0.
<mgrwt>
<rscale>  0 0.11311743E+04</rscale>
<asrwt>0</asrwt>
<pdfrwt beam="1">  1        2 0.37006586E+00 0.11814898E+04</pdfrwt>
<pdfrwt beam="2">  1       -2 0.10964760E+00 0.11814898E+04</pdfrwt>
<totfact> 0.25694601E+00</totfact>
</mgrwt>
</event>
<event>
 4    5  0.1112901E-007  0.7688329E+03  0.7818608E-02  0.9782754E-01
         -2   -1    0    0    0  501 -0.00000000000E+00  0.00000000000E+00  0.90649477771E+03  0.90649477772E+03  0.25500000000E-02 0.  1.
          2   -1    0    0  501    0  0.00000000000E+00 -0.00000000000E+00 -0.68538422899E+03  0.68538422900E+03  0.25500000000E-02 0. -1.
    8880023    1    1    2    0    0 -0.39301839692E+03 -0.53201078256E+02  0.63607183175E+03  0.99784337271E+03  0.65864270000E+03 0.  1.
    8880022    1    1    2    0    0  0.39301839692E+03  0.53201078256E+02 -0.41496128303E+03  0.59403563401E+03  0.15294330000E+03 0.  0.
<mgrwt>
<rscale>  0 0.66296312E+03</rscale>
<asrwt>0</asrwt>
<pdfrwt beam="1">  1        2 0.10544373E+00 0.76883290E+03</pdfrwt>
<pdfrwt beam="2">  1       -2 0.13946073E+00 0.76883290E+03</pdfrwt>
<totfact> 0.15458291E+01</totfact>
</mgrwt>
</event>
<event>
 4    5  0.1112901E-007  0.7069481E+03  0.7818608E-02  0.9969513E-01
         -2   -1    0    0    0  501 -0.00000000000E+00  0.00000000000E+00  0.69370500127E+03  0.69370500127E+03  0.25500000000E-02 0.  1.
          2   -1    0    0  501    0  0.00000000000E+00 -0.00000000000E+00 -0.82463127023E+03  0.82463127023E+03  0.25500000000E-02 0. -1.
    8880023    1    1    2    0    0 -0.24742666979E+03  0.68887753271E+02  0.46878466154E+03  0.84825393877E+03  0.65864270000E+03 0.  1.
    8880022    1    1    2    0    0  0.24742666979E+03 -0.68887753271E+02 -0.59971093050E+03  0.67008233274E+03  0.15294330000E+03 0.  0.
<mgrwt>
<rscale>  0 0.57007477E+03</rscale>
<asrwt>0</asrwt>
<pdfrwt beam="1">  1        2 0.12686635E+00 0.70694815E+03</pdfrwt>
<pdfrwt beam="2">  1       -2 0.10672385E+00 0.70694815E+03</pdfrwt>
<totfact> 0.23818412E+01</totfact>
</mgrwt>
</event>
<event>
 4    5  0.1112901E-007  0.8580607E+03  0.7818608E-02  0.9597022E-01
          2   -1    0    0  501    0  0.00000000000E+00  0.00000000000E+00  0.91771460601E+03  0.91771460602E+03  0.25500000000E-02 0. -1.
         -2   -1    0    0    0  501 -0.00000000000E+00 -0.00000000000E+00 -0.93477699264E+03  0.93477699264E+03  0.25500000000E-02 0.  1.
    8880023    1    1    2    0    0  0.49076821425E+03 -0.24820255735E+03 -0.59187491080E+03  0.10423934314E+04  0.65864270000E+03 0.  0.
    8880022    1    1    2    0    0 -0.49076821425E+03  0.24820255735E+03  0.57481252417E+03  0.81009816723E+03  0.15294330000E+03 0.  0.
<mgrwt>
<rscale>  0 0.77493568E+03</rscale>
<asrwt>0</asrwt>
<pdfrwt beam="1">  1        2 0.14118686E+00 0.85806069E+03</pdfrwt>
<pdfrwt beam="2">  1       -2 0.14381185E+00 0.85806069E+03</pdfrwt>
<totfact> 0.95994742E+00</totfact>
</mgrwt>
</event>
<event>
 4    5  0.1112901E-007  0.7760761E+03  0.7818608E-02  0.9765136E-01
         -2   -1    0    0    0  501 -0.00000000000E+00  0.00000000000E+00  0.21239013175E+03  0.21239013176E+03  0.25500000000E-02 0.  1.
          2   -1    0    0  501    0  0.00000000000E+00 -0.00000000000E+00 -0.20103544149E+04  0.20103544149E+04  0.25500000000E-02 0. -1.
    8880023    1    1    2    0    0  0.36167985694E+03 -0.19409167985E+03 -0.71776709203E+03  0.10571110177E+04  0.65864270000E+03 0.  1.
    8880022    1    1    2    0    0 -0.36167985694E+03  0.19409167985E+03 -0.10801971912E+04  0.11656335290E+04  0.15294330000E+03 0.  0.
<mgrwt>
<rscale>  0 0.67267562E+03</rscale>
<asrwt>0</asrwt>
<pdfrwt beam="1">  1        2 0.30928528E+00 0.77607610E+03</pdfrwt>
<pdfrwt beam="2">  1       -2 0.32675406E-01 0.77607610E+03</pdfrwt>
<totfact> 0.59066853E+01</totfact>
</mgrwt>
</event>
<event>
 4    5  0.1112901E-007  0.1443892E+04  0.7818608E-02  0.8950307E-01
         -2   -1    0    0    0  501 -0.00000000000E+00  0.00000000000E+00  0.78474816512E+03  0.78474816512E+03  0.25500000000E-02 0.  1.
          2   -1    0    0  501    0  0.00000000000E+00 -0.00000000000E+00 -0.33635797627E+04  0.33635797627E+04  0.25500000000E-02 0. -1.
    8880023    1    1    2    0    0 -0.25043338556E+03  0.12602766672E+04 -0.22368814339E+03  0.14611162686E+04  0.65864270000E+03 0.  0.
    8880022    1    1    2    0    0  0.25043338556E+03 -0.12602766672E+04 -0.23551434542E+04  0.26872116592E+04  0.15294330000E+03 0.  0.
<mgrwt>
<rscale>  0 0.14048619E+04</rscale>
<asrwt>0</asrwt>
<pdfrwt beam="1">  1        2 0.51747380E+00 0.14438921E+04</pdfrwt>
<pdfrwt beam="2">  1       -2 0.12073049E+00 0.14438921E+04</pdfrwt>
<totfact> 0.50824292E-01</totfact>
</mgrwt>
</event>
<event>
 4    5  0.1112901E-007  0.7438380E+03  0.7818608E-02  0.9848905E-01
          2   -1    0    0  501    0  0.00000000000E+00  0.00000000000E+00  0.48435935980E+03  0.48435935981E+03  0.25500000000E-02 0. -1.
         -2   -1    0    0    0  501 -0.00000000000E+00 -0.00000000000E+00 -0.87053849558E+03  0.87053849558E+03  0.25500000000E-02 0.  1.
    8880023    1    1    2    0    0 -0.34419403419E+03 -0.31861592482E+02 -0.56756356718E+03  0.93564058447E+03  0.65864270000E+03 0.  1.
    8880022    1    1    2    0    0  0.34419403419E+03  0.31861592482E+02  0.18138443141E+03  0.41925727092E+03  0.15294330000E+03 0.  0.
<mgrwt>
<rscale>  0 0.62802769E+03</rscale>
<asrwt>0</asrwt>
<pdfrwt beam="1">  1        2 0.74516825E-01 0.74383795E+03</pdfrwt>
<pdfrwt beam="2">  1       -2 0.13392900E+00 0.74383795E+03</pdfrwt>
<totfact> 0.26063033E+01</totfact>
</mgrwt>
</event>
<event>
 4    5  0.1112901E-007  0.9730533E+03  0.7818608E-02  0.9417694E-01
         -2   -1    0    0    0  501 -0.00000000000E+00  0.00000000000E+00  0.81393550825E+03  0.81393550825E+03  0.25500000000E-02 0.  1.
          2   -1    0    0  501    0  0.00000000000E+00 -0.00000000000E+00 -0.98162163885E+03  0.98162163885E+03  0.25500000000E-02 0. -1.
    8880023    1    1    2    0    0  0.30528039582E+03  0.64794009730E+03  0.17212998814E+03  0.98816062907E+03  0.65864270000E+03 0.  0.
    8880022    1    1    2    0    0 -0.30528039582E+03 -0.64794009730E+03 -0.33981611874E+03  0.80739651803E+03  0.15294330000E+03 0.  0.
<mgrwt>
<rscale>  0 0.90633759E+03</rscale>
<asrwt>0</asrwt>
<pdfrwt beam="1">  1        2 0.15101871E+00 0.97305329E+03</pdfrwt>
<pdfrwt beam="2">  1       -2 0.12522085E+00 0.97305329E+03</pdfrwt>
<totfact> 0.12291001E+01</totfact>
</mgrwt>
</event>
<event>
 4    5  0.1112901E-007  0.7602858E+03  0.7818608E-02  0.9804368E-01
          2   -1    0    0  501    0  0.00000000000E+00  0.00000000000E+00  0.24576436040E+04  0.24576436040E+04  0.25500000000E-02 0. -1.
         -2   -1    0    0    0  501 -0.00000000000E+00 -0.00000000000E+00 -0.66864886331E+03  0.66864886332E+03  0.25500000000E-02 0.  1.
    8880023    1    1    2    0    0  0.82572369415E+02  0.37068321468E+03 -0.42754794743E+03  0.87225666833E+03  0.65864270000E+03 0.  0.
    8880022    1    1    2    0    0 -0.82572369415E+02 -0.37068321468E+03  0.22165426881E+04  0.22540357989E+04  0.15294330000E+03 0.  0.
<mgrwt>
<rscale>  0 0.65128645E+03</rscale>
<asrwt>0</asrwt>
<pdfrwt beam="1">  1        2 0.37809901E+00 0.76028577E+03</pdfrwt>
<pdfrwt beam="2">  1       -2 0.10286906E+00 0.76028577E+03</pdfrwt>
<totfact> 0.29777889E+00</totfact>
</mgrwt>
</event>
<event>
 4    5  0.1112901E-007  0.9730933E+03  0.7818608E-02  0.9417639E-01
         -2   -1    0    0    0  501 -0.00000000000E+00  0.00000000000E+00  0.49290208909E+03  0.49290208910E+03  0.25500000000E-02 0.  1.
          2   -1    0    0  501    0  0.00000000000E+00 -0.00000000000E+00 -0.23656059709E+04  0.23656059709E+04  0.25500000000E-02 0. -1.
    8880023    1    1    2    0    0  0.34924865568E+03  0.62540051589E+03 -0.14743860860E+03  0.98419956225E+03  0.65864270000E+03 0.  1.
    8880022    1    1    2    0    0 -0.34924865568E+03 -0.62540051589E+03 -0.17252652732E+04  0.18743084977E+04  0.15294330000E+03 0.  0.
<mgrwt>
<rscale>  0 0.90638203E+03</rscale>
<asrwt>0</asrwt>
<pdfrwt beam="1">  1        2 0.36393937E+00 0.97309333E+03</pdfrwt>
<pdfrwt beam="2">  1       -2 0.75831092E-01 0.97309333E+03</pdfrwt>
<totfact> 0.65571657E+00</totfact>
</mgrwt>
</event>
<event>
 4    5  0.1112901E-007  0.1559321E+04  0.7818608E-02  0.8868844E-01
          2   -1    0    0  501    0  0.00000000000E+00  0.00000000000E+00  0.11175576336E+04  0.11175576336E+04  0.25500000000E-02 0. -1.
         -2   -1    0    0    0  501 -0.00000000000E+00 -0.00000000000E+00 -0.20513051945E+04  0.20513051945E+04  0.25500000000E-02 0.  1.
    8880023    1    1    2    0    0  0.13995859219E+04  0.19705788755E+03 -0.76615750555E+03  0.17373773607E+04  0.65864270000E+03 0.  0.
    8880022    1    1    2    0    0 -0.13995859219E+04 -0.19705788755E+03 -0.16759005541E+03  0.14314854674E+04  0.15294330000E+03 0.  0.
<mgrwt>
<rscale>  0 0.15236991E+04</rscale>
<asrwt>0</asrwt>
<pdfrwt beam="1">  1        2 0.17193194E+00 0.15593213E+04</pdfrwt>
<pdfrwt beam="2">  1       -2 0.31558541E+00 0.15593213E+04</pdfrwt>
<totfact> 0.50967520E-01</totfact>
</mgrwt>
</event>
<event>
 4    5  0.1112901E-007  0.8715833E+03  0.7818608E-02  0.9573282E-01
          2   -1    0    0  501    0  0.00000000000E+00  0.00000000000E+00  0.16608385650E+04  0.16608385650E+04  0.25500000000E-02 0. -1.
         -2   -1    0    0    0  501 -0.00000000000E+00 -0.00000000000E+00 -0.40367095272E+03  0.40367095273E+03  0.25500000000E-02 0.  1.
    8880023    1    1    2    0    0  0.55268193973E+03  0.14279320830E+03  0.26729460569E+03  0.91164896717E+03  0.65864270000E+03 0.  0.
    8880022    1    1    2    0    0 -0.55268193973E+03 -0.14279320830E+03  0.98987300656E+03  0.11528605505E+04  0.15294330000E+03 0.  0.
<mgrwt>
<rscale>  0 0.79090076E+03</rscale>
<asrwt>0</asrwt>
<pdfrwt beam="1">  1        2 0.25551363E+00 0.87158329E+03</pdfrwt>
<pdfrwt beam="2">  1       -2 0.62103223E-01 0.87158329E+03</pdfrwt>
<totfact> 0.25129869E+01</totfact>
</mgrwt>
</event>
<event>
 4    5  0.1112901E-007  0.7553455E+03  0.7818608E-02  0.9817310E-01
         -2   -1    0    0    0  501 -0.00000000000E+00  0.00000000000E+00  0.91978150854E+03  0.91978150854E+03  0.25500000000E-02 0.  1.
          2   -1    0    0  501    0  0.00000000000E+00 -0.00000000000E+00 -0.78576780622E+03  0.78576780622E+03  0.25500000000E-02 0. -1.
    8880023    1    1    2    0    0  0.34981094238E+03 -0.11987038870E+03  0.68829936445E+03  0.10219113596E+04  0.65864270000E+03 0.  1.
    8880022    1    1    2    0    0 -0.34981094238E+03  0.11987038870E+03 -0.55428566213E+03  0.68363795517E+03  0.15294330000E+03 0.  0.
<mgrwt>
<rscale>  0 0.64441810E+03</rscale>
<asrwt>0</asrwt>
<pdfrwt beam="1">  1        2 0.12088736E+00 0.75534549E+03</pdfrwt>
<pdfrwt beam="2">  1       -2 0.14150485E+00 0.75534549E+03</pdfrwt>
<totfact> 0.12505842E+01</totfact>
</mgrwt>
</event>
<event>
 4    5  0.1112901E-007  0.6717453E+03  0.7818608E-02  0.1014441E+00
         -2   -1    0    0    0  501 -0.00000000000E+00  0.00000000000E+00  0.69891575422E+03  0.69891575422E+03  0.25500000000E-02 0.  1.
          2   -1    0    0  501    0  0.00000000000E+00 -0.00000000000E+00 -0.94871726502E+03  0.94871726502E+03  0.25500000000E-02 0. -1.
    8880023    1    1    2    0    0 -0.49651514360E+02 -0.12233670737E+03  0.52143211952E+03  0.85037239159E+03  0.65864270000E+03 0.  0.
    8880022    1    1    2    0    0  0.49651514360E+02  0.12233670737E+03 -0.77123363032E+03  0.79726062765E+03  0.15294330000E+03 0. -1.
<mgrwt>
<rscale>  0 0.49746995E+03</rscale>
<asrwt>0</asrwt>
<pdfrwt beam="1">  1        2 0.14595650E+00 0.67174530E+03</pdfrwt>
<pdfrwt beam="2">  1       -2 0.10752550E+00 0.67174530E+03</pdfrwt>
<totfact> 0.19351657E+01</totfact>
</mgrwt>
</event>
<event>
 4    5  0.1112901E-007  0.1122719E+04  0.7818608E-02  0.9236174E-01
          2   -1    0    0  501    0  0.00000000000E+00  0.00000000000E+00  0.19804123964E+04  0.19804123964E+04  0.25500000000E-02 0. -1.
         -2   -1    0    0    0  501 -0.00000000000E+00 -0.00000000000E+00 -0.13493594199E+04  0.13493594199E+04  0.25500000000E-02 0.  1.
    8880023    1    1    2    0    0 -0.67790382117E+03  0.60591542401E+03 -0.96901907071E+03  0.14830695390E+04  0.65864270000E+03 0.  1.
    8880022    1    1    2    0    0  0.67790382117E+03 -0.60591542401E+03  0.16000720472E+04  0.18467022773E+04  0.15294330000E+03 0.  0.
<mgrwt>
<rscale>  0 0.10687733E+04</rscale>
<asrwt>0</asrwt>
<pdfrwt beam="1">  1        2 0.30467883E+00 0.11227187E+04</pdfrwt>
<pdfrwt beam="2">  1       -2 0.20759376E+00 0.11227187E+04</pdfrwt>
<totfact> 0.79780506E-01</totfact>
</mgrwt>
</event>
<event>
 4    5  0.1112901E-007  0.6785405E+03  0.7818608E-02  0.1010162E+00
          2   -1    0    0  501    0  0.00000000000E+00  0.00000000000E+00  0.87442531153E+03  0.87442531154E+03  0.25500000000E-02 0. -1.
         -2   -1    0    0    0  501 -0.00000000000E+00 -0.00000000000E+00 -0.34643935540E+03  0.34643935541E+03  0.25500000000E-02 0.  1.
    8880023    1    1    2    0    0 -0.11964355135E+03  0.11087130042E+03  0.34888179852E+02  0.67943683738E+03  0.65864270000E+03 0.  1.
    8880022    1    1    2    0    0  0.11964355135E+03 -0.11087130042E+03  0.49309777628E+03  0.54142782956E+03  0.15294330000E+03 0.  0.
<mgrwt>
<rscale>  0 0.51410479E+03</rscale>
<asrwt>0</asrwt>
<pdfrwt beam="1">  1        2 0.13452697E+00 0.67854052E+03</pdfrwt>
<pdfrwt beam="2">  1       -2 0.53298363E-01 0.67854052E+03</pdfrwt>
<totfact> 0.10310288E+02</totfact>
</mgrwt>
</event>
<event>
 4    5  0.1112901E-007  0.6757004E+03  0.7818608E-02  0.1011868E+00
         -2   -1    0    0    0  501 -0.00000000000E+00  0.00000000000E+00  0.69510101371E+03  0.69510101371E+03  0.25500000000E-02 0.  1.
          2   -1    0    0  501    0  0.00000000000E+00 -0.00000000000E+00 -0.16180599287E+04  0.16180599287E+04  0.25500000000E-02 0. -1.
    8880023    1    1    2    0    0  0.48324719248E+02  0.14291773901E+03  0.52104508251E+03  0.85326370067E+03  0.65864270000E+03 0.  1.
    8880022    1    1    2    0    0 -0.48324719248E+02 -0.14291773901E+03 -0.14440039975E+04  0.14598972417E+04  0.15294330000E+03 0.  0.
<mgrwt>
<rscale>  0 0.50738767E+03</rscale>
<asrwt>0</asrwt>
<pdfrwt beam="1">  1        2 0.24893229E+00 0.67570035E+03</pdfrwt>
<pdfrwt beam="2">  1       -2 0.10693862E+00 0.67570035E+03</pdfrwt>
<totfact> 0.79620890E+00</totfact>
</mgrwt>
</event>
<event>
 4    5  0.1112901E-007  0.9149338E+03  0.7818608E-02  0.9502471E-01
          2   -1    0    0  501    0  0.00000000000E+00  0.00000000000E+00  0.25383205906E+04  0.25383205906E+04  0.25500000000E-02 0. -1.
         -2   -1    0    0    0  501 -0.00000000000E+00 -0.00000000000E+00 -0.49813979679E+03  0.49813979679E+03  0.25500000000E-02 0.  1.
    8880023    1    1    2    0    0  0.19602258866E+03  0.60404373743E+03  0.21996479357E+02  0.91519819895E+03  0.65864270000E+03 0.  0.
    8880022    1    1    2    0    0 -0.19602258866E+03 -0.60404373743E+03  0.20181843145E+04  0.21212621885E+04  0.15294330000E+03 0.  0.
<mgrwt>
<rscale>  0 0.84101885E+03</rscale>
<asrwt>0</asrwt>
<pdfrwt beam="1">  1        2 0.39051086E+00 0.91493382E+03</pdfrwt>
<pdfrwt beam="2">  1       -2 0.76636892E-01 0.91493382E+03</pdfrwt>
<totfact> 0.51503678E+00</totfact>
</mgrwt>
</event>
<event>
 4    5  0.1112901E-007  0.8395911E+03  0.7818608E-02  0.9630952E-01
         -2   -1    0    0    0  501 -0.00000000000E+00  0.00000000000E+00  0.50061112856E+03  0.50061112857E+03  0.25500000000E-02 0.  1.
          2   -1    0    0  501    0  0.00000000000E+00 -0.00000000000E+00 -0.23360669638E+04  0.23360669638E+04  0.25500000000E-02 0. -1.
    8880023    1    1    2    0    0  0.48409751728E+03 -0.19170979055E+03  0.82304186766E+02  0.84361557327E+03  0.65864270000E+03 0.  0.
    8880022    1    1    2    0    0 -0.48409751728E+03  0.19170979055E+03 -0.19177600220E+04  0.19930625191E+04  0.15294330000E+03 0.  0.
<mgrwt>
<rscale>  0 0.75281032E+03</rscale>
<asrwt>0</asrwt>
<pdfrwt beam="1">  1        2 0.35939491E+00 0.83959112E+03</pdfrwt>
<pdfrwt beam="2">  1       -2 0.77017098E-01 0.83959112E+03</pdfrwt>
<totfact> 0.67036309E+00</totfact>
</mgrwt>
</event>
<event>
 4    5  0.1112901E-007  0.7022271E+03  0.7818608E-02  0.9988085E-01
         -2   -1    0    0    0  501 -0.00000000000E+00  0.00000000000E+00  0.10784517028E+04  0.10784517028E+04  0.25500000000E-02 0.  1.
          2   -1    0    0  501    0  0.00000000000E+00 -0.00000000000E+00 -0.83701725637E+03  0.83701725637E+03  0.25500000000E-02 0. -1.
    8880023    1    1    2    0    0 -0.23971786026E+03 -0.42988549285E+02  0.93227623259E+03  0.11671597354E+04  0.65864270000E+03 0.  1.
    8880022    1    1    2    0    0  0.23971786026E+03  0.42988549285E+02 -0.69084178613E+03  0.74830922377E+03  0.15294330000E+03 0.  0.
<mgrwt>
<rscale>  0 0.56175792E+03</rscale>
<asrwt>0</asrwt>
<pdfrwt beam="1">  1        2 0.12877189E+00 0.70222708E+03</pdfrwt>
<pdfrwt beam="2">  1       -2 0.16591565E+00 0.70222708E+03</pdfrwt>
<totfact> 0.75679109E+00</totfact>
</mgrwt>
</event>
<event>
 4    5  0.1112901E-007  0.7276511E+03  0.7818608E-02  0.9897499E-01
         -2   -1    0    0    0  501 -0.00000000000E+00  0.00000000000E+00  0.37294392371E+03  0.37294392372E+03  0.25500000000E-02 0.  1.
          2   -1    0    0  501    0  0.00000000000E+00 -0.00000000000E+00 -0.13737047612E+04  0.13737047612E+04  0.25500000000E-02 0. -1.
    8880023    1    1    2    0    0 -0.27836820962E+03 -0.13482240475E+03 -0.43330330169E+02  0.72894009680E+03  0.65864270000E+03 0.  1.
    8880022    1    1    2    0    0  0.27836820962E+03  0.13482240475E+03 -0.95743050730E+03  0.10177085881E+04  0.15294330000E+03 0.  0.
<mgrwt>
<rscale>  0 0.60382632E+03</rscale>
<asrwt>0</asrwt>
<pdfrwt beam="1">  1        2 0.21133919E+00 0.72765112E+03</pdfrwt>
<pdfrwt beam="2">  1       -2 0.57375989E-01 0.72765112E+03</pdfrwt>
<totfact> 0.43609313E+01</totfact>
</mgrwt>
</event>
<event>
 4    5  0.1112901E-007  0.6970856E+03  0.7818608E-02  0.1000951E+00
          2   -1    0    0  501    0  0.00000000000E+00  0.00000000000E+00  0.15507688343E+04  0.15507688343E+04  0.25500000000E-02 0. -1.
         -2   -1    0    0    0  501 -0.00000000000E+00 -0.00000000000E+00 -0.29038527143E+03  0.29038527144E+03  0.25500000000E-02 0.  1.
    8880023    1    1    2    0    0  0.17637972041E+03 -0.14494253674E+03  0.17114379371E+03  0.71778725896E+03  0.65864270000E+03 0.  1.
    8880022    1    1    2    0    0 -0.17637972041E+03  0.14494253674E+03  0.10892397692E+04  0.11233668468E+04  0.15294330000E+03 0.  0.
<mgrwt>
<rscale>  0 0.55235082E+03</rscale>
<asrwt>0</asrwt>
<pdfrwt beam="1">  1        2 0.23857983E+00 0.69708561E+03</pdfrwt>
<pdfrwt beam="2">  1       -2 0.44674656E-01 0.69708561E+03</pdfrwt>
<totfact> 0.58031113E+01</totfact>
</mgrwt>
</event>
<event>
 4    5  0.1232891E-007  0.1448555E+04  0.7818608E-02  0.8946844E-01
         -2   -1    0    0    0  501 -0.00000000000E+00  0.00000000000E+00  0.22114680955E+04  0.22114680955E+04  0.25500000000E-02 0.  1.
          2   -1    0    0  501    0  0.00000000000E+00 -0.00000000000E+00 -0.18912543662E+04  0.18912543662E+04  0.25500000000E-02 0. -1.
    8880023    1    1    2    0    0  0.82091841655E+03  0.99528644479E+03  0.16825567938E+04  0.22202048835E+04  0.65864270000E+03 0.  0.
    8880022    1    1    2    0    0 -0.82091841655E+03 -0.99528644479E+03 -0.13623430645E+04  0.18825175782E+04  0.15294330000E+03 0.  0.
<mgrwt>
<rscale>  0 0.14096764E+04</rscale>
<asrwt>0</asrwt>
<pdfrwt beam="1">  1        2 0.29096221E+00 0.14485553E+04</pdfrwt>
<pdfrwt beam="2">  1       -2 0.34022586E+00 0.14485553E+04</pdfrwt>
<totfact> 0.13014194E-01</totfact>
</mgrwt>
</event>
<event>
 4    5  0.1112901E-007  0.7291554E+03  0.7818608E-02  0.9892743E-01
          2   -1    0    0  501    0  0.00000000000E+00  0.00000000000E+00  0.23296193986E+04  0.23296193986E+04  0.25500000000E-02 0. -1.
         -2   -1    0    0    0  501 -0.00000000000E+00 -0.00000000000E+00 -0.22919105227E+03  0.22919105228E+03  0.25500000000E-02 0.  1.
    8880023    1    1    2    0    0 -0.24573534544E+03  0.19357545934E+03  0.41747110554E+03  0.84020809844E+03  0.65864270000E+03 0.  1.
    8880022    1    1    2    0    0  0.24573534544E+03 -0.19357545934E+03  0.16829572408E+04  0.17186023524E+04  0.15294330000E+03 0.  0.
<mgrwt>
<rscale>  0 0.60614260E+03</rscale>
<asrwt>0</asrwt>
<pdfrwt beam="1">  1        2 0.35840299E+00 0.72915535E+03</pdfrwt>
<pdfrwt beam="2">  1       -2 0.35260161E-01 0.72915535E+03</pdfrwt>
<totfact> 0.34312957E+01</totfact>
</mgrwt>
</event>
<event>
 4    5  0.1112901E-007  0.1085221E+04  0.7818608E-02  0.9277691E-01
          2   -1    0    0  501    0  0.00000000000E+00  0.00000000000E+00  0.25377577185E+04  0.25377577185E+04  0.25500000000E-02 0. -1.
         -2   -1    0    0    0  501 -0.00000000000E+00 -0.00000000000E+00 -0.61476833757E+03  0.61476833757E+03  0.25500000000E-02 0.  1.
    8880023    1    1    2    0    0  0.22267423045E+03  0.83325361981E+03  0.51798729082E+02  0.10864569584E+04  0.65864270000E+03 0.  0.
    8880022    1    1    2    0    0 -0.22267423045E+03 -0.83325361981E+03  0.18711906518E+04  0.20660690977E+04  0.15294330000E+03 0.  0.
<mgrwt>
<rscale>  0 0.10286284E+04</rscale>
<asrwt>0</asrwt>
<pdfrwt beam="1">  1        2 0.39042426E+00 0.10852215E+04</pdfrwt>
<pdfrwt beam="2">  1       -2 0.94579745E-01 0.10852215E+04</pdfrwt>
<totfact> 0.31114881E+00</totfact>
</mgrwt>
</event>
<event>
 4    5  0.1112901E-007  0.1727841E+04  0.7818608E-02  0.8763538E-01
          2   -1    0    0  501    0  0.00000000000E+00  0.00000000000E+00  0.35607397494E+04  0.35607397494E+04  0.25500000000E-02 0. -1.
         -2   -1    0    0    0  501 -0.00000000000E+00 -0.00000000000E+00 -0.79844441538E+03  0.79844441538E+03  0.25500000000E-02 0.  1.
    8880023    1    1    2    0    0 -0.97033555907E+03 -0.12688869006E+04  0.10975734950E+04  0.20469740709E+04  0.65864270000E+03 0.  0.
    8880022    1    1    2    0    0  0.97033555907E+03  0.12688869006E+04  0.16647218390E+04  0.23122100938E+04  0.15294330000E+03 0.  0.
<mgrwt>
<rscale>  0 0.16961934E+04</rscale>
<asrwt>0</asrwt>
<pdfrwt beam="1">  1        2 0.54780613E+00 0.17278412E+04</pdfrwt>
<pdfrwt beam="2">  1       -2 0.12283760E+00 0.17278412E+04</pdfrwt>
<totfact> 0.34455829E-01</totfact>
</mgrwt>
</event>
<event>
 4    5  0.1112901E-007  0.1375854E+04  0.7818608E-02  0.9002675E-01
         -2   -1    0    0    0  501 -0.00000000000E+00  0.00000000000E+00  0.13319075885E+04  0.13319075885E+04  0.25500000000E-02 0.  1.
          2   -1    0    0  501    0  0.00000000000E+00 -0.00000000000E+00 -0.20594371294E+04  0.20594371294E+04  0.25500000000E-02 0. -1.
    8880023    1    1    2    0    0 -0.11970973901E+04 -0.16162617046E+03  0.67626085617E+03  0.15330701655E+04  0.65864270000E+03 0.  0.
    8880022    1    1    2    0    0  0.11970973901E+04  0.16162617046E+03 -0.14037903970E+04  0.18582745524E+04  0.15294330000E+03 0.  0.
<mgrwt>
<rscale>  0 0.13344607E+04</rscale>
<asrwt>0</asrwt>
<pdfrwt beam="1">  1        2 0.31683648E+00 0.13758544E+04</pdfrwt>
<pdfrwt beam="2">  1       -2 0.20490886E+00 0.13758544E+04</pdfrwt>
<totfact> 0.72763590E-01</totfact>
</mgrwt>
</event>
<event>
 4    5  0.1112901E-007  0.1053487E+04  0.7818608E-02  0.9314701E-01
         -2   -1    0    0    0  501 -0.00000000000E+00  0.00000000000E+00  0.83992360001E+03  0.83992360001E+03  0.25500000000E-02 0.  1.
          2   -1    0    0  501    0  0.00000000000E+00 -0.00000000000E+00 -0.39455883224E+04  0.39455883224E+04  0.25500000000E-02 0. -1.
    8880023    1    1    2    0    0  0.48150374304E+03 -0.66646747283E+03  0.44064135176E+03  0.11419280862E+04  0.65864270000E+03 0.  0.
    8880022    1    1    2    0    0 -0.48150374304E+03  0.66646747283E+03 -0.35463060741E+04  0.36435838362E+04  0.15294330000E+03 0.  0.
<mgrwt>
<rscale>  0 0.99440632E+03</rscale>
<asrwt>0</asrwt>
<pdfrwt beam="1">  1        2 0.60701357E+00 0.10534870E+04</pdfrwt>
<pdfrwt beam="2">  1       -2 0.12921902E+00 0.10534870E+04</pdfrwt>
<totfact> 0.17276885E-01</totfact>
</mgrwt>
</event>
<event>
 4    5  0.1112901E-007  0.8412804E+03  0.7818608E-02  0.9627771E-01
          2   -1    0    0  501    0  0.00000000000E+00  0.00000000000E+00  0.31872457982E+04  0.31872457982E+04  0.25500000000E-02 0. -1.
         -2   -1    0    0    0  501 -0.00000000000E+00 -0.00000000000E+00 -0.96810651382E+03  0.96810651383E+03  0.25500000000E-02 0.  1.
    8880023    1    1    2    0    0 -0.34641334941E+03  0.39235228011E+03 -0.75575756606E+03  0.11308944360E+04  0.65864270000E+03 0.  0.
    8880022    1    1    2    0    0  0.34641334941E+03 -0.39235228011E+03  0.29748968504E+04  0.30244578761E+04  0.15294330000E+03 0.  0.
<mgrwt>
<rscale>  0 0.75485091E+03</rscale>
<asrwt>0</asrwt>
<pdfrwt beam="1">  1        2 0.49034550E+00 0.84128041E+03</pdfrwt>
<pdfrwt beam="2">  1       -2 0.14893947E+00 0.84128041E+03</pdfrwt>
<totfact> 0.42556133E-01</totfact>
</mgrwt>
</event>
<event>
 4    5  0.1112901E-007  0.9498028E+03  0.7818608E-02  0.9450398E-01
          2   -1    0    0  501    0  0.00000000000E+00  0.00000000000E+00  0.12527684154E+04  0.12527684154E+04  0.25500000000E-02 0. -1.
         -2   -1    0    0    0  501 -0.00000000000E+00 -0.00000000000E+00 -0.13410952386E+04  0.13410952386E+04  0.25500000000E-02 0.  1.
    8880023    1    1    2    0    0 -0.30783681518E+03  0.61118871533E+03 -0.10421396307E+04  0.14100284985E+04  0.65864270000E+03 0.  1.
    8880022    1    1    2    0    0  0.30783681518E+03 -0.61118871533E+03  0.95381280751E+03  0.11838351555E+04  0.15294330000E+03 0.  0.
<mgrwt>
<rscale>  0 0.88041688E+03</rscale>
<asrwt>0</asrwt>
<pdfrwt beam="1">  1        2 0.19273360E+00 0.94980280E+03</pdfrwt>
<pdfrwt beam="2">  1       -2 0.20632235E+00 0.94980280E+03</pdfrwt>
<totfact> 0.21294283E+00</totfact>
</mgrwt>
</event>
<event>
 4    5  0.1112901E-007  0.7734192E+03  0.7818608E-02  0.9771529E-01
          2   -1    0    0  501    0  0.00000000000E+00  0.00000000000E+00  0.21042496398E+04  0.21042496398E+04  0.25500000000E-02 0. -1.
         -2   -1    0    0    0  501 -0.00000000000E+00 -0.00000000000E+00 -0.67067816727E+03  0.67067816728E+03  0.25500000000E-02 0.  1.
    8880023    1    1    2    0    0 -0.18223805995E+03 -0.36215509957E+03 -0.41397990739E+03  0.87724374984E+03  0.65864270000E+03 0.  1.
    8880022    1    1    2    0    0  0.18223805995E+03  0.36215509957E+03  0.18475513800E+04  0.18976840573E+04  0.15294330000E+03 0.  0.
<mgrwt>
<rscale>  0 0.66913109E+03</rscale>
<asrwt>0</asrwt>
<pdfrwt beam="1">  1        2 0.32373072E+00 0.77341918E+03</pdfrwt>
<pdfrwt beam="2">  1       -2 0.10318126E+00 0.77341918E+03</pdfrwt>
<totfact> 0.46351980E+00</totfact>
</mgrwt>
</event>
<event>
 4    5  0.1112901E-007  0.1108229E+04  0.7818608E-02  0.9251949E-01
         -2   -1    0    0    0  501 -0.00000000000E+00  0.00000000000E+00  0.11164006758E+04  0.11164006758E+04  0.25500000000E-02 0.  1.
          2   -1    0    0  501    0  0.00000000000E+00 -0.00000000000E+00 -0.29076876009E+04  0.29076876009E+04  0.25500000000E-02 0. -1.
    8880023    1    1    2    0    0 -0.68515255502E+03  0.57002477670E+03  0.74236363911E+03  0.13338951415E+04  0.65864270000E+03 0.  0.
    8880022    1    1    2    0    0  0.68515255502E+03 -0.57002477670E+03 -0.25336505642E+04  0.26901931351E+04  0.15294330000E+03 0.  0.
<mgrwt>
<rscale>  0 0.10532952E+04</rscale>
<asrwt>0</asrwt>
<pdfrwt beam="1">  1        2 0.44733655E+00 0.11082294E+04</pdfrwt>
<pdfrwt beam="2">  1       -2 0.17175395E+00 0.11082294E+04</pdfrwt>
<totfact> 0.40993097E-01</totfact>
</mgrwt>
</event>
<event>
 4    5  0.1112901E-007  0.7853383E+03  0.7818608E-02  0.9743443E-01
          2   -1    0    0  501    0  0.00000000000E+00  0.00000000000E+00  0.69674439867E+03  0.69674439867E+03  0.25500000000E-02 0. -1.
         -2   -1    0    0    0  501 -0.00000000000E+00 -0.00000000000E+00 -0.14241949044E+04  0.14241949044E+04  0.25500000000E-02 0.  1.
    8880023    1    1    2    0    0  0.42579374141E+03 -0.40568153876E+02 -0.12199947542E+04  0.14509112626E+04  0.65864270000E+03 0.  0.
    8880022    1    1    2    0    0 -0.42579374141E+03  0.40568153876E+02  0.49254424847E+03  0.67002804049E+03  0.15294330000E+03 0.  0.
<mgrwt>
<rscale>  0 0.68488070E+03</rscale>
<asrwt>0</asrwt>
<pdfrwt beam="1">  1        2 0.10719145E+00 0.78533833E+03</pdfrwt>
<pdfrwt beam="2">  1       -2 0.21910691E+00 0.78533833E+03</pdfrwt>
<totfact> 0.42075703E+00</totfact>
</mgrwt>
</event>
<event>
 4    5  0.1112901E-007  0.1190487E+04  0.7818608E-02  0.9166426E-01
          2   -1    0    0  501    0  0.00000000000E+00  0.00000000000E+00  0.28401022077E+04  0.28401022077E+04  0.25500000000E-02 0. -1.
         -2   -1    0    0    0  501 -0.00000000000E+00 -0.00000000000E+00 -0.62935660943E+03  0.62935660943E+03  0.25500000000E-02 0.  1.
    8880023    1    1    2    0    0 -0.48732474852E+03 -0.86369141305E+03  0.17956987208E+03  0.12039534097E+04  0.65864270000E+03 0.  1.
    8880022    1    1    2    0    0  0.48732474852E+03  0.86369141305E+03  0.20311757262E+04  0.22655054074E+04  0.15294330000E+03 0.  0.
<mgrwt>
<rscale>  0 0.11406790E+04</rscale>
<asrwt>0</asrwt>
<pdfrwt beam="1">  1        2 0.43693880E+00 0.11904867E+04</pdfrwt>
<pdfrwt beam="2">  1       -2 0.96824095E-01 0.11904867E+04</pdfrwt>
<totfact> 0.19284909E+00</totfact>
</mgrwt>
</event>
<event>
 4    5  0.1112901E-007  0.1605695E+04  0.7818608E-02  0.8838395E-01
         -2   -1    0    0    0  501 -0.00000000000E+00  0.00000000000E+00  0.12752319108E+04  0.12752319108E+04  0.25500000000E-02 0.  1.
          2   -1    0    0  501    0  0.00000000000E+00 -0.00000000000E+00 -0.20013437262E+04  0.20013437262E+04  0.25500000000E-02 0. -1.
    8880023    1    1    2    0    0 -0.39189107681E+02 -0.14638686566E+04 -0.81664897859E+03  0.18014363687E+04  0.65864270000E+03 0.  0.
    8880022    1    1    2    0    0  0.39189107681E+02  0.14638686566E+04  0.90537163189E+02  0.14751392683E+04  0.15294330000E+03 0.  0.
<mgrwt>
<rscale>  0 0.15712697E+04</rscale>
<asrwt>0</asrwt>
<pdfrwt beam="1">  1        2 0.30789904E+00 0.16056953E+04</pdfrwt>
<pdfrwt beam="2">  1       -2 0.19618952E+00 0.16056953E+04</pdfrwt>
<totfact> 0.87447543E-01</totfact>
</mgrwt>
</event>
<event>
 4    5  0.1112901E-007  0.7612980E+03  0.7818608E-02  0.9801759E-01
         -2   -1    0    0    0  501 -0.00000000000E+00  0.00000000000E+00  0.32136212952E+03  0.32136212953E+03  0.25500000000E-02 0.  1.
          2   -1    0    0  501    0  0.00000000000E+00 -0.00000000000E+00 -0.16033129588E+04  0.16033129588E+04  0.25500000000E-02 0. -1.
    8880023    1    1    2    0    0  0.27221650011E+03 -0.26769867218E+03 -0.23015823343E+03  0.79532849861E+03  0.65864270000E+03 0.  1.
    8880022    1    1    2    0    0 -0.27221650011E+03  0.26769867218E+03 -0.10517925958E+04  0.11293465897E+04  0.15294330000E+03 0.  0.
<mgrwt>
<rscale>  0 0.65268247E+03</rscale>
<asrwt>0</asrwt>
<pdfrwt beam="1">  1        2 0.24666353E+00 0.76129798E+03</pdfrwt>
<pdfrwt beam="2">  1       -2 0.49440329E-01 0.76129798E+03</pdfrwt>
<totfact> 0.43966648E+01</totfact>
</mgrwt>
</event>
<event>
 4    5  0.1112901E-007  0.8827035E+03  0.7818608E-02  0.9554389E-01
          2   -1    0    0  501    0  0.00000000000E+00  0.00000000000E+00  0.10495327682E+04  0.10495327682E+04  0.25500000000E-02 0. -1.
         -2   -1    0    0    0  501 -0.00000000000E+00 -0.00000000000E+00 -0.99136598945E+03  0.99136598945E+03  0.25500000000E-02 0.  1.
    8880023    1    1    2    0    0 -0.56798983298E+03 -0.15080704061E+03 -0.65871539989E+03  0.11013952053E+04  0.65864270000E+03 0.  0.
    8880022    1    1    2    0    0  0.56798983298E+03  0.15080704061E+03  0.71688217867E+03  0.93950355241E+03  0.15294330000E+03 0.  0.
<mgrwt>
<rscale>  0 0.80390026E+03</rscale>
<asrwt>0</asrwt>
<pdfrwt beam="1">  1        2 0.16146658E+00 0.88270347E+03</pdfrwt>
<pdfrwt beam="2">  1       -2 0.15251784E+00 0.88270347E+03</pdfrwt>
<totfact> 0.67360059E+00</totfact>
</mgrwt>
</event>
<event>
 4    5  0.1112901E-007  0.1110091E+04  0.7818608E-02  0.9249903E-01
         -2   -1    0    0    0  501 -0.00000000000E+00  0.00000000000E+00  0.11901297430E+04  0.11901297430E+04  0.25500000000E-02 0.  1.
          2   -1    0    0  501    0  0.00000000000E+00 -0.00000000000E+00 -0.14167914313E+04  0.14167914313E+04  0.25500000000E-02 0. -1.
    8880023    1    1    2    0    0 -0.85873903945E+03 -0.24710219428E+03  0.69854262011E+03  0.13115884380E+04  0.65864270000E+03 0.  0.
    8880022    1    1    2    0    0  0.85873903945E+03  0.24710219428E+03 -0.92520430844E+03  0.12953327363E+04  0.15294330000E+03 0.  0.
<mgrwt>
<rscale>  0 0.10552863E+04</rscale>
<asrwt>0</asrwt>
<pdfrwt beam="1">  1        2 0.21796791E+00 0.11100912E+04</pdfrwt>
<pdfrwt beam="2">  1       -2 0.18309688E+00 0.11100912E+04</pdfrwt>
<totfact> 0.23940441E+00</totfact>
</mgrwt>
</event>
<event>
 4    5  0.1112901E-007  0.7326431E+03  0.7818608E-02  0.9881920E-01
         -2   -1    0    0    0  501 -0.00000000000E+00  0.00000000000E+00  0.13766804862E+03  0.13766804864E+03  0.25500000000E-02 0.  1.
          2   -1    0    0  501    0  0.00000000000E+00 -0.00000000000E+00 -0.26054882020E+04  0.26054882020E+04  0.25500000000E-02 0. -1.
    8880023    1    1    2    0    0 -0.32070792420E+03 -0.10108354836E+02 -0.10425827796E+04  0.12742624573E+04  0.65864270000E+03 0.  0.
    8880022    1    1    2    0    0  0.32070792420E+03  0.10108354836E+02 -0.14252373738E+04  0.14688937934E+04  0.15294330000E+03 0.  0.
<mgrwt>
<rscale>  0 0.61145592E+03</rscale>
<asrwt>0</asrwt>
<pdfrwt beam="1">  1        2 0.40084430E+00 0.73264313E+03</pdfrwt>
<pdfrwt beam="2">  1       -2 0.21179702E-01 0.73264313E+03</pdfrwt>
<totfact> 0.60897928E+01</totfact>
</mgrwt>
</event>
<event>
 4    5  0.1112901E-007  0.1071016E+04  0.7818608E-02  0.9294034E-01
          2   -1    0    0  501    0  0.00000000000E+00  0.00000000000E+00  0.27128653354E+04  0.27128653354E+04  0.25500000000E-02 0. -1.
         -2   -1    0    0    0  501 -0.00000000000E+00 -0.00000000000E+00 -0.52493803363E+03  0.52493803363E+03  0.25500000000E-02 0.  1.
    8880023    1    1    2    0    0  0.79719125297E+03 -0.27883883685E+03  0.22353718407E+03  0.10940950917E+04  0.65864270000E+03 0.  0.
    8880022    1    1    2    0    0 -0.79719125297E+03  0.27883883685E+03  0.19643901177E+04  0.21437082773E+04  0.15294330000E+03 0.  0.
<mgrwt>
<rscale>  0 0.10133398E+04</rscale>
<asrwt>0</asrwt>
<pdfrwt beam="1">  1        2 0.41736389E+00 0.10710160E+04</pdfrwt>
<pdfrwt beam="2">  1       -2 0.80759699E-01 0.10710160E+04</pdfrwt>
<totfact> 0.35471517E+00</totfact>
</mgrwt>
</event>
<event>
 4    5  0.1112901E-007  0.1100998E+04  0.7818608E-02  0.9259946E-01
         -2   -1    0    0    0  501 -0.00000000000E+00  0.00000000000E+00  0.10761900588E+04  0.10761900588E+04  0.25500000000E-02 0.  1.
          2   -1    0    0  501    0  0.00000000000E+00 -0.00000000000E+00 -0.21122322440E+04  0.21122322440E+04  0.25500000000E-02 0. -1.
    8880023    1    1    2    0    0 -0.72057679673E+03  0.50907295600E+03  0.65058074676E+03  0.12788478052E+04  0.65864270000E+03 0.  0.
    8880022    1    1    2    0    0  0.72057679673E+03 -0.50907295600E+03 -0.16866229319E+04  0.19095744976E+04  0.15294330000E+03 0.  0.
<mgrwt>
<rscale>  0 0.10455544E+04</rscale>
<asrwt>0</asrwt>
<pdfrwt beam="1">  1        2 0.32495881E+00 0.11009979E+04</pdfrwt>
<pdfrwt beam="2">  1       -2 0.16556770E+00 0.11009979E+04</pdfrwt>
<totfact> 0.13069156E+00</totfact>
</mgrwt>
</event>
<event>
 4    5  0.1112901E-007  0.6598385E+03  0.7818608E-02  0.1024322E+00
          2   -1    0    0  501    0  0.00000000000E+00  0.00000000000E+00  0.18650260268E+04  0.18650260268E+04  0.25500000000E-02 0. -1.
         -2   -1    0    0    0  501 -0.00000000000E+00 -0.00000000000E+00 -0.36476610531E+03  0.36476610532E+03  0.25500000000E-02 0.  1.
    8880023    1    1    2    0    0  0.37944601197E+02  0.11700145187E+02 -0.59069316359E+02  0.66247722720E+03  0.65864270000E+03 0.  1.
    8880022    1    1    2    0    0 -0.37944601197E+02 -0.11700145187E+02  0.15593292378E+04  0.15673149049E+04  0.15294330000E+03 0.  0.
<mgrwt>
<rscale>  0 0.46158529E+03</rscale>
<asrwt>0</asrwt>
<pdfrwt beam="1">  1        2 0.28692709E+00 0.65983854E+03</pdfrwt>
<pdfrwt beam="2">  1       -2 0.56117861E-01 0.65983854E+03</pdfrwt>
<totfact> 0.24704778E+01</totfact>
</mgrwt>
</event>
<event>
 4    5  0.1112901E-007  0.6858837E+03  0.7818608E-02  0.1006174E+00
          2   -1    0    0  501    0  0.00000000000E+00  0.00000000000E+00  0.68225189599E+03  0.68225189599E+03  0.25500000000E-02 0. -1.
         -2   -1    0    0    0  501 -0.00000000000E+00 -0.00000000000E+00 -0.32391389478E+03  0.32391389479E+03  0.25500000000E-02 0.  1.
    8880023    1    1    2    0    0 -0.18672517181E+03  0.41951231130E+02  0.32477923250E+03  0.75889258246E+03  0.65864270000E+03 0. -1.
    8880022    1    1    2    0    0  0.18672517181E+03 -0.41951231130E+02  0.33558768714E+02  0.24727320832E+03  0.15294330000E+03 0.  1.
<mgrwt>
<rscale>  0 0.53024050E+03</rscale>
<asrwt>0</asrwt>
<pdfrwt beam="1">  1        2 0.10496183E+00 0.68588366E+03</pdfrwt>
<pdfrwt beam="2">  1       -2 0.49832907E-01 0.68588366E+03</pdfrwt>
<totfact> 0.16348781E+02</totfact>
</mgrwt>
</event>
<event>
 4    5  0.1112901E-007  0.7352244E+03  0.7818608E-02  0.9874083E-01
          2   -1    0    0  501    0  0.00000000000E+00  0.00000000000E+00  0.10882322432E+04  0.10882322432E+04  0.25500000000E-02 0. -1.
         -2   -1    0    0    0  501 -0.00000000000E+00 -0.00000000000E+00 -0.48386195581E+03  0.48386195582E+03  0.25500000000E-02 0.  1.
    8880023    1    1    2    0    0  0.30133138768E+03 -0.12626972163E+03 -0.13675538070E+03  0.74783480008E+03  0.65864270000E+03 0.  1.
    8880022    1    1    2    0    0 -0.30133138768E+03  0.12626972163E+03  0.74112566805E+03  0.82425939889E+03  0.15294330000E+03 0.  0.
<mgrwt>
<rscale>  0 0.61533940E+03</rscale>
<asrwt>0</asrwt>
<pdfrwt beam="1">  1        2 0.16742034E+00 0.73522436E+03</pdfrwt>
<pdfrwt beam="2">  1       -2 0.74440301E-01 0.73522436E+03</pdfrwt>
<totfact> 0.36631724E+01</totfact>
</mgrwt>
</event>
<event>
 4    5  0.1112901E-007  0.1405693E+04  0.7818608E-02  0.8979272E-01
         -2   -1    0    0    0  501 -0.00000000000E+00  0.00000000000E+00  0.57138248235E+03  0.57138248235E+03  0.25500000000E-02 0.  1.
          2   -1    0    0  501    0  0.00000000000E+00 -0.00000000000E+00 -0.36976655231E+04  0.36976655231E+04  0.25500000000E-02 0. -1.
    8880023    1    1    2    0    0  0.12378138676E+04 -0.99894474676E+02 -0.77400750370E+03  0.16046993173E+04  0.65864270000E+03 0.  0.
    8880022    1    1    2    0    0 -0.12378138676E+04  0.99894474676E+02 -0.23522755371E+04  0.26643486882E+04  0.15294330000E+03 0.  0.
<mgrwt>
<rscale>  0 0.13653730E+04</rscale>
<asrwt>0</asrwt>
<pdfrwt beam="1">  1        2 0.56887160E+00 0.14056928E+04</pdfrwt>
<pdfrwt beam="2">  1       -2 0.87905000E-01 0.14056928E+04</pdfrwt>
<totfact> 0.63999000E-01</totfact>
</mgrwt>
</event>
<event>
 4    5  0.1112901E-007  0.8189199E+03  0.7818608E-02  0.9671288E-01
          2   -1    0    0  501    0  0.00000000000E+00  0.00000000000E+00  0.18458018892E+04  0.18458018892E+04  0.25500000000E-02 0. -1.
         -2   -1    0    0    0  501 -0.00000000000E+00 -0.00000000000E+00 -0.45647775209E+03  0.45647775210E+03  0.25500000000E-02 0.  1.
    8880023    1    1    2    0    0  0.25167633547E+03 -0.41650755405E+03 -0.35585387680E+01  0.81892758525E+03  0.65864270000E+03 0.  1.
    8880022    1    1    2    0    0 -0.25167633547E+03  0.41650755405E+03  0.13928826759E+04  0.14833520560E+04  0.15294330000E+03 0.  0.
<mgrwt>
<rscale>  0 0.72752311E+03</rscale>
<asrwt>0</asrwt>
<pdfrwt beam="1">  1        2 0.28396952E+00 0.81891985E+03</pdfrwt>
<pdfrwt beam="2">  1       -2 0.70227346E-01 0.81891985E+03</pdfrwt>
<totfact> 0.15349816E+01</totfact>
</mgrwt>
</event>
<event>
 4    5  0.1112901E-007  0.1824294E+04  0.7818608E-02  0.8709215E-01
          2   -1    0    0  501    0  0.00000000000E+00  0.00000000000E+00  0.40185035562E+04  0.40185035562E+04  0.25500000000E-02 0. -1.
         -2   -1    0    0    0  501 -0.00000000000E+00 -0.00000000000E+00 -0.93636111116E+03  0.93636111116E+03  0.25500000000E-02 0.  1.
    8880023    1    1    2    0    0 -0.14937493479E+04  0.81421867617E+03  0.55918411185E+03  0.19080713415E+04  0.65864270000E+03 0.  0.
    8880022    1    1    2    0    0  0.14937493479E+04 -0.81421867617E+03  0.25229583332E+04  0.30467933259E+04  0.15294330000E+03 0.  0.
<mgrwt>
<rscale>  0 0.17945268E+04</rscale>
<asrwt>0</asrwt>
<pdfrwt beam="1">  1        2 0.61823134E+00 0.18242942E+04</pdfrwt>
<pdfrwt beam="2">  1       -2 0.14405555E+00 0.18242942E+04</pdfrwt>
<totfact> 0.10177746E-01</totfact>
</mgrwt>
</event>
<event>
 4    5  0.1112901E-007  0.1151070E+04  0.7818608E-02  0.9206219E-01
          2   -1    0    0  501    0  0.00000000000E+00  0.00000000000E+00  0.25397864903E+04  0.25397864903E+04  0.25500000000E-02 0. -1.
         -2   -1    0    0    0  501 -0.00000000000E+00 -0.00000000000E+00 -0.52913986873E+03  0.52913986874E+03  0.25500000000E-02 0.  1.
    8880023    1    1    2    0    0 -0.91350537658E+03  0.23803116372E+03  0.44454634031E+03  0.12339297236E+04  0.65864270000E+03 0. -1.
    8880022    1    1    2    0    0  0.91350537658E+03 -0.23803116372E+03  0.15661002812E+04  0.18349966354E+04  0.15294330000E+03 0.  0.
<mgrwt>
<rscale>  0 0.10989468E+04</rscale>
<asrwt>0</asrwt>
<pdfrwt beam="1">  1        2 0.39073639E+00 0.11510696E+04</pdfrwt>
<pdfrwt beam="2">  1       -2 0.81406133E-01 0.11510696E+04</pdfrwt>
<totfact> 0.43516684E+00</totfact>
</mgrwt>
</event>
<event>
 4    5  0.1112901E-007  0.6599339E+03  0.7818608E-02  0.1024224E+00
          2   -1    0    0  501    0  0.00000000000E+00  0.00000000000E+00  0.12479329423E+04  0.12479329423E+04  0.25500000000E-02 0. -1.
         -2   -1    0    0    0  501 -0.00000000000E+00 -0.00000000000E+00 -0.82305034546E+03  0.82305034546E+03  0.25500000000E-02 0.  1.
    8880023    1    1    2    0    0 -0.36791167369E+02 -0.18680132587E+02 -0.68422556243E+03  0.95061946324E+03  0.65864270000E+03 0.  1.
    8880022    1    1    2    0    0  0.36791167369E+02  0.18680132587E+02  0.11091081593E+04  0.11203638245E+04  0.15294330000E+03 0.  0.
<mgrwt>
<rscale>  0 0.46192554E+03</rscale>
<asrwt>0</asrwt>
<pdfrwt beam="1">  1        2 0.19198968E+00 0.65993389E+03</pdfrwt>
<pdfrwt beam="2">  1       -2 0.12662313E+00 0.65993389E+03</pdfrwt>
<totfact> 0.85113856E+00</totfact>
</mgrwt>
</event>
<event>
 4    5  0.1112901E-007  0.9845279E+03  0.7818608E-02  0.9402086E-01
          2   -1    0    0  501    0  0.00000000000E+00  0.00000000000E+00  0.78673610309E+03  0.78673610309E+03  0.25500000000E-02 0. -1.
         -2   -1    0    0    0  501 -0.00000000000E+00 -0.00000000000E+00 -0.14479506136E+04  0.14479506136E+04  0.25500000000E-02 0.  1.
    8880023    1    1    2    0    0 -0.26583556809E+03 -0.68177452152E+03 -0.10093730653E+04  0.14100103683E+04  0.65864270000E+03 0.  0.
    8880022    1    1    2    0    0  0.26583556809E+03  0.68177452152E+03  0.34815855473E+03  0.82467634846E+03  0.15294330000E+03 0.  0.
<mgrwt>
<rscale>  0 0.91904237E+03</rscale>
<asrwt>0</asrwt>
<pdfrwt beam="1">  1        2 0.12103632E+00 0.98452793E+03</pdfrwt>
<pdfrwt beam="2">  1       -2 0.22276163E+00 0.98452793E+03</pdfrwt>
<totfact> 0.33313699E+00</totfact>
</mgrwt>
</event>
<event>
 4    5  0.1112901E-007  0.1264386E+04  0.7818608E-02  0.9096942E-01
         -2   -1    0    0    0  501 -0.00000000000E+00  0.00000000000E+00  0.17073569752E+04  0.17073569752E+04  0.25500000000E-02 0.  1.
          2   -1    0    0  501    0  0.00000000000E+00 -0.00000000000E+00 -0.14253506320E+04  0.14253506320E+04  0.25500000000E-02 0. -1.
    8880023    1    1    2    0    0 -0.71663707277E+03  0.80702736796E+03  0.11730955400E+04  0.17247681638E+04  0.65864270000E+03 0.  1.
    8880022    1    1    2    0    0  0.71663707277E+03 -0.80702736796E+03 -0.89108919671E+03  0.14079394434E+04  0.15294330000E+03 0.  0.
<mgrwt>
<rscale>  0 0.12183538E+04</rscale>
<asrwt>0</asrwt>
<pdfrwt beam="1">  1        2 0.21928471E+00 0.12643860E+04</pdfrwt>
<pdfrwt beam="2">  1       -2 0.26267030E+00 0.12643860E+04</pdfrwt>
<totfact> 0.72575953E-01</totfact>
</mgrwt>
</event>
<event>
 4    5  0.1112901E-007  0.1483224E+04  0.7818608E-02  0.8921574E-01
         -2   -1    0    0    0  501 -0.00000000000E+00  0.00000000000E+00  0.20275738029E+04  0.20275738029E+04  0.25500000000E-02 0.  1.
          2   -1    0    0  501    0  0.00000000000E+00 -0.00000000000E+00 -0.21166555767E+04  0.21166555767E+04  0.25500000000E-02 0. -1.
    8880023    1    1    2    0    0 -0.37673793515E+03  0.12744451560E+04  0.14711171913E+04  0.20890519199E+04  0.65864270000E+03 0.  0.
    8880022    1    1    2    0    0  0.37673793515E+03 -0.12744451560E+04 -0.15601989651E+04  0.20551774598E+04  0.15294330000E+03 0.  0.
<mgrwt>
<rscale>  0 0.14454313E+04</rscale>
<asrwt>0</asrwt>
<pdfrwt beam="1">  1        2 0.32563932E+00 0.14832236E+04</pdfrwt>
<pdfrwt beam="2">  1       -2 0.31193443E+00 0.14832236E+04</pdfrwt>
<totfact> 0.14516401E-01</totfact>
</mgrwt>
</event>
<event>
 4    5  0.1112901E-007  0.1016050E+04  0.7818608E-02  0.9360854E-01
          2   -1    0    0  501    0  0.00000000000E+00  0.00000000000E+00  0.13210136541E+04  0.13210136541E+04  0.25500000000E-02 0. -1.
         -2   -1    0    0    0  501 -0.00000000000E+00 -0.00000000000E+00 -0.69795753488E+03  0.69795753488E+03  0.25500000000E-02 0.  1.
    8880023    1    1    2    0    0 -0.25940524899E+03 -0.72887396841E+03  0.34609664407E+01  0.10160563614E+04  0.65864270000E+03 0. -1.
    8880022    1    1    2    0    0  0.25940524899E+03  0.72887396841E+03  0.61959515282E+03  0.10029148276E+04  0.15294330000E+03 0.  0.
<mgrwt>
<rscale>  0 0.95368515E+03</rscale>
<asrwt>0</asrwt>
<pdfrwt beam="1">  1        2 0.20323287E+00 0.10160505E+04</pdfrwt>
<pdfrwt beam="2">  1       -2 0.10737808E+00 0.10160505E+04</pdfrwt>
<totfact> 0.11109549E+01</totfact>
</mgrwt>
</event>
<event>
 4    5  0.1112901E-007  0.8897426E+03  0.7818608E-02  0.9542703E-01
          2   -1    0    0  501    0  0.00000000000E+00  0.00000000000E+00  0.24053943223E+04  0.24053943223E+04  0.25500000000E-02 0. -1.
         -2   -1    0    0    0  501 -0.00000000000E+00 -0.00000000000E+00 -0.55779732034E+03  0.55779732034E+03  0.25500000000E-02 0.  1.
    8880023    1    1    2    0    0  0.57716543616E+03 -0.15719996003E+03 -0.12293270601E+03  0.89819509273E+03  0.65864270000E+03 0.  1.
    8880022    1    1    2    0    0 -0.57716543616E+03  0.15719996003E+03  0.19705297080E+04  0.20649965499E+04  0.15294330000E+03 0.  0.
<mgrwt>
<rscale>  0 0.81207427E+03</rscale>
<asrwt>0</asrwt>
<pdfrwt beam="1">  1        2 0.37006065E+00 0.88974265E+03</pdfrwt>
<pdfrwt beam="2">  1       -2 0.85814975E-01 0.88974265E+03</pdfrwt>
<totfact> 0.47634425E+00</totfact>
</mgrwt>
</event>
<event>
 4    5  0.1112901E-007  0.1264930E+04  0.7818608E-02  0.9096452E-01
          2   -1    0    0  501    0  0.00000000000E+00  0.00000000000E+00  0.23667078181E+04  0.23667078181E+04  0.25500000000E-02 0. -1.
         -2   -1    0    0    0  501 -0.00000000000E+00 -0.00000000000E+00 -0.13918153417E+04  0.13918153417E+04  0.25500000000E-02 0.  1.
    8880023    1    1    2    0    0 -0.29631778030E+03 -0.10384766320E+04 -0.92551586517E+03  0.15673633162E+04  0.65864270000E+03 0.  1.
    8880022    1    1    2    0    0  0.29631778030E+03  0.10384766320E+04  0.19004083416E+04  0.21911598435E+04  0.15294330000E+03 0.  0.
<mgrwt>
<rscale>  0 0.12189233E+04</rscale>
<asrwt>0</asrwt>
<pdfrwt beam="1">  1        2 0.36410889E+00 0.12649301E+04</pdfrwt>
<pdfrwt beam="2">  1       -2 0.21412544E+00 0.12649301E+04</pdfrwt>
<totfact> 0.43215300E-01</totfact>
</mgrwt>
</event>
<event>
 4    5  0.1112901E-007  0.1030970E+04  0.7818608E-02  0.9342116E-01
          2   -1    0    0  501    0  0.00000000000E+00  0.00000000000E+00  0.23407233610E+04  0.23407233610E+04  0.25500000000E-02 0. -1.
         -2   -1    0    0    0  501 -0.00000000000E+00 -0.00000000000E+00 -0.49050468043E+03  0.49050468044E+03  0.25500000000E-02 0.  1.
    8880023    1    1    2    0    0  0.23177675729E+01 -0.79314794817E+03  0.17309358588E+04  0.20147054855E+04  0.65864270000E+03 0. -1.
    8880022    1    1    2    0    0 -0.23177675729E+01  0.79314794817E+03  0.11928282174E+03  0.81652255591E+03  0.15294330000E+03 0.  0.
<mgrwt>
<rscale>  0 0.96996373E+03</rscale>
<asrwt>0</asrwt>
<pdfrwt beam="1">  1        2 0.36011128E+00 0.10309701E+04</pdfrwt>
<pdfrwt beam="2">  1       -2 0.75462259E-01 0.10309701E+04</pdfrwt>
<totfact> 0.67966285E+00</totfact>
</mgrwt>
</event>
<event>
 4    5  0.1112901E-007  0.7330310E+03  0.7818608E-02  0.9880733E-01
          2   -1    0    0  501    0  0.00000000000E+00  0.00000000000E+00  0.88292587951E+03  0.88292587951E+03  0.25500000000E-02 0. -1.
         -2   -1    0    0    0  501 -0.00000000000E+00 -0.00000000000E+00 -0.67432142647E+03  0.67432142647E+03  0.25500000000E-02 0.  1.
    8880023    1    1    2    0    0 -0.31858079928E+03  0.45061583715E+02 -0.41257453460E+03  0.84116123595E+03  0.65864270000E+03 0.  1.
    8880022    1    1    2    0    0  0.31858079928E+03 -0.45061583715E+02  0.62117898764E+03  0.71608607003E+03  0.15294330000E+03 0.  0.
<mgrwt>
<rscale>  0 0.61204208E+03</rscale>
<asrwt>0</asrwt>
<pdfrwt beam="1">  1        2 0.13583475E+00 0.73303102E+03</pdfrwt>
<pdfrwt beam="2">  1       -2 0.10374176E+00 0.73303102E+03</pdfrwt>
<totfact> 0.23172694E+01</totfact>
</mgrwt>
</event>
<event>
 4    5  0.1112901E-007  0.8687423E+03  0.7818608E-02  0.9578198E-01
         -2   -1    0    0    0  501 -0.00000000000E+00  0.00000000000E+00  0.58258747136E+03  0.58258747137E+03  0.25500000000E-02 0.  1.
          2   -1    0    0  501    0  0.00000000000E+00 -0.00000000000E+00 -0.24683837852E+04  0.24683837852E+04  0.25500000000E-02 0. -1.
    8880023    1    1    2    0    0 -0.50805684029E+03 -0.25056191891E+03  0.19387145688E+03  0.89011200207E+03  0.65864270000E+03 0.  0.
    8880022    1    1    2    0    0  0.50805684029E+03  0.25056191891E+03 -0.20796677707E+04  0.21608592545E+04  0.15294330000E+03 0.  0.
<mgrwt>
<rscale>  0 0.78756159E+03</rscale>
<asrwt>0</asrwt>
<pdfrwt beam="1">  1        2 0.37975135E+00 0.86874233E+03</pdfrwt>
<pdfrwt beam="2">  1       -2 0.89628843E-01 0.86874233E+03</pdfrwt>
<totfact> 0.39833049E+00</totfact>
</mgrwt>
</event>
<event>
 4    5  0.1112901E-007  0.1004637E+04  0.7818608E-02  0.9375517E-01
          2   -1    0    0  501    0  0.00000000000E+00  0.00000000000E+00  0.18681974172E+04  0.18681974172E+04  0.25500000000E-02 0. -1.
         -2   -1    0    0    0  501 -0.00000000000E+00 -0.00000000000E+00 -0.90605755952E+03  0.90605755952E+03  0.25500000000E-02 0.  1.
    8880023    1    1    2    0    0  0.48571571523E+03 -0.58272182555E+03 -0.49831844979E+03  0.11214347799E+04  0.65864270000E+03 0.  1.
    8880022    1    1    2    0    0 -0.48571571523E+03  0.58272182555E+03  0.14604583075E+04  0.16528201968E+04  0.15294330000E+03 0.  0.
<mgrwt>
<rscale>  0 0.94118256E+03</rscale>
<asrwt>0</asrwt>
<pdfrwt beam="1">  1        2 0.28741498E+00 0.10046366E+04</pdfrwt>
<pdfrwt beam="2">  1       -2 0.13939347E+00 0.10046366E+04</pdfrwt>
<totfact> 0.28606413E+00</totfact>
</mgrwt>
</event>
<event>
 4    5  0.1112901E-007  0.1133477E+04  0.7818608E-02  0.9224668E-01
         -2   -1    0    0    0  501 -0.00000000000E+00  0.00000000000E+00  0.12834163738E+04  0.12834163738E+04  0.25500000000E-02 0.  1.
          2   -1    0    0  501    0  0.00000000000E+00 -0.00000000000E+00 -0.91969550034E+03  0.91969550034E+03  0.25500000000E-02 0. -1.
    8880023    1    1    2    0    0  0.55943132228E+03 -0.73348279380E+03  0.53350248467E+03  0.12527551718E+04  0.65864270000E+03 0.  1.
    8880022    1    1    2    0    0 -0.55943132228E+03  0.73348279380E+03 -0.16978161119E+03  0.95035670233E+03  0.15294330000E+03 0.  0.
<mgrwt>
<rscale>  0 0.10802403E+04</rscale>
<asrwt>0</asrwt>
<pdfrwt beam="1">  1        2 0.14149162E+00 0.11334772E+04</pdfrwt>
<pdfrwt beam="2">  1       -2 0.19744867E+00 0.11334772E+04</pdfrwt>
<totfact> 0.38503553E+00</totfact>
</mgrwt>
</event>
<event>
 4    5  0.1112901E-007  0.1100294E+04  0.7818608E-02  0.9260729E-01
         -2   -1    0    0    0  501 -0.00000000000E+00  0.00000000000E+00  0.98190490093E+03  0.98190490094E+03  0.25500000000E-02 0.  1.
          2   -1    0    0  501    0  0.00000000000E+00 -0.00000000000E+00 -0.13091960246E+04  0.13091960246E+04  0.25500000000E-02 0. -1.
    8880023    1    1    2    0    0 -0.66077695386E+03  0.58327619435E+03 -0.71916670486E+03  0.13144764194E+04  0.65864270000E+03 0.  0.
    8880022    1    1    2    0    0  0.66077695386E+03 -0.58327619435E+03  0.39187558123E+03  0.97662450605E+03  0.15294330000E+03 0.  0.
<mgrwt>
<rscale>  0 0.10448006E+04</rscale>
<asrwt>0</asrwt>
<pdfrwt beam="1">  1        2 0.20141477E+00 0.11002943E+04</pdfrwt>
<pdfrwt beam="2">  1       -2 0.15106229E+00 0.11002943E+04</pdfrwt>
<totfact> 0.47127100E+00</totfact>
</mgrwt>
</event>
<event>
 4    5  0.1112901E-007  0.7910497E+03  0.7818608E-02  0.9730493E-01
         -2   -1    0    0    0  501 -0.00000000000E+00  0.00000000000E+00  0.54275956808E+03  0.54275956809E+03  0.25500000000E-02 0.  1.
          2   -1    0    0  501    0  0.00000000000E+00 -0.00000000000E+00 -0.26628333306E+04  0.26628333306E+04  0.25500000000E-02 0. -1.
    8880023    1    1    2    0    0 -0.40796250332E+03  0.15973715897E+03 -0.24896861621E+04  0.26123354984E+04  0.65864270000E+03 0. -1.
    8880022    1    1    2    0    0  0.40796250332E+03 -0.15973715897E+03  0.36961239959E+03  0.59325740031E+03  0.15294330000E+03 0.  0.
<mgrwt>
<rscale>  0 0.69229893E+03</rscale>
<asrwt>0</asrwt>
<pdfrwt beam="1">  1        2 0.40966666E+00 0.79104966E+03</pdfrwt>
<pdfrwt beam="2">  1       -2 0.83501474E-01 0.79104966E+03</pdfrwt>
<totfact> 0.36716169E+00</totfact>
</mgrwt>
</event>
<event>
 4    5  0.1112901E-007  0.9077499E+03  0.7818608E-02  0.9513703E-01
          2   -1    0    0  501    0  0.00000000000E+00  0.00000000000E+00  0.22510141656E+04  0.22510141656E+04  0.25500000000E-02 0. -1.
         -2   -1    0    0    0  501 -0.00000000000E+00 -0.00000000000E+00 -0.12653403785E+04  0.12653403785E+04  0.25500000000E-02 0.  1.
    8880023    1    1    2    0    0  0.23445403086E+03  0.57899138406E+03 -0.10462107521E+04  0.13851234095E+04  0.65864270000E+03 0.  0.
    8880022    1    1    2    0    0 -0.23445403086E+03 -0.57899138406E+03  0.20318845393E+04  0.21312311346E+04  0.15294330000E+03 0.  0.
<mgrwt>
<rscale>  0 0.83281032E+03</rscale>
<asrwt>0</asrwt>
<pdfrwt beam="1">  1        2 0.34630987E+00 0.90774992E+03</pdfrwt>
<pdfrwt beam="2">  1       -2 0.19466775E+00 0.90774992E+03</pdfrwt>
<totfact> 0.70951976E-01</totfact>
</mgrwt>
</event>
<event>
 4    5  0.1112901E-007  0.1176433E+04  0.7818608E-02  0.9180379E-01
          2   -1    0    0  501    0  0.00000000000E+00  0.00000000000E+00  0.25069706159E+04  0.25069706159E+04  0.25500000000E-02 0. -1.
         -2   -1    0    0    0  501 -0.00000000000E+00 -0.00000000000E+00 -0.13990866145E+04  0.13990866145E+04  0.25500000000E-02 0.  1.
    8880023    1    1    2    0    0  0.52953090591E+03 -0.81840113159E+03 -0.10222335155E+04  0.15585104937E+04  0.65864270000E+03 0.  0.
    8880022    1    1    2    0    0 -0.52953090591E+03  0.81840113159E+03  0.21301175168E+04  0.23475467367E+04  0.15294330000E+03 0.  0.
<mgrwt>
<rscale>  0 0.11258265E+04</rscale>
<asrwt>0</asrwt>
<pdfrwt beam="1">  1        2 0.38568778E+00 0.11764326E+04</pdfrwt>
<pdfrwt beam="2">  1       -2 0.21524410E+00 0.11764326E+04</pdfrwt>
<totfact> 0.35796051E-01</totfact>
</mgrwt>
</event>
<event>
 4    5  0.1112901E-007  0.9085406E+03  0.7818608E-02  0.9512458E-01
         -2   -1    0    0    0  501 -0.00000000000E+00  0.00000000000E+00  0.72414163953E+03  0.72414163954E+03  0.25500000000E-02 0.  1.
          2   -1    0    0  501    0  0.00000000000E+00 -0.00000000000E+00 -0.10079999197E+04  0.10079999197E+04  0.25500000000E-02 0. -1.
    8880023    1    1    2    0    0  0.59606281738E+03 -0.19064359613E+03  0.19525625555E+03  0.92928524932E+03  0.65864270000E+03 0.  0.
    8880022    1    1    2    0    0 -0.59606281738E+03  0.19064359613E+03 -0.47911453569E+03  0.80285630989E+03  0.15294330000E+03 0.  0.
<mgrwt>
<rscale>  0 0.83371550E+03</rscale>
<asrwt>0</asrwt>
<pdfrwt beam="1">  1        2 0.15507691E+00 0.90854063E+03</pdfrwt>
<pdfrwt beam="2">  1       -2 0.11140641E+00 0.90854063E+03</pdfrwt>
<totfact> 0.15873938E+01</totfact>
</mgrwt>
</event>
<event>
 4    5  0.1112901E-007  0.9510113E+03  0.7818608E-02  0.9448661E-01
          2   -1    0    0  501    0  0.00000000000E+00  0.00000000000E+00  0.21908950361E+04  0.21908950361E+04  0.25500000000E-02 0. -1.
         -2   -1    0    0    0  501 -0.00000000000E+00 -0.00000000000E+00 -0.62478203719E+03  0.62478203720E+03  0.25500000000E-02 0.  1.
    8880023    1    1    2    0    0 -0.30450714957E+03 -0.61472571364E+03 -0.14855789724E+03  0.96254452481E+03  0.65864270000E+03 0.  0.
    8880022    1    1    2    0    0  0.30450714957E+03  0.61472571364E+03  0.17146708961E+04  0.18531325485E+04  0.15294330000E+03 0.  0.
<mgrwt>
<rscale>  0 0.88177050E+03</rscale>
<asrwt>0</asrwt>
<pdfrwt beam="1">  1        2 0.33706078E+00 0.95101131E+03</pdfrwt>
<pdfrwt beam="2">  1       -2 0.96120313E-01 0.95101131E+03</pdfrwt>
<totfact> 0.47851963E+00</totfact>
</mgrwt>
</event>
<event>
 4    5  0.1112901E-007  0.9797165E+03  0.7818608E-02  0.9408589E-01
         -2   -1    0    0    0  501 -0.00000000000E+00  0.00000000000E+00  0.13038842916E+04  0.13038842916E+04  0.25500000000E-02 0.  1.
          2   -1    0    0  501    0  0.00000000000E+00 -0.00000000000E+00 -0.17453805051E+04  0.17453805051E+04  0.25500000000E-02 0. -1.
    8880023    1    1    2    0    0 -0.57207691793E+03 -0.44582747016E+03  0.10176724363E+04  0.14126222167E+04  0.65864270000E+03 0.  0.
    8880022    1    1    2    0    0  0.57207691793E+03  0.44582747016E+03 -0.14591686498E+04  0.16366425800E+04  0.15294330000E+03 0.  0.
<mgrwt>
<rscale>  0 0.91372169E+03</rscale>
<asrwt>0</asrwt>
<pdfrwt beam="1">  1        2 0.26852008E+00 0.97971646E+03</pdfrwt>
<pdfrwt beam="2">  1       -2 0.20059758E+00 0.97971646E+03</pdfrwt>
<totfact> 0.12179240E+00</totfact>
</mgrwt>
</event>
<event>
 4    5  0.1112901E-007  0.9595413E+03  0.7818608E-02  0.9436517E-01
          2   -1    0    0  501    0  0.00000000000E+00  0.00000000000E+00  0.95451460047E+03  0.95451460047E+03  0.25500000000E-02 0. -1.
         -2   -1    0    0    0  501 -0.00000000000E+00 -0.00000000000E+00 -0.11487383545E+04  0.11487383545E+04  0.25500000000E-02 0.  1.
    8880023    1    1    2    0    0  0.16538401291E+03 -0.67790670771E+03 -0.73384386648E+03  0.12079927163E+04  0.65864270000E+03 0.  0.
    8880022    1    1    2    0    0 -0.16538401291E+03  0.67790670771E+03  0.53962011246E+03  0.89526023863E+03  0.15294330000E+03 0.  0.
<mgrwt>
<rscale>  0 0.89130445E+03</rscale>
<asrwt>0</asrwt>
<pdfrwt beam="1">  1        2 0.14684840E+00 0.95954134E+03</pdfrwt>
<pdfrwt beam="2">  1       -2 0.17672898E+00 0.95954134E+03</pdfrwt>
<totfact> 0.51289043E+00</totfact>
</mgrwt>
</event>
<event>
 4    5  0.1112901E-007  0.1114011E+04  0.7818608E-02  0.9245615E-01
          2   -1    0    0  501    0  0.00000000000E+00  0.00000000000E+00  0.10989185644E+04  0.10989185645E+04  0.25500000000E-02 0. -1.
         -2   -1    0    0    0  501 -0.00000000000E+00 -0.00000000000E+00 -0.20778327430E+04  0.20778327430E+04  0.25500000000E-02 0.  1.
    8880023    1    1    2    0    0 -0.85695453519E+03  0.26988740691E+03 -0.16876927607E+04  0.20222085324E+04  0.65864270000E+03 0.  1.
    8880022    1    1    2    0    0  0.85695453519E+03 -0.26988740691E+03  0.70877858217E+03  0.11545427750E+04  0.15294330000E+03 0.  0.
<mgrwt>
<rscale>  0 0.10594762E+04</rscale>
<asrwt>0</asrwt>
<pdfrwt beam="1">  1        2 0.16906440E+00 0.11140110E+04</pdfrwt>
<pdfrwt beam="2">  1       -2 0.31966657E+00 0.11140110E+04</pdfrwt>
<totfact> 0.51985710E-01</totfact>
</mgrwt>
</event>
<event>
 4    5  0.1112901E-007  0.6771652E+03  0.7818608E-02  0.1010975E+00
         -2   -1    0    0    0  501 -0.00000000000E+00  0.00000000000E+00  0.42136044897E+03  0.42136044898E+03  0.25500000000E-02 0.  1.
          2   -1    0    0  501    0  0.00000000000E+00 -0.00000000000E+00 -0.56647558999E+03  0.56647559000E+03  0.25500000000E-02 0. -1.
    8880023    1    1    2    0    0  0.12297803289E+03  0.98075937326E+02  0.69753925560E+02  0.68074834003E+03  0.65864270000E+03 0.  1.
    8880022    1    1    2    0    0 -0.12297803289E+03 -0.98075937326E+02 -0.21486906658E+03  0.30708769895E+03  0.15294330000E+03 0.  0.
<mgrwt>
<rscale>  0 0.51089026E+03</rscale>
<asrwt>0</asrwt>
<pdfrwt beam="1">  1        2 0.87150091E-01 0.67716519E+03</pdfrwt>
<pdfrwt beam="2">  1       -2 0.64824684E-01 0.67716519E+03</pdfrwt>
<totfact> 0.11846993E+02</totfact>
</mgrwt>
</event>
<event>
 4    5  0.1112901E-007  0.9079569E+03  0.7818608E-02  0.9513377E-01
         -2   -1    0    0    0  501 -0.00000000000E+00  0.00000000000E+00  0.53296427301E+03  0.53296427302E+03  0.25500000000E-02 0.  1.
          2   -1    0    0  501    0  0.00000000000E+00 -0.00000000000E+00 -0.25287323780E+04  0.25287323780E+04  0.25500000000E-02 0. -1.
    8880023    1    1    2    0    0 -0.45737208974E+03 -0.42589471823E+03  0.57702380544E+02  0.90978860757E+03  0.65864270000E+03 0.  1.
    8880022    1    1    2    0    0  0.45737208974E+03  0.42589471823E+03 -0.20534704855E+04  0.21519080434E+04  0.15294330000E+03 0.  0.
<mgrwt>
<rscale>  0 0.83304731E+03</rscale>
<asrwt>0</asrwt>
<pdfrwt beam="1">  1        2 0.38903575E+00 0.90795691E+03</pdfrwt>
<pdfrwt beam="2">  1       -2 0.81994505E-01 0.90795691E+03</pdfrwt>
<totfact> 0.44846880E+00</totfact>
</mgrwt>
</event>
<event>
 4    5  0.1112901E-007  0.1005608E+04  0.7818608E-02  0.9374257E-01
          2   -1    0    0  501    0  0.00000000000E+00  0.00000000000E+00  0.12724740589E+04  0.12724740589E+04  0.25500000000E-02 0. -1.
         -2   -1    0    0    0  501 -0.00000000000E+00 -0.00000000000E+00 -0.85699329905E+03  0.85699329905E+03  0.25500000000E-02 0.  1.
    8880023    1    1    2    0    0 -0.74952019555E+03  0.12512580833E+03 -0.32566679441E+03  0.10570269905E+04  0.65864270000E+03 0.  1.
    8880022    1    1    2    0    0  0.74952019555E+03 -0.12512580833E+03  0.74114755422E+03  0.10724403674E+04  0.15294330000E+03 0.  0.
<mgrwt>
<rscale>  0 0.94224822E+03</rscale>
<asrwt>0</asrwt>
<pdfrwt beam="1">  1        2 0.19576524E+00 0.10056079E+04</pdfrwt>
<pdfrwt beam="2">  1       -2 0.13184512E+00 0.10056079E+04</pdfrwt>
<totfact> 0.71293393E+00</totfact>
</mgrwt>
</event>
<event>
 4    5  0.1112901E-007  0.1033222E+04  0.7818608E-02  0.9339328E-01
          2   -1    0    0  501    0  0.00000000000E+00  0.00000000000E+00  0.87729321429E+03  0.87729321429E+03  0.25500000000E-02 0. -1.
         -2   -1    0    0    0  501 -0.00000000000E+00 -0.00000000000E+00 -0.15271152680E+04  0.15271152680E+04  0.25500000000E-02 0.  1.
    8880023    1    1    2    0    0  0.40344512752E+03 -0.68627178197E+03 -0.10733169571E+04  0.14898175815E+04  0.65864270000E+03 0.  0.
    8880022    1    1    2    0    0 -0.40344512752E+03  0.68627178197E+03  0.42349490333E+03  0.91459090079E+03  0.15294330000E+03 0.  0.
<mgrwt>
<rscale>  0 0.97241454E+03</rscale>
<asrwt>0</asrwt>
<pdfrwt beam="1">  1        2 0.13496819E+00 0.10332217E+04</pdfrwt>
<pdfrwt beam="2">  1       -2 0.23494081E+00 0.10332217E+04</pdfrwt>
<totfact> 0.23996144E+00</totfact>
</mgrwt>
</event>
<event>
 4    5  0.1112901E-007  0.7408144E+03  0.7818608E-02  0.9857581E-01
         -2   -1    0    0    0  501 -0.00000000000E+00  0.00000000000E+00  0.14847011892E+04  0.14847011892E+04  0.25500000000E-02 0.  1.
          2   -1    0    0  501    0  0.00000000000E+00 -0.00000000000E+00 -0.12211761031E+04  0.12211761031E+04  0.25500000000E-02 0. -1.
    8880023    1    1    2    0    0 -0.33517448348E+03 -0.51514747370E+02  0.13596364328E+04  0.15483594994E+04  0.65864270000E+03 0.  1.
    8880022    1    1    2    0    0  0.33517448348E+03  0.51514747370E+02 -0.10961113467E+04  0.11575177930E+04  0.15294330000E+03 0.  0.
<mgrwt>
<rscale>  0 0.62361865E+03</rscale>
<asrwt>0</asrwt>
<pdfrwt beam="1">  1        2 0.18787325E+00 0.74081436E+03</pdfrwt>
<pdfrwt beam="2">  1       -2 0.22841557E+00 0.74081436E+03</pdfrwt>
<totfact> 0.16644519E+00</totfact>
</mgrwt>
</event>
<event>
 4    5  0.1112901E-007  0.1197824E+04  0.7818608E-02  0.9159241E-01
         -2   -1    0    0    0  501 -0.00000000000E+00  0.00000000000E+00  0.13596231097E+04  0.13596231097E+04  0.25500000000E-02 0.  1.
          2   -1    0    0  501    0  0.00000000000E+00 -0.00000000000E+00 -0.21759605605E+04  0.21759605605E+04  0.25500000000E-02 0. -1.
    8880023    1    1    2    0    0 -0.81544094857E+03 -0.57967886384E+03 -0.17751118397E+04  0.21414489897E+04  0.65864270000E+03 0.  0.
    8880022    1    1    2    0    0  0.81544094857E+03  0.57967886384E+03  0.95877438880E+03  0.13941346805E+04  0.15294330000E+03 0.  0.
<mgrwt>
<rscale>  0 0.11484218E+04</rscale>
<asrwt>0</asrwt>
<pdfrwt beam="1">  1        2 0.33476316E+00 0.11978237E+04</pdfrwt>
<pdfrwt beam="2">  1       -2 0.20917279E+00 0.11978237E+04</pdfrwt>
<totfact> 0.60082174E-01</totfact>
</mgrwt>
</event>
<event>
 4    5  0.1112901E-007  0.1110500E+04  0.7818608E-02  0.9249455E-01
         -2   -1    0    0    0  501 -0.00000000000E+00  0.00000000000E+00  0.13449864197E+04  0.13449864198E+04  0.25500000000E-02 0.  1.
          2   -1    0    0  501    0  0.00000000000E+00 -0.00000000000E+00 -0.13153545821E+04  0.13153545821E+04  0.25500000000E-02 0. -1.
    8880023    1    1    2    0    0  0.82034715292E+03 -0.35556936187E+03  0.88006953406E+03  0.14169444638E+04  0.65864270000E+03 0.  0.
    8880022    1    1    2    0    0 -0.82034715292E+03  0.35556936187E+03 -0.85043769638E+03  0.12433965380E+04  0.15294330000E+03 0.  0.
<mgrwt>
<rscale>  0 0.10557229E+04</rscale>
<asrwt>0</asrwt>
<pdfrwt beam="1">  1        2 0.20236224E+00 0.11104995E+04</pdfrwt>
<pdfrwt beam="2">  1       -2 0.20692099E+00 0.11104995E+04</pdfrwt>
<totfact> 0.19024510E+00</totfact>
</mgrwt>
</event>
<event>
 4    5  0.1112901E-007  0.6666141E+03  0.7818608E-02  0.1018216E+00
          2   -1    0    0  501    0  0.00000000000E+00  0.00000000000E+00  0.15042993201E+04  0.15042993201E+04  0.25500000000E-02 0. -1.
         -2   -1    0    0    0  501 -0.00000000000E+00 -0.00000000000E+00 -0.23874123212E+03  0.23874123214E+03  0.25500000000E-02 0.  1.
    8880023    1    1    2    0    0  0.49869370605E+02 -0.89872950016E+02  0.25166365339E+03  0.71253694779E+03  0.65864270000E+03 0.  0.
    8880022    1    1    2    0    0 -0.49869370605E+02  0.89872950016E+02  0.10138944346E+04  0.10305036044E+04  0.15294330000E+03 0.  0.
<mgrwt>
<rscale>  0 0.48335924E+03</rscale>
<asrwt>0</asrwt>
<pdfrwt beam="1">  1        2 0.23143066E+00 0.66661406E+03</pdfrwt>
<pdfrwt beam="2">  1       -2 0.36729421E-01 0.66661406E+03</pdfrwt>
<totfact> 0.90539755E+01</totfact>
</mgrwt>
</event>
<event>
 4    5  0.1112901E-007  0.1030875E+04  0.7818608E-02  0.9342233E-01
         -2   -1    0    0    0  501 -0.00000000000E+00  0.00000000000E+00  0.12889900530E+04  0.12889900530E+04  0.25500000000E-02 0.  1.
          2   -1    0    0  501    0  0.00000000000E+00 -0.00000000000E+00 -0.83134805445E+03  0.83134805445E+03  0.25500000000E-02 0. -1.
    8880023    1    1    2    0    0 -0.78598200638E+03 -0.10548096968E+03  0.73536438172E+03  0.12662799570E+04  0.65864270000E+03 0.  0.
    8880022    1    1    2    0    0  0.78598200638E+03  0.10548096968E+03 -0.27772238313E+03  0.85405815049E+03  0.15294330000E+03 0.  0.
<mgrwt>
<rscale>  0 0.96986071E+03</rscale>
<asrwt>0</asrwt>
<pdfrwt beam="1">  1        2 0.12789970E+00 0.10308754E+04</pdfrwt>
<pdfrwt beam="2">  1       -2 0.19830616E+00 0.10308754E+04</pdfrwt>
<totfact> 0.44172744E+00</totfact>
</mgrwt>
</event>
<event>
 4    5  0.1112901E-007  0.8954047E+03  0.7818608E-02  0.9533449E-01
          2   -1    0    0  501    0  0.00000000000E+00  0.00000000000E+00  0.17631818837E+04  0.17631818837E+04  0.25500000000E-02 0. -1.
         -2   -1    0    0    0  501 -0.00000000000E+00 -0.00000000000E+00 -0.94506666725E+03  0.94506666725E+03  0.25500000000E-02 0.  1.
    8880023    1    1    2    0    0 -0.59423640131E+03  0.12174778504E+03 -0.65394632804E+03  0.11087810559E+04  0.65864270000E+03 0.  1.
    8880022    1    1    2    0    0  0.59423640131E+03 -0.12174778504E+03  0.14720615445E+04  0.15994674950E+04  0.15294330000E+03 0.  0.
<mgrwt>
<rscale>  0 0.81862043E+03</rscale>
<asrwt>0</asrwt>
<pdfrwt beam="1">  1        2 0.27125875E+00 0.89540473E+03</pdfrwt>
<pdfrwt beam="2">  1       -2 0.14539487E+00 0.89540473E+03</pdfrwt>
<totfact> 0.29690680E+00</totfact>
</mgrwt>
</event>
<event>
 4    5  0.1112901E-007  0.8009785E+03  0.7818608E-02  0.9708684E-01
          2   -1    0    0  501    0  0.00000000000E+00  0.00000000000E+00  0.17906872695E+04  0.17906872695E+04  0.25500000000E-02 0. -1.
         -2   -1    0    0    0  501 -0.00000000000E+00 -0.00000000000E+00 -0.23013750823E+03  0.23013750824E+03  0.25500000000E-02 0.  1.
    8880023    1    1    2    0    0 -0.44155607174E+03 -0.11306890605E+03  0.10311485876E+04  0.13056929034E+04  0.65864270000E+03 0.  0.
    8880022    1    1    2    0    0  0.44155607174E+03  0.11306890605E+03  0.52940117368E+03  0.71513187435E+03  0.15294330000E+03 0.  0.
<mgrwt>
<rscale>  0 0.70502076E+03</rscale>
<asrwt>0</asrwt>
<pdfrwt beam="1">  1        2 0.27549034E+00 0.80097849E+03</pdfrwt>
<pdfrwt beam="2">  1       -2 0.35405772E-01 0.80097849E+03</pdfrwt>
<totfact> 0.66688034E+01</totfact>
</mgrwt>
</event>
<event>
 4    5  0.1112901E-007  0.6930656E+03  0.7818608E-02  0.1002728E+00
          2   -1    0    0  501    0  0.00000000000E+00  0.00000000000E+00  0.96971308731E+03  0.96971308732E+03  0.25500000000E-02 0. -1.
         -2   -1    0    0    0  501 -0.00000000000E+00 -0.00000000000E+00 -0.11934920978E+04  0.11934920978E+04  0.25500000000E-02 0.  1.
    8880023    1    1    2    0    0  0.18720781469E+03  0.10715841136E+03 -0.10709941258E+04  0.12756834696E+04  0.65864270000E+03 0.  0.
    8880022    1    1    2    0    0 -0.18720781469E+03 -0.10715841136E+03  0.84721511524E+03  0.88752171552E+03  0.15294330000E+03 0.  0.
<mgrwt>
<rscale>  0 0.54469949E+03</rscale>
<asrwt>0</asrwt>
<pdfrwt beam="1">  1        2 0.14918663E+00 0.69306558E+03</pdfrwt>
<pdfrwt beam="2">  1       -2 0.18361417E+00 0.69306558E+03</pdfrwt>
<totfact> 0.46475792E+00</totfact>
</mgrwt>
</event>
<event>
 4    5  0.1112901E-007  0.9903764E+03  0.7818608E-02  0.9394258E-01
          2   -1    0    0  501    0  0.00000000000E+00  0.00000000000E+00  0.13359631409E+04  0.13359631409E+04  0.25500000000E-02 0. -1.
         -2   -1    0    0    0  501 -0.00000000000E+00 -0.00000000000E+00 -0.10092343857E+04  0.10092343857E+04  0.25500000000E-02 0.  1.
    8880023    1    1    2    0    0 -0.57400598959E+03 -0.46642510355E+03 -0.59359412981E+03  0.11546425640E+04  0.65864270000E+03 0. -1.
    8880022    1    1    2    0    0  0.57400598959E+03  0.46642510355E+03  0.92032288508E+03  0.11905549627E+04  0.15294330000E+03 0.  0.
<mgrwt>
<rscale>  0 0.92549744E+03</rscale>
<asrwt>0</asrwt>
<pdfrwt beam="1">  1        2 0.20553279E+00 0.99037642E+03</pdfrwt>
<pdfrwt beam="2">  1       -2 0.15526683E+00 0.99037642E+03</pdfrwt>
<totfact> 0.42737872E+00</totfact>
</mgrwt>
</event>
<event>
 4    5  0.1112901E-007  0.6732339E+03  0.7818608E-02  0.1013443E+00
         -2   -1    0    0    0  501 -0.00000000000E+00  0.00000000000E+00  0.17433747682E+03  0.17433747684E+03  0.25500000000E-02 0.  1.
          2   -1    0    0  501    0  0.00000000000E+00 -0.00000000000E+00 -0.26466830116E+04  0.26466830116E+04  0.25500000000E-02 0. -1.
    8880023    1    1    2    0    0 -0.43998354525E+02 -0.13227928079E+03 -0.50188174754E+03  0.83971969020E+03  0.65864270000E+03 0.  1.
    8880022    1    1    2    0    0  0.43998354525E+02  0.13227928079E+03 -0.19704637872E+04  0.19813007982E+04  0.15294330000E+03 0.  0.
<mgrwt>
<rscale>  0 0.50128770E+03</rscale>
<asrwt>0</asrwt>
<pdfrwt beam="1">  1        2 0.40718197E+00 0.67323389E+03</pdfrwt>
<pdfrwt beam="2">  1       -2 0.26821152E-01 0.67323389E+03</pdfrwt>
<totfact> 0.38115013E+01</totfact>
</mgrwt>
</event>
<event>
 4    5  0.1112901E-007  0.1036340E+04  0.7818608E-02  0.9335486E-01
         -2   -1    0    0    0  501 -0.00000000000E+00  0.00000000000E+00  0.71133951824E+03  0.71133951825E+03  0.25500000000E-02 0.  1.
          2   -1    0    0  501    0  0.00000000000E+00 -0.00000000000E+00 -0.13212893869E+04  0.13212893869E+04  0.25500000000E-02 0. -1.
    8880023    1    1    2    0    0 -0.17264217502E+03 -0.78127082407E+03 -0.37535807418E+02  0.10370190761E+04  0.65864270000E+03 0.  0.
    8880022    1    1    2    0    0  0.17264217502E+03  0.78127082407E+03 -0.57241406122E+03  0.99560982901E+03  0.15294330000E+03 0.  0.
<mgrwt>
<rscale>  0 0.97580558E+03</rscale>
<asrwt>0</asrwt>
<pdfrwt beam="1">  1        2 0.20327529E+00 0.10363395E+04</pdfrwt>
<pdfrwt beam="2">  1       -2 0.10943685E+00 0.10363395E+04</pdfrwt>
<totfact> 0.10585345E+01</totfact>
</mgrwt>
</event>
<event>
 4    5  0.1112901E-007  0.1499199E+04  0.7818608E-02  0.8910202E-01
          2   -1    0    0  501    0  0.00000000000E+00  0.00000000000E+00  0.19275311881E+04  0.19275311881E+04  0.25500000000E-02 0. -1.
         -2   -1    0    0    0  501 -0.00000000000E+00 -0.00000000000E+00 -0.17757901341E+04  0.17757901341E+04  0.25500000000E-02 0.  1.
    8880023    1    1    2    0    0 -0.10260392876E+04  0.87237049013E+03 -0.10991000591E+04  0.18589292719E+04  0.65864270000E+03 0.  0.
    8880022    1    1    2    0    0  0.10260392876E+04 -0.87237049013E+03  0.12508411131E+04  0.18443920503E+04  0.15294330000E+03 0.  0.
<mgrwt>
<rscale>  0 0.14618855E+04</rscale>
<asrwt>0</asrwt>
<pdfrwt beam="1">  1        2 0.29654326E+00 0.14991988E+04</pdfrwt>
<pdfrwt beam="2">  1       -2 0.27319848E+00 0.14991988E+04</pdfrwt>
<totfact> 0.31856452E-01</totfact>
</mgrwt>
</event>
<event>
 4    5  0.1112901E-007  0.8447194E+03  0.7818608E-02  0.9621345E-01
          2   -1    0    0  501    0  0.00000000000E+00  0.00000000000E+00  0.11083647312E+04  0.11083647312E+04  0.25500000000E-02 0. -1.
         -2   -1    0    0    0  501 -0.00000000000E+00 -0.00000000000E+00 -0.16601000581E+04  0.16601000581E+04  0.25500000000E-02 0.  1.
    8880023    1    1    2    0    0 -0.12983689769E+01  0.52890350427E+03 -0.14713742355E+04  0.16966121978E+04  0.65864270000E+03 0.  0.
    8880022    1    1    2    0    0  0.12983689769E+01 -0.52890350427E+03  0.91963890857E+03  0.10718525914E+04  0.15294330000E+03 0.  0.
<mgrwt>
<rscale>  0 0.75899403E+03</rscale>
<asrwt>0</asrwt>
<pdfrwt beam="1">  1        2 0.17051765E+00 0.84471937E+03</pdfrwt>
<pdfrwt beam="2">  1       -2 0.25540001E+00 0.84471937E+03</pdfrwt>
<totfact> 0.13076654E+00</totfact>
</mgrwt>
</event>
<event>
 4    5  0.1488827E-007  0.1540771E+04  0.7818608E-02  0.8881370E-01
         -2   -1    0    0    0  501 -0.00000000000E+00  0.00000000000E+00  0.17242678633E+04  0.17242678633E+04  0.25500000000E-02 0.  1.
          2   -1    0    0  501    0  0.00000000000E+00 -0.00000000000E+00 -0.36956486628E+04  0.36956486628E+04  0.25500000000E-02 0. -1.
    8880023    1    1    2    0    0 -0.33195052855E+03  0.13527649151E+04  0.11998788088E+04  0.19528654411E+04  0.65864270000E+03 0.  0.
    8880022    1    1    2    0    0  0.33195052855E+03 -0.13527649151E+04 -0.31712596084E+04  0.34670510849E+04  0.15294330000E+03 0.  0.
<mgrwt>
<rscale>  0 0.15046445E+04</rscale>
<asrwt>0</asrwt>
<pdfrwt beam="1">  1        2 0.56856133E+00 0.15407707E+04</pdfrwt>
<pdfrwt beam="2">  1       -2 0.26527198E+00 0.15407707E+04</pdfrwt>
<totfact> 0.28717666E-02</totfact>
</mgrwt>
</event>
<event>
 4    5  0.1112901E-007  0.8910338E+03  0.7818608E-02  0.9540581E-01
          2   -1    0    0  501    0  0.00000000000E+00  0.00000000000E+00  0.16968148732E+04  0.16968148732E+04  0.25500000000E-02 0. -1.
         -2   -1    0    0    0  501 -0.00000000000E+00 -0.00000000000E+00 -0.50650069115E+03  0.50650069116E+03  0.25500000000E-02 0.  1.
    8880023    1    1    2    0    0  0.32817663508E+02 -0.59921122693E+03  0.34091927477E+02  0.89168579629E+03  0.65864270000E+03 0.  1.
    8880022    1    1    2    0    0 -0.32817663508E+02  0.59921122693E+03  0.11562222546E+04  0.13116297681E+04  0.15294330000E+03 0.  0.
<mgrwt>
<rscale>  0 0.81356927E+03</rscale>
<asrwt>0</asrwt>
<pdfrwt beam="1">  1        2 0.26104844E+00 0.89103384E+03</pdfrwt>
<pdfrwt beam="2">  1       -2 0.77923183E-01 0.89103384E+03</pdfrwt>
<totfact> 0.14590386E+01</totfact>
</mgrwt>
</event>
<event>
 4    5  0.1112901E-007  0.9145677E+03  0.7818608E-02  0.9503039E-01
         -2   -1    0    0    0  501 -0.00000000000E+00  0.00000000000E+00  0.12214249015E+04  0.12214249015E+04  0.25500000000E-02 0.  1.
          2   -1    0    0  501    0  0.00000000000E+00 -0.00000000000E+00 -0.14073336379E+04  0.14073336379E+04  0.25500000000E-02 0. -1.
    8880023    1    1    2    0    0 -0.48684079557E+03 -0.40695190232E+03  0.94999632029E+03  0.13186838233E+04  0.65864270000E+03 0.  0.
    8880022    1    1    2    0    0  0.48684079557E+03  0.40695190232E+03 -0.11359050567E+04  0.13100747161E+04  0.15294330000E+03 0. -1.
<mgrwt>
<rscale>  0 0.84060129E+03</rscale>
<asrwt>0</asrwt>
<pdfrwt beam="1">  1        2 0.21651287E+00 0.91456767E+03</pdfrwt>
<pdfrwt beam="2">  1       -2 0.18791152E+00 0.91456767E+03</pdfrwt>
<totfact> 0.23026718E+00</totfact>
</mgrwt>
</event>
<event>
 4    5  0.1112901E-007  0.6863568E+03  0.7818608E-02  0.1005935E+00
         -2   -1    0    0    0  501 -0.00000000000E+00  0.00000000000E+00  0.22570851197E+03  0.22570851198E+03  0.25500000000E-02 0.  1.
          2   -1    0    0  501    0  0.00000000000E+00 -0.00000000000E+00 -0.13931250073E+04  0.13931250073E+04  0.25500000000E-02 0. -1.
    8880023    1    1    2    0    0  0.75496840805E+02 -0.17769554594E+03 -0.36072259729E+03  0.77537505665E+03  0.65864270000E+03 0.  0.
    8880022    1    1    2    0    0 -0.75496840805E+02  0.17769554594E+03 -0.80669389801E+03  0.84345846259E+03  0.15294330000E+03 0.  0.
<mgrwt>
<rscale>  0 0.53122885E+03</rscale>
<asrwt>0</asrwt>
<pdfrwt beam="1">  1        2 0.21432692E+00 0.68635682E+03</pdfrwt>
<pdfrwt beam="2">  1       -2 0.34724387E-01 0.68635682E+03</pdfrwt>
<totfact> 0.11605536E+02</totfact>
</mgrwt>
</event>
<event>
 4    5  0.1112901E-007  0.1007891E+04  0.7818608E-02  0.9371306E-01
          2   -1    0    0  501    0  0.00000000000E+00  0.00000000000E+00  0.11847117471E+04  0.11847117471E+04  0.25500000000E-02 0. -1.
         -2   -1    0    0    0  501 -0.00000000000E+00 -0.00000000000E+00 -0.13703719693E+04  0.13703719693E+04  0.25500000000E-02 0.  1.
    8880023    1    1    2    0    0 -0.39526973739E+03 -0.65253043136E+03 -0.10062730407E+04  0.14242295348E+04  0.65864270000E+03 0.  0.
    8880022    1    1    2    0    0  0.39526973739E+03  0.65253043136E+03  0.82061281845E+03  0.11308541816E+04  0.15294330000E+03 0.  0.
<mgrwt>
<rscale>  0 0.94475196E+03</rscale>
<asrwt>0</asrwt>
<pdfrwt beam="1">  1        2 0.18226335E+00 0.10078910E+04</pdfrwt>
<pdfrwt beam="2">  1       -2 0.21082646E+00 0.10078910E+04</pdfrwt>
<totfact> 0.21707070E+00</totfact>
</mgrwt>
</event>
<event>
 4    5  0.1112901E-007  0.8217439E+03  0.7818608E-02  0.9665615E-01
         -2   -1    0    0    0  501 -0.00000000000E+00  0.00000000000E+00  0.22702647068E+03  0.22702647070E+03  0.25500000000E-02 0.  1.
          2   -1    0    0  501    0  0.00000000000E+00 -0.00000000000E+00 -0.22784213812E+04  0.22784213812E+04  0.25500000000E-02 0. -1.
    8880023    1    1    2    0    0  0.30623911666E+03  0.38427911207E+03 -0.77641677072E+03  0.11305246749E+04  0.65864270000E+03 0.  1.
    8880022    1    1    2    0    0 -0.30623911666E+03 -0.38427911207E+03 -0.12749781398E+04  0.13749231770E+04  0.15294330000E+03 0.  0.
<mgrwt>
<rscale>  0 0.73101491E+03</rscale>
<asrwt>0</asrwt>
<pdfrwt beam="1">  1        2 0.35052635E+00 0.82174390E+03</pdfrwt>
<pdfrwt beam="2">  1       -2 0.34927151E-01 0.82174390E+03</pdfrwt>
<totfact> 0.36859411E+01</totfact>
</mgrwt>
</event>
<event>
 4    5  0.1112901E-007  0.1275279E+04  0.7818608E-02  0.9087207E-01
         -2   -1    0    0    0  501 -0.00000000000E+00  0.00000000000E+00  0.98827365706E+03  0.98827365706E+03  0.25500000000E-02 0.  1.
          2   -1    0    0  501    0  0.00000000000E+00 -0.00000000000E+00 -0.24236155310E+04  0.24236155310E+04  0.25500000000E-02 0. -1.
    8880023    1    1    2    0    0  0.64493972223E+03  0.88123767693E+03  0.34193735689E+03  0.13203251307E+04  0.65864270000E+03 0.  0.
    8880022    1    1    2    0    0 -0.64493972223E+03 -0.88123767693E+03 -0.17772792308E+04  0.20915640573E+04  0.15294330000E+03 0.  0.
<mgrwt>
<rscale>  0 0.12297506E+04</rscale>
<asrwt>0</asrwt>
<pdfrwt beam="1">  1        2 0.37286393E+00 0.12752793E+04</pdfrwt>
<pdfrwt beam="2">  1       -2 0.15204210E+00 0.12752793E+04</pdfrwt>
<totfact> 0.10777768E+00</totfact>
</mgrwt>
</event>
<event>
 4    5  0.1112901E-007  0.7746156E+03  0.7818608E-02  0.9768640E-01
         -2   -1    0    0    0  501 -0.00000000000E+00  0.00000000000E+00  0.92150318559E+03  0.92150318559E+03  0.25500000000E-02 0.  1.
          2   -1    0    0  501    0  0.00000000000E+00 -0.00000000000E+00 -0.58696005537E+03  0.58696005538E+03  0.25500000000E-02 0. -1.
    8880023    1    1    2    0    0 -0.24896743095E+03  0.32285343861E+03  0.61624603099E+03  0.98984266501E+03  0.65864270000E+03 0.  1.
    8880022    1    1    2    0    0  0.24896743095E+03 -0.32285343861E+03 -0.28170290078E+03  0.51862057596E+03  0.15294330000E+03 0.  0.
<mgrwt>
<rscale>  0 0.67072973E+03</rscale>
<asrwt>0</asrwt>
<pdfrwt beam="1">  1        2 0.90301547E-01 0.77461560E+03</pdfrwt>
<pdfrwt beam="2">  1       -2 0.14176972E+00 0.77461560E+03</pdfrwt>
<totfact> 0.17907498E+01</totfact>
</mgrwt>
</event>
<event>
 4    5  0.1112901E-007  0.7964441E+03  0.7818608E-02  0.9718538E-01
         -2   -1    0    0    0  501 -0.00000000000E+00  0.00000000000E+00  0.31253100437E+03  0.31253100438E+03  0.25500000000E-02 0.  1.
          2   -1    0    0  501    0  0.00000000000E+00 -0.00000000000E+00 -0.14189483693E+04  0.14189483693E+04  0.25500000000E-02 0. -1.
    8880023    1    1    2    0    0  0.43741500113E+03 -0.95818296987E+02 -0.93493296651E+03  0.12281786871E+04  0.65864270000E+03 0.  0.
    8880022    1    1    2    0    0 -0.43741500113E+03  0.95818296987E+02 -0.17148439846E+03  0.50330068665E+03  0.15294330000E+03 0.  0.
<mgrwt>
<rscale>  0 0.69923697E+03</rscale>
<asrwt>0</asrwt>
<pdfrwt beam="1">  1        2 0.21829975E+00 0.79644412E+03</pdfrwt>
<pdfrwt beam="2">  1       -2 0.48081693E-01 0.79644412E+03</pdfrwt>
<totfact> 0.58729158E+01</totfact>
</mgrwt>
</event>
<event>
 4    5  0.1112901E-007  0.1502677E+04  0.7818608E-02  0.8907748E-01
          2   -1    0    0  501    0  0.00000000000E+00  0.00000000000E+00  0.23798591766E+04  0.23798591766E+04  0.25500000000E-02 0. -1.
         -2   -1    0    0    0  501 -0.00000000000E+00 -0.00000000000E+00 -0.10246133039E+04  0.10246133039E+04  0.25500000000E-02 0.  1.
    8880023    1    1    2    0    0 -0.13506261390E+04  0.60521338320E+01  0.25438221130E+02  0.15028921801E+04  0.65864270000E+03 0.  0.
    8880022    1    1    2    0    0  0.13506261390E+04 -0.60521338320E+01  0.13298076515E+04  0.19015803004E+04  0.15294330000E+03 0.  0.
<mgrwt>
<rscale>  0 0.14654661E+04</rscale>
<asrwt>0</asrwt>
<pdfrwt beam="1">  1        2 0.36613218E+00 0.15026769E+04</pdfrwt>
<pdfrwt beam="2">  1       -2 0.15763282E+00 0.15026769E+04</pdfrwt>
<totfact> 0.10101170E+00</totfact>
</mgrwt>
</event>
<event>
 4    5  0.1112901E-007  0.6595855E+03  0.7818608E-02  0.1024585E+00
          2   -1    0    0  501    0  0.00000000000E+00  0.00000000000E+00  0.10859575305E+04  0.10859575305E+04  0.25500000000E-02 0. -1.
         -2   -1    0    0    0  501 -0.00000000000E+00 -0.00000000000E+00 -0.80654134848E+03  0.80654134848E+03  0.25500000000E-02 0.  1.
    8880023    1    1    2    0    0 -0.18736334630E+02 -0.29863479777E+02 -0.66411454964E+03  0.93600278790E+03  0.65864270000E+03 0.  1.
    8880022    1    1    2    0    0  0.18736334630E+02  0.29863479777E+02  0.94353073165E+03  0.95649609108E+03  0.15294330000E+03 0.  0.
<mgrwt>
<rscale>  0 0.46067684E+03</rscale>
<asrwt>0</asrwt>
<pdfrwt beam="1">  1        2 0.16707039E+00 0.65958554E+03</pdfrwt>
<pdfrwt beam="2">  1       -2 0.12408328E+00 0.65958554E+03</pdfrwt>
<totfact> 0.11183145E+01</totfact>
</mgrwt>
</event>
<event>
 4    5  0.1112901E-007  0.6619682E+03  0.7818608E-02  0.1022225E+00
         -2   -1    0    0    0  501 -0.00000000000E+00  0.00000000000E+00  0.19682818127E+03  0.19682818128E+03  0.25500000000E-02 0.  1.
          2   -1    0    0  501    0  0.00000000000E+00 -0.00000000000E+00 -0.14714917331E+04  0.14714917331E+04  0.25500000000E-02 0. -1.
    8880023    1    1    2    0    0 -0.19618640533E+02  0.63299139205E+02 -0.39046436995E+03  0.76854687726E+03  0.65864270000E+03 0.  1.
    8880022    1    1    2    0    0  0.19618640533E+02 -0.63299139205E+02 -0.88419918186E+03  0.89977303710E+03  0.15294330000E+03 0.  0.
<mgrwt>
<rscale>  0 0.46892228E+03</rscale>
<asrwt>0</asrwt>
<pdfrwt beam="1">  1        2 0.22638334E+00 0.66196819E+03</pdfrwt>
<pdfrwt beam="2">  1       -2 0.30281260E-01 0.66196819E+03</pdfrwt>
<totfact> 0.13593742E+02</totfact>
</mgrwt>
</event>
<event>
 4    5  0.1112901E-007  0.9454906E+03  0.7818608E-02  0.9456632E-01
          2   -1    0    0  501    0  0.00000000000E+00  0.00000000000E+00  0.10181478980E+04  0.10181478980E+04  0.25500000000E-02 0. -1.
         -2   -1    0    0    0  501 -0.00000000000E+00 -0.00000000000E+00 -0.71482343586E+03  0.71482343586E+03  0.25500000000E-02 0.  1.
    8880023    1    1    2    0    0  0.42716722140E+03  0.52694451796E+03 -0.61922980166E+02  0.94751623827E+03  0.65864270000E+03 0.  0.
    8880022    1    1    2    0    0 -0.42716722140E+03 -0.52694451796E+03  0.36524744230E+03  0.78545509558E+03  0.15294330000E+03 0.  0.
<mgrwt>
<rscale>  0 0.87558096E+03</rscale>
<asrwt>0</asrwt>
<pdfrwt beam="1">  1        2 0.15663814E+00 0.94549065E+03</pdfrwt>
<pdfrwt beam="2">  1       -2 0.10997284E+00 0.94549065E+03</pdfrwt>
<totfact> 0.16086841E+01</totfact>
</mgrwt>
</event>
<event>
 4    5  0.1112901E-007  0.6988010E+03  0.7818608E-02  0.1000221E+00
          2   -1    0    0  501    0  0.00000000000E+00  0.00000000000E+00  0.35495463974E+04  0.35495463974E+04  0.25500000000E-02 0. -1.
         -2   -1    0    0    0  501 -0.00000000000E+00 -0.00000000000E+00 -0.86772597676E+02  0.86772597713E+02  0.25500000000E-02 0.  1.
    8880023    1    1    2    0    0 -0.22618522142E+03  0.57904170215E+02  0.15119303724E+04  0.16656098896E+04  0.65864270000E+03 0.  1.
    8880022    1    1    2    0    0  0.22618522142E+03 -0.57904170215E+02  0.19508434274E+04  0.19707091055E+04  0.15294330000E+03 0.  0.
<mgrwt>
<rscale>  0 0.55553359E+03</rscale>
<asrwt>0</asrwt>
<pdfrwt beam="1">  1        2 0.54608393E+00 0.69880101E+03</pdfrwt>
<pdfrwt beam="2">  1       -2 0.13349634E-01 0.69880101E+03</pdfrwt>
<totfact> 0.34773698E+01</totfact>
</mgrwt>
</event>
<event>
 4    5  0.1112901E-007  0.1197867E+04  0.7818608E-02  0.9159199E-01
          2   -1    0    0  501    0  0.00000000000E+00  0.00000000000E+00  0.23243024394E+04  0.23243024394E+04  0.25500000000E-02 0. -1.
         -2   -1    0    0    0  501 -0.00000000000E+00 -0.00000000000E+00 -0.79259687800E+03  0.79259687800E+03  0.25500000000E-02 0.  1.
    8880023    1    1    2    0    0  0.32312581810E+03  0.94692369579E+03 -0.94332284840E+02  0.12015754517E+04  0.65864270000E+03 0.  0.
    8880022    1    1    2    0    0 -0.32312581810E+03 -0.94692369579E+03  0.16260378462E+04  0.19153238656E+04  0.15294330000E+03 0.  0.
<mgrwt>
<rscale>  0 0.11484673E+04</rscale>
<asrwt>0</asrwt>
<pdfrwt beam="1">  1        2 0.35758498E+00 0.11978668E+04</pdfrwt>
<pdfrwt beam="2">  1       -2 0.12193798E+00 0.11978668E+04</pdfrwt>
<totfact> 0.21933591E+00</totfact>
</mgrwt>
</event>
<event>
 4    5  0.1112901E-007  0.7547322E+03  0.7818608E-02  0.9818941E-01
          2   -1    0    0  501    0  0.00000000000E+00  0.00000000000E+00  0.39251381285E+04  0.39251381285E+04  0.25500000000E-02 0. -1.
         -2   -1    0    0    0  501 -0.00000000000E+00 -0.00000000000E+00 -0.20910831935E+03  0.20910831936E+03  0.25500000000E-02 0.  1.
    8880023    1    1    2    0    0  0.15194398577E+03  0.33574315533E+03  0.52738916196E+03  0.92073882050E+03  0.65864270000E+03 0.  1.
    8880022    1    1    2    0    0 -0.15194398577E+03 -0.33574315533E+03  0.31886406472E+04  0.32135076274E+04  0.15294330000E+03 0.  0.
<mgrwt>
<rscale>  0 0.64355881E+03</rscale>
<asrwt>0</asrwt>
<pdfrwt beam="1">  1        2 0.60386737E+00 0.75473217E+03</pdfrwt>
<pdfrwt beam="2">  1       -2 0.32170513E-01 0.75473217E+03</pdfrwt>
<totfact> 0.38891068E+00</totfact>
</mgrwt>
</event>
<event>
 4    5  0.1112901E-007  0.1646150E+04  0.7818608E-02  0.8812783E-01
         -2   -1    0    0    0  501 -0.00000000000E+00  0.00000000000E+00  0.12014678089E+04  0.12014678089E+04  0.25500000000E-02 0.  1.
          2   -1    0    0  501    0  0.00000000000E+00 -0.00000000000E+00 -0.28629525993E+04  0.28629525993E+04  0.25500000000E-02 0. -1.
    8880023    1    1    2    0    0 -0.11781157311E+04  0.94236049068E+03  0.20581688560E+03  0.16589667769E+04  0.65864270000E+03 0.  0.
    8880022    1    1    2    0    0  0.11781157311E+04 -0.94236049068E+03 -0.18673016760E+04  0.24054536313E+04  0.15294330000E+03 0.  0.
<mgrwt>
<rscale>  0 0.16127004E+04</rscale>
<asrwt>0</asrwt>
<pdfrwt beam="1">  1        2 0.44045424E+00 0.16461501E+04</pdfrwt>
<pdfrwt beam="2">  1       -2 0.18484120E+00 0.16461501E+04</pdfrwt>
<totfact> 0.32982810E-01</totfact>
</mgrwt>
</event>
<event>
 4    5  0.1112901E-007  0.1140486E+04  0.7818608E-02  0.9217265E-01
         -2   -1    0    0    0  501 -0.00000000000E+00  0.00000000000E+00  0.14944650439E+04  0.14944650439E+04  0.25500000000E-02 0.  1.
          2   -1    0    0  501    0  0.00000000000E+00 -0.00000000000E+00 -0.16738509929E+04  0.16738509929E+04  0.25500000000E-02 0. -1.
    8880023    1    1    2    0    0  0.33028469627E+03  0.87052251011E+03  0.10960637664E+04  0.15817912022E+04  0.65864270000E+03 0.  0.
    8880022    1    1    2    0    0 -0.33028469627E+03 -0.87052251011E+03 -0.12754497154E+04  0.15865248346E+04  0.15294330000E+03 0.  0.
<mgrwt>
<rscale>  0 0.10876991E+04</rscale>
<asrwt>0</asrwt>
<pdfrwt beam="1">  1        2 0.25751554E+00 0.11404857E+04</pdfrwt>
<pdfrwt beam="2">  1       -2 0.22991770E+00 0.11404857E+04</pdfrwt>
<totfact> 0.84908598E-01</totfact>
</mgrwt>
</event>
<event>
 4    5  0.1112901E-007  0.6588823E+03  0.7818608E-02  0.1025332E+00
          2   -1    0    0  501    0  0.00000000000E+00  0.00000000000E+00  0.11150710363E+04  0.11150710363E+04  0.25500000000E-02 0. -1.
         -2   -1    0    0    0  501 -0.00000000000E+00 -0.00000000000E+00 -0.80127199429E+03  0.80127199429E+03  0.25500000000E-02 0.  1.
    8880023    1    1    2    0    0 -0.16838042128E+02  0.56734579403E+01 -0.65873489739E+03  0.93169607656E+03  0.65864270000E+03 0.  1.
    8880022    1    1    2    0    0  0.16838042128E+02 -0.56734579403E+01  0.97253393939E+03  0.98464695402E+03  0.15294330000E+03 0.  0.
<mgrwt>
<rscale>  0 0.45810633E+03</rscale>
<asrwt>0</asrwt>
<pdfrwt beam="1">  1        2 0.17154939E+00 0.65888232E+03</pdfrwt>
<pdfrwt beam="2">  1       -2 0.12327261E+00 0.65888232E+03</pdfrwt>
<totfact> 0.10913864E+01</totfact>
</mgrwt>
</event>
<event>
 4    5  0.1112901E-007  0.6870128E+03  0.7818608E-02  0.1005606E+00
         -2   -1    0    0    0  501 -0.00000000000E+00  0.00000000000E+00  0.23743196398E+04  0.23743196398E+04  0.25500000000E-02 0.  1.
          2   -1    0    0  501    0  0.00000000000E+00 -0.00000000000E+00 -0.22398588737E+03  0.22398588739E+03  0.25500000000E-02 0. -1.
    8880023    1    1    2    0    0  0.76388919190E+02  0.17983641838E+03  0.22333716587E+04  0.23366505038E+04  0.65864270000E+03 0.  1.
    8880022    1    1    2    0    0 -0.76388919190E+02 -0.17983641838E+03 -0.83037906367E+02  0.26165502338E+03  0.15294330000E+03 0.  0.
<mgrwt>
<rscale>  0 0.53259007E+03</rscale>
<asrwt>0</asrwt>
<pdfrwt beam="1">  1        2 0.34459369E-01 0.68701282E+03</pdfrwt>
<pdfrwt beam="2">  1       -2 0.36527992E+00 0.68701282E+03</pdfrwt>
<totfact> 0.20182328E+00</totfact>
</mgrwt>
</event>
<event>
 4    5  0.1112901E-007  0.7366530E+03  0.7818608E-02  0.9869806E-01
         -2   -1    0    0    0  501 -0.00000000000E+00  0.00000000000E+00  0.11041721155E+03  0.11041721158E+03  0.25500000000E-02 0.  1.
          2   -1    0    0  501    0  0.00000000000E+00 -0.00000000000E+00 -0.30967903573E+04  0.30967903573E+04  0.25500000000E-02 0. -1.
    8880023    1    1    2    0    0 -0.32198992143E+03  0.71902454032E+02 -0.14261566062E+04  0.16051729950E+04  0.65864270000E+03 0.  0.
    8880022    1    1    2    0    0  0.32198992143E+03 -0.71902454032E+02 -0.15602165396E+04  0.16020345738E+04  0.15294330000E+03 0.  0.
<mgrwt>
<rscale>  0 0.61747194E+03</rscale>
<asrwt>0</asrwt>
<pdfrwt beam="1">  1        2 0.47642922E+00 0.73665302E+03</pdfrwt>
<pdfrwt beam="2">  1       -2 0.16987266E-01 0.73665302E+03</pdfrwt>
<totfact> 0.45470871E+01</totfact>
</mgrwt>
</event>
<event>
 4    5  0.1112901E-007  0.6847952E+03  0.7818608E-02  0.1006732E+00
          2   -1    0    0  501    0  0.00000000000E+00  0.00000000000E+00  0.32423277622E+04  0.32423277622E+04  0.25500000000E-02 0. -1.
         -2   -1    0    0    0  501 -0.00000000000E+00 -0.00000000000E+00 -0.91917036860E+02  0.91917036896E+02  0.25500000000E-02 0.  1.
    8880023    1    1    2    0    0 -0.18669187962E+03  0.16743710604E+02  0.13117849181E+04  0.14797716335E+04  0.65864270000E+03 0.  1.
    8880022    1    1    2    0    0  0.18669187962E+03 -0.16743710604E+02  0.18386258073E+04  0.18544731656E+04  0.15294330000E+03 0.  0.
<mgrwt>
<rscale>  0 0.52794538E+03</rscale>
<asrwt>0</asrwt>
<pdfrwt beam="1">  1        2 0.49881959E+00 0.68479516E+03</pdfrwt>
<pdfrwt beam="2">  1       -2 0.14141085E-01 0.68479516E+03</pdfrwt>
<totfact> 0.50636989E+01</totfact>
</mgrwt>
</event>
<event>
 4    5  0.1112901E-007  0.6725074E+03  0.7818608E-02  0.1013926E+00
          2   -1    0    0  501    0  0.00000000000E+00  0.00000000000E+00  0.12228633802E+04  0.12228633802E+04  0.25500000000E-02 0. -1.
         -2   -1    0    0    0  501 -0.00000000000E+00 -0.00000000000E+00 -0.18052190485E+03  0.18052190487E+03  0.25500000000E-02 0.  1.
    8880023    1    1    2    0    0  0.15630219959E+02  0.13495082738E+03  0.54500167341E+03  0.86561715548E+03  0.65864270000E+03 0.  1.
    8880022    1    1    2    0    0 -0.15630219959E+02 -0.13495082738E+03  0.49733980190E+03  0.53776812955E+03  0.15294330000E+03 0. -1.
<mgrwt>
<rscale>  0 0.49943818E+03</rscale>
<asrwt>0</asrwt>
<pdfrwt beam="1">  1        2 0.18813283E+00 0.67250742E+03</pdfrwt>
<pdfrwt beam="2">  1       -2 0.27772600E-01 0.67250742E+03</pdfrwt>
<totfact> 0.22067736E+02</totfact>
</mgrwt>
</event>
<event>
 4    5  0.1112901E-007  0.8906142E+03  0.7818608E-02  0.9541270E-01
         -2   -1    0    0    0  501 -0.00000000000E+00  0.00000000000E+00  0.36382413154E+03  0.36382413155E+03  0.25500000000E-02 0.  1.
          2   -1    0    0  501    0  0.00000000000E+00 -0.00000000000E+00 -0.18602058730E+04  0.18602058730E+04  0.25500000000E-02 0. -1.
    8880023    1    1    2    0    0  0.42841920306E+03  0.41933325910E+03 -0.42495490024E+03  0.98680305494E+03  0.65864270000E+03 0.  0.
    8880022    1    1    2    0    0 -0.42841920306E+03 -0.41933325910E+03 -0.10714268412E+04  0.12372269496E+04  0.15294330000E+03 0.  0.
<mgrwt>
<rscale>  0 0.81308351E+03</rscale>
<asrwt>0</asrwt>
<pdfrwt beam="1">  1        2 0.28618551E+00 0.89061417E+03</pdfrwt>
<pdfrwt beam="2">  1       -2 0.55972944E-01 0.89061417E+03</pdfrwt>
<totfact> 0.24268048E+01</totfact>
</mgrwt>
</event>
<event>
 4    5  0.1112901E-007  0.1028087E+04  0.7818608E-02  0.9345700E-01
         -2   -1    0    0    0  501 -0.00000000000E+00  0.00000000000E+00  0.82659135129E+03  0.82659135130E+03  0.25500000000E-02 0.  1.
          2   -1    0    0  501    0  0.00000000000E+00 -0.00000000000E+00 -0.22994059611E+04  0.22994059611E+04  0.25500000000E-02 0. -1.
    8880023    1    1    2    0    0  0.44332779332E+03  0.65315631981E+03  0.38801653102E+03  0.10988720331E+04  0.65864270000E+03 0.  0.
    8880022    1    1    2    0    0 -0.44332779332E+03 -0.65315631981E+03 -0.18608311409E+04  0.20271252794E+04  0.15294330000E+03 0. -1.
<mgrwt>
<rscale>  0 0.96682350E+03</rscale>
<asrwt>0</asrwt>
<pdfrwt beam="1">  1        2 0.35375476E+00 0.10280870E+04</pdfrwt>
<pdfrwt beam="2">  1       -2 0.12716790E+00 0.10280870E+04</pdfrwt>
<totfact> 0.20816006E+00</totfact>
</mgrwt>
</event>
<event>
 4    5  0.1112901E-007  0.1456148E+04  0.7818608E-02  0.8941238E-01
          2   -1    0    0  501    0  0.00000000000E+00  0.00000000000E+00  0.41165639872E+04  0.41165639872E+04  0.25500000000E-02 0. -1.
         -2   -1    0    0    0  501 -0.00000000000E+00 -0.00000000000E+00 -0.56946070351E+03  0.56946070352E+03  0.25500000000E-02 0.  1.
    8880023    1    1    2    0    0 -0.78660750500E+03  0.10333473635E+04  0.28587978794E+04  0.32082851591E+04  0.65864270000E+03 0. -1.
    8880022    1    1    2    0    0  0.78660750500E+03 -0.10333473635E+04  0.68830540422E+03  0.14777395315E+04  0.15294330000E+03 0.  0.
<mgrwt>
<rscale>  0 0.14175134E+04</rscale>
<asrwt>0</asrwt>
<pdfrwt beam="1">  1        2 0.63331754E+00 0.14561485E+04</pdfrwt>
<pdfrwt beam="2">  1       -2 0.87609339E-01 0.14561485E+04</pdfrwt>
<totfact> 0.30221466E-01</totfact>
</mgrwt>
</event>
<event>
 4    5  0.1112901E-007  0.1168779E+04  0.7818608E-02  0.9188085E-01
          2   -1    0    0  501    0  0.00000000000E+00  0.00000000000E+00  0.36543235513E+04  0.36543235513E+04  0.25500000000E-02 0. -1.
         -2   -1    0    0    0  501 -0.00000000000E+00 -0.00000000000E+00 -0.46191788555E+03  0.46191788556E+03  0.25500000000E-02 0.  1.
    8880023    1    1    2    0    0  0.75657617002E+03  0.59985617466E+03  0.53628787244E+03  0.12859431635E+04  0.65864270000E+03 0.  0.
    8880022    1    1    2    0    0 -0.75657617002E+03 -0.59985617466E+03  0.26561177933E+04  0.28302982734E+04  0.15294330000E+03 0.  0.
<mgrwt>
<rscale>  0 0.11177262E+04</rscale>
<asrwt>0</asrwt>
<pdfrwt beam="1">  1        2 0.56220364E+00 0.11687793E+04</pdfrwt>
<pdfrwt beam="2">  1       -2 0.71064288E-01 0.11687793E+04</pdfrwt>
<totfact> 0.11490445E+00</totfact>
</mgrwt>
</event>
<event>
 4    5  0.1112901E-007  0.9811741E+03  0.7818608E-02  0.9406613E-01
          2   -1    0    0  501    0  0.00000000000E+00  0.00000000000E+00  0.16958907044E+04  0.16958907044E+04  0.25500000000E-02 0. -1.
         -2   -1    0    0    0  501 -0.00000000000E+00 -0.00000000000E+00 -0.74217585616E+03  0.74217585617E+03  0.25500000000E-02 0.  1.
    8880023    1    1    2    0    0  0.59664318550E+03 -0.41582375649E+03 -0.25988011968E+03  0.10150075715E+04  0.65864270000E+03 0.  0.
    8880022    1    1    2    0    0 -0.59664318550E+03  0.41582375649E+03  0.12135949679E+04  0.14230589891E+04  0.15294330000E+03 0.  0.
<mgrwt>
<rscale>  0 0.91533463E+03</rscale>
<asrwt>0</asrwt>
<pdfrwt beam="1">  1        2 0.26090626E+00 0.98117414E+03</pdfrwt>
<pdfrwt beam="2">  1       -2 0.11418090E+00 0.98117414E+03</pdfrwt>
<totfact> 0.59045580E+00</totfact>
</mgrwt>
</event>
<event>
 4    5  0.1112901E-007  0.6853965E+03  0.7818608E-02  0.1006422E+00
          2   -1    0    0  501    0  0.00000000000E+00  0.00000000000E+00  0.86251408628E+03  0.86251408628E+03  0.25500000000E-02 0. -1.
         -2   -1    0    0    0  501 -0.00000000000E+00 -0.00000000000E+00 -0.68969032596E+03  0.68969032597E+03  0.25500000000E-02 0.  1.
    8880023    1    1    2    0    0  0.15610564815E+02 -0.18898275718E+03 -0.49229484752E+03  0.84387356600E+03  0.65864270000E+03 0.  1.
    8880022    1    1    2    0    0 -0.15610564815E+02  0.18898275718E+03  0.66511860783E+03  0.70833084625E+03  0.15294330000E+03 0.  0.
<mgrwt>
<rscale>  0 0.52921707E+03</rscale>
<asrwt>0</asrwt>
<pdfrwt beam="1">  1        2 0.13269447E+00 0.68539651E+03</pdfrwt>
<pdfrwt beam="2">  1       -2 0.10610620E+00 0.68539651E+03</pdfrwt>
<totfact> 0.22781557E+01</totfact>
</mgrwt>
</event>
<event>
 4    5  0.1112901E-007  0.9907313E+03  0.7818608E-02  0.9393786E-01
         -2   -1    0    0    0  501 -0.00000000000E+00  0.00000000000E+00  0.41938371131E+03  0.41938371132E+03  0.25500000000E-02 0.  1.
          2   -1    0    0  501    0  0.00000000000E+00 -0.00000000000E+00 -0.19942059382E+04  0.19942059382E+04  0.25500000000E-02 0. -1.
    8880023    1    1    2    0    0  0.28429158277E+03  0.68331294602E+03 -0.52848880800E+03  0.11228752881E+04  0.65864270000E+03 0.  0.
    8880022    1    1    2    0    0 -0.28429158277E+03 -0.68331294602E+03 -0.10463334189E+04  0.12907143614E+04  0.15294330000E+03 0.  0.
<mgrwt>
<rscale>  0 0.92588868E+03</rscale>
<asrwt>0</asrwt>
<pdfrwt beam="1">  1        2 0.30680091E+00 0.99073129E+03</pdfrwt>
<pdfrwt beam="2">  1       -2 0.64520572E-01 0.99073129E+03</pdfrwt>
<totfact> 0.14994489E+01</totfact>
</mgrwt>
</event>
<event>
 4    5  0.1112901E-007  0.1341204E+04  0.7818608E-02  0.9030770E-01
          2   -1    0    0  501    0  0.00000000000E+00  0.00000000000E+00  0.24954272729E+04  0.24954272729E+04  0.25500000000E-02 0. -1.
         -2   -1    0    0    0  501 -0.00000000000E+00 -0.00000000000E+00 -0.86299607884E+03  0.86299607884E+03  0.25500000000E-02 0.  1.
    8880023    1    1    2    0    0  0.20351591344E+03 -0.11504772570E+04 -0.48629237581E+01  0.13412123248E+04  0.65864270000E+03 0.  0.
    8880022    1    1    2    0    0 -0.20351591344E+03  0.11504772570E+04  0.16372941179E+04  0.20172110270E+04  0.15294330000E+03 0.  1.
<mgrwt>
<rscale>  0 0.12984812E+04</rscale>
<asrwt>0</asrwt>
<pdfrwt beam="1">  1        2 0.38391188E+00 0.13412035E+04</pdfrwt>
<pdfrwt beam="2">  1       -2 0.13276863E+00 0.13412035E+04</pdfrwt>
<totfact> 0.13888537E+00</totfact>
</mgrwt>
</event>
<event>
 4    5  0.1112901E-007  0.7086163E+03  0.7818608E-02  0.9963176E-01
         -2   -1    0    0    0  501 -0.00000000000E+00  0.00000000000E+00  0.49474641710E+03  0.49474641711E+03  0.25500000000E-02 0.  1.
          2   -1    0    0  501    0  0.00000000000E+00 -0.00000000000E+00 -0.86127194541E+03  0.86127194541E+03  0.25500000000E-02 0. -1.
    8880023    1    1    2    0    0 -0.25877356511E+03 -0.36919598036E+02  0.18006343139E+03  0.73113600671E+03  0.65864270000E+03 0.  0.
    8880022    1    1    2    0    0  0.25877356511E+03  0.36919598036E+02 -0.54658895970E+03  0.62488235581E+03  0.15294330000E+03 0.  0.
<mgrwt>
<rscale>  0 0.57294831E+03</rscale>
<asrwt>0</asrwt>
<pdfrwt beam="1">  1        2 0.13250338E+00 0.70861627E+03</pdfrwt>
<pdfrwt beam="2">  1       -2 0.76114833E-01 0.70861627E+03</pdfrwt>
<totfact> 0.49021174E+01</totfact>
</mgrwt>
</event>
<event>
 4    5  0.1112901E-007  0.2070559E+04  0.7818608E-02  0.8586013E-01
          2   -1    0    0  501    0  0.00000000000E+00  0.00000000000E+00  0.14944419556E+04  0.14944419556E+04  0.25500000000E-02 0. -1.
         -2   -1    0    0    0  501 -0.00000000000E+00 -0.00000000000E+00 -0.32951354065E+04  0.32951354065E+04  0.25500000000E-02 0.  1.
    8880023    1    1    2    0    0 -0.19601307754E+04 -0.10626622647E+03  0.72629694876E+02  0.20718326300E+04  0.65864270000E+03 0.  0.
    8880022    1    1    2    0    0  0.19601307754E+04  0.10626622647E+03 -0.18733231458E+04  0.27177447322E+04  0.15294330000E+03 0.  0.
<mgrwt>
<rscale>  0 0.20446777E+04</rscale>
<asrwt>0</asrwt>
<pdfrwt beam="1">  1        2 0.22991415E+00 0.20705592E+04</pdfrwt>
<pdfrwt beam="2">  1       -2 0.50694391E+00 0.20705592E+04</pdfrwt>
<totfact> 0.16768028E-02</totfact>
</mgrwt>
</event>
<event>
 4    5  0.1112901E-007  0.7682217E+03  0.7818608E-02  0.9784269E-01
          2   -1    0    0  501    0  0.00000000000E+00  0.00000000000E+00  0.54892445783E+03  0.54892445783E+03  0.25500000000E-02 0. -1.
         -2   -1    0    0    0  501 -0.00000000000E+00 -0.00000000000E+00 -0.16000361366E+04  0.16000361366E+04  0.25500000000E-02 0.  1.
    8880023    1    1    2    0    0  0.36687886400E+03 -0.14749335273E+03 -0.14019659398E+04  0.15986472696E+04  0.65864270000E+03 0.  1.
    8880022    1    1    2    0    0 -0.36687886400E+03  0.14749335273E+03  0.35085426106E+03  0.55031332481E+03  0.15294330000E+03 0.  0.
<mgrwt>
<rscale>  0 0.66213623E+03</rscale>
<asrwt>0</asrwt>
<pdfrwt beam="1">  1        2 0.84449917E-01 0.76822171E+03</pdfrwt>
<pdfrwt beam="2">  1       -2 0.24615940E+00 0.76822171E+03</pdfrwt>
<totfact> 0.38425185E+00</totfact>
</mgrwt>
</event>
<event>
 4    5  0.1112901E-007  0.7230923E+03  0.7818608E-02  0.9912258E-01
          2   -1    0    0  501    0  0.00000000000E+00  0.00000000000E+00  0.21062587119E+04  0.21062587119E+04  0.25500000000E-02 0. -1.
         -2   -1    0    0    0  501 -0.00000000000E+00 -0.00000000000E+00 -0.29377877328E+03  0.29377877329E+03  0.25500000000E-02 0.  1.
    8880023    1    1    2    0    0 -0.32155978270E+02 -0.29667861616E+03  0.19605820037E+03  0.74920039537E+03  0.65864270000E+03 0.  1.
    8880022    1    1    2    0    0  0.32155978270E+02  0.29667861616E+03  0.16164217383E+04  0.16508370898E+04  0.15294330000E+03 0.  0.
<mgrwt>
<rscale>  0 0.59670854E+03</rscale>
<asrwt>0</asrwt>
<pdfrwt beam="1">  1        2 0.32403979E+00 0.72309226E+03</pdfrwt>
<pdfrwt beam="2">  1       -2 0.45196736E-01 0.72309226E+03</pdfrwt>
<totfact> 0.28110099E+01</totfact>
</mgrwt>
</event>
<event>
 4    5  0.1112901E-007  0.8342216E+03  0.7818608E-02  0.9641174E-01
         -2   -1    0    0    0  501 -0.00000000000E+00  0.00000000000E+00  0.51846706602E+03  0.51846706603E+03  0.25500000000E-02 0.  1.
          2   -1    0    0  501    0  0.00000000000E+00 -0.00000000000E+00 -0.14378456586E+04  0.14378456586E+04  0.25500000000E-02 0. -1.
    8880023    1    1    2    0    0 -0.28907444812E+03  0.42255348125E+03  0.64492032447E+02  0.83671076818E+03  0.65864270000E+03 0.  1.
    8880022    1    1    2    0    0  0.28907444812E+03 -0.42255348125E+03 -0.98387062501E+03  0.11196019564E+04  0.15294330000E+03 0.  0.
<mgrwt>
<rscale>  0 0.74629958E+03</rscale>
<asrwt>0</asrwt>
<pdfrwt beam="1">  1        2 0.22120702E+00 0.83422161E+03</pdfrwt>
<pdfrwt beam="2">  1       -2 0.79764165E-01 0.83422161E+03</pdfrwt>
<totfact> 0.19409268E+01</totfact>
</mgrwt>
</event>
<event>
 4    5  0.1112901E-007  0.9915015E+03  0.7818608E-02  0.9392762E-01
         -2   -1    0    0    0  501 -0.00000000000E+00  0.00000000000E+00  0.22019325450E+04  0.22019325450E+04  0.25500000000E-02 0.  1.
          2   -1    0    0  501    0  0.00000000000E+00 -0.00000000000E+00 -0.75883717652E+03  0.75883717652E+03  0.25500000000E-02 0. -1.
    8880023    1    1    2    0    0 -0.60627219090E+03 -0.42626172932E+03  0.18519333322E+04  0.21006504479E+04  0.65864270000E+03 0.  0.
    8880022    1    1    2    0    0  0.60627219090E+03  0.42626172932E+03 -0.40883796365E+03  0.86011927363E+03  0.15294330000E+03 0.  0.
<mgrwt>
<rscale>  0 0.92673769E+03</rscale>
<asrwt>0</asrwt>
<pdfrwt beam="1">  1        2 0.11674418E+00 0.99150151E+03</pdfrwt>
<pdfrwt beam="2">  1       -2 0.33875886E+00 0.99150151E+03</pdfrwt>
<totfact> 0.68413286E-01</totfact>
</mgrwt>
</event>
<event>
 4    5  0.1112901E-007  0.1097107E+04  0.7818608E-02  0.9264284E-01
          2   -1    0    0  501    0  0.00000000000E+00  0.00000000000E+00  0.90790623656E+03  0.90790623656E+03  0.25500000000E-02 0. -1.
         -2   -1    0    0    0  501 -0.00000000000E+00 -0.00000000000E+00 -0.14158127937E+04  0.14158127937E+04  0.25500000000E-02 0.  1.
    8880023    1    1    2    0    0  0.18680717055E+03  0.85728442723E+03 -0.83099229334E+03  0.13762964455E+04  0.65864270000E+03 0.  1.
    8880022    1    1    2    0    0 -0.18680717055E+03 -0.85728442723E+03  0.32308573618E+03  0.94742258475E+03  0.15294330000E+03 0.  0.
<mgrwt>
<rscale>  0 0.10413849E+04</rscale>
<asrwt>0</asrwt>
<pdfrwt beam="1">  1        2 0.13967788E+00 0.10971070E+04</pdfrwt>
<pdfrwt beam="2">  1       -2 0.21781735E+00 0.10971070E+04</pdfrwt>
<totfact> 0.29066662E+00</totfact>
</mgrwt>
</event>
<event>
 4    5  0.1112901E-007  0.1400355E+04  0.7818608E-02  0.8983407E-01
         -2   -1    0    0    0  501 -0.00000000000E+00  0.00000000000E+00  0.21741006397E+04  0.21741006397E+04  0.25500000000E-02 0.  1.
          2   -1    0    0  501    0  0.00000000000E+00 -0.00000000000E+00 -0.10160571080E+04  0.10160571080E+04  0.25500000000E-02 0. -1.
    8880023    1    1    2    0    0  0.47501189458E+03  0.11408533686E+04  0.13322103794E+04  0.19328159276E+04  0.65864270000E+03 0.  0.
    8880022    1    1    2    0    0 -0.47501189458E+03 -0.11408533686E+04 -0.17416684774E+03  0.12573418201E+04  0.15294330000E+03 0.  0.
<mgrwt>
<rscale>  0 0.13598471E+04</rscale>
<asrwt>0</asrwt>
<pdfrwt beam="1">  1        2 0.15631648E+00 0.14003546E+04</pdfrwt>
<pdfrwt beam="2">  1       -2 0.33447702E+00 0.14003546E+04</pdfrwt>
<totfact> 0.45900426E-01</totfact>
</mgrwt>
</event>
<event>
 4    5  0.1112901E-007  0.6755430E+03  0.7818608E-02  0.1011966E+00
         -2   -1    0    0    0  501 -0.00000000000E+00  0.00000000000E+00  0.31279728247E+03  0.31279728248E+03  0.25500000000E-02 0.  1.
          2   -1    0    0  501    0  0.00000000000E+00 -0.00000000000E+00 -0.44589331408E+04  0.44589331408E+04  0.25500000000E-02 0. -1.
    8880023    1    1    2    0    0  0.10754659825E+03 -0.10479471908E+03 -0.58053211988E+02  0.67803287946E+03  0.65864270000E+03 0.  1.
    8880022    1    1    2    0    0 -0.10754659825E+03  0.10479471908E+03 -0.40880826463E+04  0.40936975438E+04  0.15294330000E+03 0.  0.
<mgrwt>
<rscale>  0 0.50700644E+03</rscale>
<asrwt>0</asrwt>
<pdfrwt beam="1">  1        2 0.68598966E+00 0.67554305E+03</pdfrwt>
<pdfrwt beam="2">  1       -2 0.48122662E-01 0.67554305E+03</pdfrwt>
<totfact> 0.64223074E-01</totfact>
</mgrwt>
</event>
<event>
 4    5  0.1112901E-007  0.9479953E+03  0.7818608E-02  0.9453004E-01
         -2   -1    0    0    0  501 -0.00000000000E+00  0.00000000000E+00  0.75032640832E+03  0.75032640832E+03  0.25500000000E-02 0.  1.
          2   -1    0    0  501    0  0.00000000000E+00 -0.00000000000E+00 -0.27370491914E+04  0.27370491914E+04  0.25500000000E-02 0. -1.
    8880023    1    1    2    0    0 -0.36224886209E+03 -0.57763365415E+03  0.37874721239E+03  0.10208548054E+04  0.65864270000E+03 0.  0.
    8880022    1    1    2    0    0  0.36224886209E+03  0.57763365415E+03 -0.23654699955E+04  0.24665207944E+04  0.15294330000E+03 0.  0.
<mgrwt>
<rscale>  0 0.87839098E+03</rscale>
<asrwt>0</asrwt>
<pdfrwt beam="1">  1        2 0.42108449E+00 0.94799530E+03</pdfrwt>
<pdfrwt beam="2">  1       -2 0.11543483E+00 0.94799530E+03</pdfrwt>
<totfact> 0.15047871E+00</totfact>
</mgrwt>
</event>
<event>
 4    5  0.1112901E-007  0.1245579E+04  0.7818608E-02  0.9114042E-01
          2   -1    0    0  501    0  0.00000000000E+00  0.00000000000E+00  0.12215178267E+04  0.12215178267E+04  0.25500000000E-02 0. -1.
         -2   -1    0    0    0  501 -0.00000000000E+00 -0.00000000000E+00 -0.15302443787E+04  0.15302443787E+04  0.25500000000E-02 0.  1.
    8880023    1    1    2    0    0 -0.43959088716E+03  0.96146531783E+03 -0.89450217363E+03  0.15334927618E+04  0.65864270000E+03 0.  0.
    8880022    1    1    2    0    0  0.43959088716E+03 -0.96146531783E+03  0.58577562157E+03  0.12182694436E+04  0.15294330000E+03 0.  0.
<mgrwt>
<rscale>  0 0.11986470E+04</rscale>
<asrwt>0</asrwt>
<pdfrwt beam="1">  1        2 0.18792582E+00 0.12455785E+04</pdfrwt>
<pdfrwt beam="2">  1       -2 0.23542221E+00 0.12455785E+04</pdfrwt>
<totfact> 0.14063876E+00</totfact>
</mgrwt>
</event>
<event>
 4    5  0.1112901E-007  0.8686260E+03  0.7818608E-02  0.9578400E-01
          2   -1    0    0  501    0  0.00000000000E+00  0.00000000000E+00  0.23102954754E+04  0.23102954754E+04  0.25500000000E-02 0. -1.
         -2   -1    0    0    0  501 -0.00000000000E+00 -0.00000000000E+00 -0.41287598184E+03  0.41287598185E+03  0.25500000000E-02 0.  1.
    8880023    1    1    2    0    0 -0.16304246878E+03 -0.54232660147E+03  0.15200868098E+03  0.88182641979E+03  0.65864270000E+03 0.  1.
    8880022    1    1    2    0    0  0.16304246878E+03  0.54232660147E+03  0.17454108125E+04  0.18413450374E+04  0.15294330000E+03 0.  0.
<mgrwt>
<rscale>  0 0.78742474E+03</rscale>
<asrwt>0</asrwt>
<pdfrwt beam="1">  1        2 0.35543007E+00 0.86862604E+03</pdfrwt>
<pdfrwt beam="2">  1       -2 0.63519382E-01 0.86862604E+03</pdfrwt>
<totfact> 0.10517138E+01</totfact>
</mgrwt>
</event>
<event>
 4    5  0.1112901E-007  0.1007207E+04  0.7818608E-02  0.9372189E-01
         -2   -1    0    0    0  501 -0.00000000000E+00  0.00000000000E+00  0.99777289563E+03  0.99777289563E+03  0.25500000000E-02 0.  1.
          2   -1    0    0  501    0  0.00000000000E+00 -0.00000000000E+00 -0.95845019491E+03  0.95845019491E+03  0.25500000000E-02 0. -1.
    8880023    1    1    2    0    0 -0.48657918083E+03  0.58642696200E+03  0.41942814681E+03  0.10910481463E+04  0.65864270000E+03 0. -1.
    8880022    1    1    2    0    0  0.48657918083E+03 -0.58642696200E+03 -0.38010544609E+03  0.86517494424E+03  0.15294330000E+03 0.  0.
<mgrwt>
<rscale>  0 0.94400211E+03</rscale>
<asrwt>0</asrwt>
<pdfrwt beam="1">  1        2 0.14745388E+00 0.10072071E+04</pdfrwt>
<pdfrwt beam="2">  1       -2 0.15350352E+00 0.10072071E+04</pdfrwt>
<totfact> 0.74814495E+00</totfact>
</mgrwt>
</event>
<event>
 4    5  0.1112901E-007  0.6793854E+03  0.7818608E-02  0.1009673E+00
          2   -1    0    0  501    0  0.00000000000E+00  0.00000000000E+00  0.34538033272E+04  0.34538033272E+04  0.25500000000E-02 0. -1.
         -2   -1    0    0    0  501 -0.00000000000E+00 -0.00000000000E+00 -0.25127478994E+03  0.25127478996E+03  0.25500000000E-02 0.  1.
    8880023    1    1    2    0    0  0.33404657546E+02  0.16321275982E+03  0.22018922003E+03  0.71417629126E+03  0.65864270000E+03 0.  1.
    8880022    1    1    2    0    0 -0.33404657546E+02 -0.16321275982E+03  0.29823393172E+04  0.29909018259E+04  0.15294330000E+03 0.  0.
<mgrwt>
<rscale>  0 0.51604613E+03</rscale>
<asrwt>0</asrwt>
<pdfrwt beam="1">  1        2 0.53135437E+00 0.67938537E+03</pdfrwt>
<pdfrwt beam="2">  1       -2 0.38657659E-01 0.67938537E+03</pdfrwt>
<totfact> 0.60747421E+00</totfact>
</mgrwt>
</event>
<event>
 4    5  0.1112901E-007  0.1275750E+04  0.7818608E-02  0.9086789E-01
         -2   -1    0    0    0  501 -0.00000000000E+00  0.00000000000E+00  0.14776908094E+04  0.14776908094E+04  0.25500000000E-02 0.  1.
          2   -1    0    0  501    0  0.00000000000E+00 -0.00000000000E+00 -0.20501332430E+04  0.20501332430E+04  0.25500000000E-02 0. -1.
    8880023    1    1    2    0    0 -0.15872836568E+03  0.10809876343E+04  0.99022717357E+03  0.16149579008E+04  0.65864270000E+03 0.  1.
    8880022    1    1    2    0    0  0.15872836568E+03 -0.10809876343E+04 -0.15626696073E+04  0.19128661516E+04  0.15294330000E+03 0.  0.
<mgrwt>
<rscale>  0 0.12302433E+04</rscale>
<asrwt>0</asrwt>
<pdfrwt beam="1">  1        2 0.31540511E+00 0.12757504E+04</pdfrwt>
<pdfrwt beam="2">  1       -2 0.22733705E+00 0.12757504E+04</pdfrwt>
<totfact> 0.53580256E-01</totfact>
</mgrwt>
</event>
<event>
 4    5  0.1112901E-007  0.7387773E+03  0.7818608E-02  0.9863523E-01
          2   -1    0    0  501    0  0.00000000000E+00  0.00000000000E+00  0.29822169472E+04  0.29822169472E+04  0.25500000000E-02 0. -1.
         -2   -1    0    0    0  501 -0.00000000000E+00 -0.00000000000E+00 -0.30074846235E+03  0.30074846237E+03  0.25500000000E-02 0.  1.
    8880023    1    1    2    0    0 -0.30377921007E+03 -0.14035619723E+03  0.18776464083E+03  0.76226467659E+03  0.65864270000E+03 0.  1.
    8880022    1    1    2    0    0  0.30377921007E+03  0.14035619723E+03  0.24937038440E+04  0.25207007330E+04  0.15294330000E+03 0.  0.
<mgrwt>
<rscale>  0 0.62062146E+03</rscale>
<asrwt>0</asrwt>
<pdfrwt beam="1">  1        2 0.45880260E+00 0.73877728E+03</pdfrwt>
<pdfrwt beam="2">  1       -2 0.46268995E-01 0.73877728E+03</pdfrwt>
<totfact> 0.84312452E+00</totfact>
</mgrwt>
</event>
<event>
 4    5  0.1112901E-007  0.7723203E+03  0.7818608E-02  0.9774196E-01
         -2   -1    0    0    0  501 -0.00000000000E+00  0.00000000000E+00  0.26209986496E+03  0.26209986497E+03  0.25500000000E-02 0.  1.
          2   -1    0    0  501    0  0.00000000000E+00 -0.00000000000E+00 -0.44841865347E+04  0.44841865347E+04  0.25500000000E-02 0. -1.
    8880023    1    1    2    0    0  0.39456668680E+03  0.83579308592E+02 -0.34601749197E+03  0.84628995160E+03  0.65864270000E+03 0.  1.
    8880022    1    1    2    0    0 -0.39456668680E+03 -0.83579308592E+02 -0.38760691778E+04  0.38999964481E+04  0.15294330000E+03 0.  0.
<mgrwt>
<rscale>  0 0.66765899E+03</rscale>
<asrwt>0</asrwt>
<pdfrwt beam="1">  1        2 0.68987479E+00 0.77232026E+03</pdfrwt>
<pdfrwt beam="2">  1       -2 0.40323059E-01 0.77232026E+03</pdfrwt>
<totfact> 0.84055650E-01</totfact>
</mgrwt>
</event>
<event>
 4    5  0.1112901E-007  0.1248134E+04  0.7818608E-02  0.9111696E-01
         -2   -1    0    0    0  501 -0.00000000000E+00  0.00000000000E+00  0.58919945920E+03  0.58919945921E+03  0.25500000000E-02 0.  1.
          2   -1    0    0  501    0  0.00000000000E+00 -0.00000000000E+00 -0.39164706510E+04  0.39164706510E+04  0.25500000000E-02 0. -1.
    8880023    1    1    2    0    0 -0.95309734960E+03 -0.46436346337E+03 -0.28490471184E+03  0.12802378236E+04  0.65864270000E+03 0.  0.
    8880022    1    1    2    0    0  0.95309734960E+03  0.46436346337E+03 -0.30423664799E+04  0.32254322866E+04  0.15294330000E+03 0.  0.
<mgrwt>
<rscale>  0 0.12013268E+04</rscale>
<asrwt>0</asrwt>
<pdfrwt beam="1">  1        2 0.60253393E+00 0.12481339E+04</pdfrwt>
<pdfrwt beam="2">  1       -2 0.90646073E-01 0.12481339E+04</pdfrwt>
<totfact> 0.41676101E-01</totfact>
</mgrwt>
</event>
<event>
 4    5  0.1112901E-007  0.1147275E+04  0.7818608E-02  0.9210161E-01
          2   -1    0    0  501    0  0.00000000000E+00  0.00000000000E+00  0.24594877885E+04  0.24594877885E+04  0.25500000000E-02 0. -1.
         -2   -1    0    0    0  501 -0.00000000000E+00 -0.00000000000E+00 -0.11715710675E+04  0.11715710675E+04  0.25500000000E-02 0.  1.
    8880023    1    1    2    0    0  0.90882788446E+03 -0.23761807203E+03 -0.75768220690E+03  0.13748901791E+04  0.65864270000E+03 0.  0.
    8880022    1    1    2    0    0 -0.90882788446E+03  0.23761807203E+03  0.20455989279E+04  0.22561686769E+04  0.15294330000E+03 0.  0.
<mgrwt>
<rscale>  0 0.10949168E+04</rscale>
<asrwt>0</asrwt>
<pdfrwt beam="1">  1        2 0.37838273E+00 0.11472753E+04</pdfrwt>
<pdfrwt beam="2">  1       -2 0.18024170E+00 0.11472753E+04</pdfrwt>
<totfact> 0.65227639E-01</totfact>
</mgrwt>
</event>
<event>
 4    5  0.1112901E-007  0.6646816E+03  0.7818608E-02  0.1019802E+00
          2   -1    0    0  501    0  0.00000000000E+00  0.00000000000E+00  0.20613271589E+04  0.20613271589E+04  0.25500000000E-02 0. -1.
         -2   -1    0    0    0  501 -0.00000000000E+00 -0.00000000000E+00 -0.13786316097E+03  0.13786316099E+03  0.25500000000E-02 0.  1.
    8880023    1    1    2    0    0  0.48853823688E+02  0.74864782171E+02  0.70888918020E+03  0.97176412147E+03  0.65864270000E+03 0.  0.
    8880022    1    1    2    0    0 -0.48853823688E+02 -0.74864782171E+02  0.12145748177E+04  0.12274261984E+04  0.15294330000E+03 0. -1.
<mgrwt>
<rscale>  0 0.47758117E+03</rscale>
<asrwt>0</asrwt>
<pdfrwt beam="1">  1        2 0.31712723E+00 0.66468161E+03</pdfrwt>
<pdfrwt beam="2">  1       -2 0.21209718E-01 0.66468161E+03</pdfrwt>
<totfact> 0.12313596E+02</totfact>
</mgrwt>
</event>
<event>
 4    5  0.1112901E-007  0.8504568E+03  0.7818608E-02  0.9610770E-01
          2   -1    0    0  501    0  0.00000000000E+00  0.00000000000E+00  0.12140256459E+04  0.12140256459E+04  0.25500000000E-02 0. -1.
         -2   -1    0    0    0  501 -0.00000000000E+00 -0.00000000000E+00 -0.11459084807E+04  0.11459084807E+04  0.25500000000E-02 0.  1.
    8880023    1    1    2    0    0 -0.49200969140E+03 -0.21769925170E+03 -0.90225676026E+03  0.12398967571E+04  0.65864270000E+03 0.  0.
    8880022    1    1    2    0    0  0.49200969140E+03  0.21769925170E+03  0.97037392547E+03  0.11200373694E+04  0.15294330000E+03 0.  0.
<mgrwt>
<rscale>  0 0.76587451E+03</rscale>
<asrwt>0</asrwt>
<pdfrwt beam="1">  1        2 0.18677318E+00 0.85045676E+03</pdfrwt>
<pdfrwt beam="2">  1       -2 0.17629361E+00 0.85045676E+03</pdfrwt>
<totfact> 0.36090841E+00</totfact>
</mgrwt>
</event>
<event>
 4    5  0.1112901E-007  0.9046877E+03  0.7818608E-02  0.9518548E-01
          2   -1    0    0  501    0  0.00000000000E+00  0.00000000000E+00  0.13765330143E+04  0.13765330143E+04  0.25500000000E-02 0. -1.
         -2   -1    0    0    0  501 -0.00000000000E+00 -0.00000000000E+00 -0.88552937964E+03  0.88552937965E+03  0.25500000000E-02 0.  1.
    8880023    1    1    2    0    0 -0.61999180058E+03 -0.16119463159E+02 -0.53677956459E+03  0.10519468509E+04  0.65864270000E+03 0.  0.
    8880022    1    1    2    0    0  0.61999180058E+03  0.16119463159E+02  0.10277831993E+04  0.12101155431E+04  0.15294330000E+03 0.  0.
<mgrwt>
<rscale>  0 0.82930072E+03</rscale>
<asrwt>0</asrwt>
<pdfrwt beam="1">  1        2 0.21177431E+00 0.90468772E+03</pdfrwt>
<pdfrwt beam="2">  1       -2 0.13623529E+00 0.90468772E+03</pdfrwt>
<totfact> 0.57706600E+00</totfact>
</mgrwt>
</event>
<event>
 4    5  0.1112901E-007  0.1022583E+04  0.7818608E-02  0.9352591E-01
          2   -1    0    0  501    0  0.00000000000E+00  0.00000000000E+00  0.68418344338E+03  0.68418344338E+03  0.25500000000E-02 0. -1.
         -2   -1    0    0    0  501 -0.00000000000E+00 -0.00000000000E+00 -0.36945368354E+04  0.36945368354E+04  0.25500000000E-02 0.  1.
    8880023    1    1    2    0    0  0.69594217676E+03 -0.35711242138E+03 -0.33572065521E+04  0.35094886856E+04  0.65864270000E+03 0.  1.
    8880022    1    1    2    0    0 -0.69594217676E+03  0.35711242138E+03  0.34685316006E+03  0.86923159316E+03  0.15294330000E+03 0.  0.
<mgrwt>
<rscale>  0 0.96082082E+03</rscale>
<asrwt>0</asrwt>
<pdfrwt beam="1">  1        2 0.10525899E+00 0.10225825E+04</pdfrwt>
<pdfrwt beam="2">  1       -2 0.56839027E+00 0.10225825E+04</pdfrwt>
<totfact> 0.28787070E-02</totfact>
</mgrwt>
</event>
<event>
 4    5  0.1112901E-007  0.1592497E+04  0.7818608E-02  0.8846939E-01
         -2   -1    0    0    0  501 -0.00000000000E+00  0.00000000000E+00  0.18811116468E+04  0.18811116468E+04  0.25500000000E-02 0.  1.
          2   -1    0    0  501    0  0.00000000000E+00 -0.00000000000E+00 -0.19360336589E+04  0.19360336589E+04  0.25500000000E-02 0. -1.
    8880023    1    1    2    0    0 -0.63128613237E+03 -0.13052637234E+04  0.11181604394E+04  0.19458490545E+04  0.65864270000E+03 0.  0.
    8880022    1    1    2    0    0  0.63128613237E+03  0.13052637234E+04 -0.11730824515E+04  0.18712962511E+04  0.15294330000E+03 0.  0.
<mgrwt>
<rscale>  0 0.15577394E+04</rscale>
<asrwt>0</asrwt>
<pdfrwt beam="1">  1        2 0.29785133E+00 0.15924967E+04</pdfrwt>
<pdfrwt beam="2">  1       -2 0.28940179E+00 0.15924967E+04</pdfrwt>
<totfact> 0.24837571E-01</totfact>
</mgrwt>
</event>
<event>
 4    5  0.1112901E-007  0.9452228E+03  0.7818608E-02  0.9457021E-01
          2   -1    0    0  501    0  0.00000000000E+00  0.00000000000E+00  0.13196332269E+04  0.13196332269E+04  0.25500000000E-02 0. -1.
         -2   -1    0    0    0  501 -0.00000000000E+00 -0.00000000000E+00 -0.13361226338E+04  0.13361226338E+04  0.25500000000E-02 0.  1.
    8880023    1    1    2    0    0 -0.22043146070E+03  0.64112866416E+03 -0.10484203040E+04  0.14116059411E+04  0.65864270000E+03 0.  0.
    8880022    1    1    2    0    0  0.22043146070E+03 -0.64112866416E+03  0.10319308971E+04  0.12441499195E+04  0.15294330000E+03 0.  0.
<mgrwt>
<rscale>  0 0.87528029E+03</rscale>
<asrwt>0</asrwt>
<pdfrwt beam="1">  1        2 0.20302050E+00 0.94522283E+03</pdfrwt>
<pdfrwt beam="2">  1       -2 0.20555733E+00 0.94522283E+03</pdfrwt>
<totfact> 0.19699918E+00</totfact>
</mgrwt>
</event>
<event>
 4    5  0.1112901E-007  0.7348123E+03  0.7818608E-02  0.9875324E-01
         -2   -1    0    0    0  501 -0.00000000000E+00  0.00000000000E+00  0.29741020625E+03  0.29741020626E+03  0.25500000000E-02 0.  1.
          2   -1    0    0  501    0  0.00000000000E+00 -0.00000000000E+00 -0.24528219694E+04  0.24528219694E+04  0.25500000000E-02 0. -1.
    8880023    1    1    2    0    0 -0.32410298733E+03  0.33108798165E+02 -0.19940200550E+03  0.76138709273E+03  0.65864270000E+03 0.  1.
    8880022    1    1    2    0    0  0.32410298733E+03 -0.33108798165E+02 -0.19560097576E+04  0.19888450829E+04  0.15294330000E+03 0.  0.
<mgrwt>
<rscale>  0 0.61472215E+03</rscale>
<asrwt>0</asrwt>
<pdfrwt beam="1">  1        2 0.37735721E+00 0.73481232E+03</pdfrwt>
<pdfrwt beam="2">  1       -2 0.45755418E-01 0.73481232E+03</pdfrwt>
<totfact> 0.17590097E+01</totfact>
</mgrwt>
</event>
<event>
 4    5  0.1112901E-007  0.7566491E+03  0.7818608E-02  0.9813861E-01
          2   -1    0    0  501    0  0.00000000000E+00  0.00000000000E+00  0.56345371256E+03  0.56345371256E+03  0.25500000000E-02 0. -1.
         -2   -1    0    0    0  501 -0.00000000000E+00 -0.00000000000E+00 -0.10469878600E+04  0.10469878600E+04  0.25500000000E-02 0.  1.
    8880023    1    1    2    0    0  0.36792958658E+03 -0.57753950202E+02 -0.79791042781E+03  0.10996267351E+04  0.65864270000E+03 0.  1.
    8880022    1    1    2    0    0 -0.36792958658E+03  0.57753950202E+02  0.31437628041E+03  0.51081483744E+03  0.15294330000E+03 0.  0.
<mgrwt>
<rscale>  0 0.64623959E+03</rscale>
<asrwt>0</asrwt>
<pdfrwt beam="1">  1        2 0.86685187E-01 0.75664913E+03</pdfrwt>
<pdfrwt beam="2">  1       -2 0.16107506E+00 0.75664913E+03</pdfrwt>
<totfact> 0.13420049E+01</totfact>
</mgrwt>
</event>
<event>
 4    5  0.1112901E-007  0.8158326E+03  0.7818608E-02  0.9677553E-01
         -2   -1    0    0    0  501 -0.00000000000E+00  0.00000000000E+00  0.62178998904E+03  0.62178998904E+03  0.25500000000E-02 0.  1.
          2   -1    0    0  501    0  0.00000000000E+00 -0.00000000000E+00 -0.12035534486E+04  0.12035534486E+04  0.25500000000E-02 0. -1.
    8880023    1    1    2    0    0  0.39591953148E+03  0.27389845985E+03  0.24906648203E+03  0.85300466613E+03  0.65864270000E+03 0.  0.
    8880022    1    1    2    0    0 -0.39591953148E+03 -0.27389845985E+03 -0.83082994157E+03  0.97233877149E+03  0.15294330000E+03 0.  0.
<mgrwt>
<rscale>  0 0.72369119E+03</rscale>
<asrwt>0</asrwt>
<pdfrwt beam="1">  1        2 0.18516207E+00 0.81583261E+03</pdfrwt>
<pdfrwt beam="2">  1       -2 0.95659998E-01 0.81583261E+03</pdfrwt>
<totfact> 0.17490973E+01</totfact>
</mgrwt>
</event>
<event>
 4    5  0.1112901E-007  0.1057152E+04  0.7818608E-02  0.9310333E-01
         -2   -1    0    0    0  501 -0.00000000000E+00  0.00000000000E+00  0.85444642145E+03  0.85444642145E+03  0.25500000000E-02 0.  1.
          2   -1    0    0  501    0  0.00000000000E+00 -0.00000000000E+00 -0.12340387326E+04  0.12340387326E+04  0.25500000000E-02 0. -1.
    8880023    1    1    2    0    0  0.81842680345E+03 -0.11805582944E+03  0.18826759611E+03  0.10737851300E+04  0.65864270000E+03 0.  1.
    8880022    1    1    2    0    0 -0.81842680345E+03  0.11805582944E+03 -0.56785990729E+03  0.10147000240E+04  0.15294330000E+03 0.  0.
<mgrwt>
<rscale>  0 0.99837119E+03</rscale>
<asrwt>0</asrwt>
<pdfrwt beam="1">  1        2 0.18985211E+00 0.10571517E+04</pdfrwt>
<pdfrwt beam="2">  1       -2 0.13145329E+00 0.10571517E+04</pdfrwt>
<totfact> 0.75308189E+00</totfact>
</mgrwt>
</event>
<event>
 4    5  0.1112901E-007  0.1289395E+04  0.7818608E-02  0.9074772E-01
          2   -1    0    0  501    0  0.00000000000E+00  0.00000000000E+00  0.49327526230E+04  0.49327526230E+04  0.25500000000E-02 0. -1.
         -2   -1    0    0    0  501 -0.00000000000E+00 -0.00000000000E+00 -0.10797254392E+04  0.10797254392E+04  0.25500000000E-02 0.  1.
    8880023    1    1    2    0    0  0.45683677724E+03 -0.10099652113E+04 -0.59917389297E+03  0.14218119177E+04  0.65864270000E+03 0.  0.
    8880022    1    1    2    0    0 -0.45683677724E+03  0.10099652113E+04  0.44522010768E+04  0.45906661445E+04  0.15294330000E+03 0.  0.
<mgrwt>
<rscale>  0 0.12445012E+04</rscale>
<asrwt>0</asrwt>
<pdfrwt beam="1">  1        2 0.75888500E+00 0.12893951E+04</pdfrwt>
<pdfrwt beam="2">  1       -2 0.16611161E+00 0.12893951E+04</pdfrwt>
<totfact> 0.96564245E-03</totfact>
</mgrwt>
</event>
<event>
 4    5  0.1112901E-007  0.8865301E+03  0.7818608E-02  0.9548011E-01
          2   -1    0    0  501    0  0.00000000000E+00  0.00000000000E+00  0.65106745558E+03  0.65106745559E+03  0.25500000000E-02 0. -1.
         -2   -1    0    0    0  501 -0.00000000000E+00 -0.00000000000E+00 -0.11015058856E+04  0.11015058856E+04  0.25500000000E-02 0.  1.
    8880023    1    1    2    0    0  0.18255342935E+03 -0.56462344083E+03 -0.65968035196E+03  0.11050401610E+04  0.65864270000E+03 0.  0.
    8880022    1    1    2    0    0 -0.18255342935E+03  0.56462344083E+03  0.20924192193E+03  0.64753318016E+03  0.15294330000E+03 0.  0.
<mgrwt>
<rscale>  0 0.80834883E+03</rscale>
<asrwt>0</asrwt>
<pdfrwt beam="1">  1        2 0.10016422E+00 0.88653008E+03</pdfrwt>
<pdfrwt beam="2">  1       -2 0.16946244E+00 0.88653008E+03</pdfrwt>
<totfact> 0.96742916E+00</totfact>
</mgrwt>
</event>
<event>
 4    5  0.1112901E-007  0.1170248E+04  0.7818608E-02  0.9186600E-01
          2   -1    0    0  501    0  0.00000000000E+00  0.00000000000E+00  0.78508727457E+03  0.78508727458E+03  0.25500000000E-02 0. -1.
         -2   -1    0    0    0  501 -0.00000000000E+00 -0.00000000000E+00 -0.22622384131E+04  0.22622384131E+04  0.25500000000E-02 0.  1.
    8880023    1    1    2    0    0 -0.19455169722E+03 -0.94753375237E+03 -0.16798167067E+04  0.20472579098E+04  0.65864270000E+03 0.  0.
    8880022    1    1    2    0    0  0.19455169722E+03  0.94753375237E+03  0.20266556821E+03  0.10000677779E+04  0.15294330000E+03 0.  0.
<mgrwt>
<rscale>  0 0.11192815E+04</rscale>
<asrwt>0</asrwt>
<pdfrwt beam="1">  1        2 0.12078266E+00 0.11702482E+04</pdfrwt>
<pdfrwt beam="2">  1       -2 0.34803668E+00 0.11702482E+04</pdfrwt>
<totfact> 0.55907830E-01</totfact>
</mgrwt>
</event>
<event>
 4    5  0.1112901E-007  0.1589089E+04  0.7818608E-02  0.8849161E-01
         -2   -1    0    0    0  501 -0.00000000000E+00  0.00000000000E+00  0.13707888287E+04  0.13707888287E+04  0.25500000000E-02 0.  1.
          2   -1    0    0  501    0  0.00000000000E+00 -0.00000000000E+00 -0.18895599262E+04  0.18895599262E+04  0.25500000000E-02 0. -1.
    8880023    1    1    2    0    0 -0.57006532696E+03 -0.13290674949E+04  0.26079225489E+03  0.16103470712E+04  0.65864270000E+03 0.  0.
    8880022    1    1    2    0    0  0.57006532696E+03  0.13290674949E+04 -0.77956335236E+03  0.16500016838E+04  0.15294330000E+03 0.  0.
<mgrwt>
<rscale>  0 0.15542453E+04</rscale>
<asrwt>0</asrwt>
<pdfrwt beam="1">  1        2 0.29070153E+00 0.15890894E+04</pdfrwt>
<pdfrwt beam="2">  1       -2 0.21089059E+00 0.15890894E+04</pdfrwt>
<totfact> 0.80975630E-01</totfact>
</mgrwt>
</event>
<event>
 4    5  0.1112901E-007  0.7840791E+03  0.7818608E-02  0.9746341E-01
          2   -1    0    0  501    0  0.00000000000E+00  0.00000000000E+00  0.15297695437E+04  0.15297695437E+04  0.25500000000E-02 0. -1.
         -2   -1    0    0    0  501 -0.00000000000E+00 -0.00000000000E+00 -0.56014987231E+03  0.56014987231E+03  0.25500000000E-02 0.  1.
    8880023    1    1    2    0    0 -0.32063261941E+03  0.27957917595E+03 -0.22243927356E+03  0.81502099908E+03  0.65864270000E+03 0.  1.
    8880022    1    1    2    0    0  0.32063261941E+03 -0.27957917595E+03  0.11920589450E+04  0.12748984170E+04  0.15294330000E+03 0.  0.
<mgrwt>
<rscale>  0 0.68323447E+03</rscale>
<asrwt>0</asrwt>
<pdfrwt beam="1">  1        2 0.23534916E+00 0.78407908E+03</pdfrwt>
<pdfrwt beam="2">  1       -2 0.86176904E-01 0.78407908E+03</pdfrwt>
<totfact> 0.14551736E+01</totfact>
</mgrwt>
</event>
<event>
 4    5  0.1112901E-007  0.8484058E+03  0.7818608E-02  0.9614530E-01
          2   -1    0    0  501    0  0.00000000000E+00  0.00000000000E+00  0.16811056175E+04  0.16811056175E+04  0.25500000000E-02 0. -1.
         -2   -1    0    0    0  501 -0.00000000000E+00 -0.00000000000E+00 -0.55640182107E+03  0.55640182107E+03  0.25500000000E-02 0.  1.
    8880023    1    1    2    0    0  0.32252020173E+03 -0.42657101936E+03  0.13843751475E+04  0.16236646422E+04  0.65864270000E+03 0. -1.
    8880022    1    1    2    0    0 -0.32252020173E+03  0.42657101936E+03 -0.25967135106E+03  0.61384279637E+03  0.15294330000E+03 0.  0.
<mgrwt>
<rscale>  0 0.76341931E+03</rscale>
<asrwt>0</asrwt>
<pdfrwt beam="1">  1        2 0.25863163E+00 0.84840575E+03</pdfrwt>
<pdfrwt beam="2">  1       -2 0.85600282E-01 0.84840575E+03</pdfrwt>
<totfact> 0.12092524E+01</totfact>
</mgrwt>
</event>
<event>
 4    5  0.1112901E-007  0.1290770E+04  0.7818608E-02  0.9073572E-01
          2   -1    0    0  501    0  0.00000000000E+00  0.00000000000E+00  0.12718318048E+04  0.12718318048E+04  0.25500000000E-02 0. -1.
         -2   -1    0    0    0  501 -0.00000000000E+00 -0.00000000000E+00 -0.22863758901E+04  0.22863758901E+04  0.25500000000E-02 0.  1.
    8880023    1    1    2    0    0  0.49490198728E+03 -0.99365473604E+03 -0.17817523558E+04  0.22001657608E+04  0.65864270000E+03 0.  1.
    8880022    1    1    2    0    0 -0.49490198728E+03  0.99365473604E+03  0.76720827051E+03  0.13580419341E+04  0.15294330000E+03 0.  0.
<mgrwt>
<rscale>  0 0.12459371E+04</rscale>
<asrwt>0</asrwt>
<pdfrwt beam="1">  1        2 0.19566643E+00 0.12907703E+04</pdfrwt>
<pdfrwt beam="2">  1       -2 0.35175014E+00 0.12907703E+04</pdfrwt>
<totfact> 0.25235656E-01</totfact>
</mgrwt>
</event>
<event>
 4    5  0.1112901E-007  0.7954095E+03  0.7818608E-02  0.9720811E-01
         -2   -1    0    0    0  501 -0.00000000000E+00  0.00000000000E+00  0.62083112390E+03  0.62083112391E+03  0.25500000000E-02 0.  1.
          2   -1    0    0  501    0  0.00000000000E+00 -0.00000000000E+00 -0.73066760728E+03  0.73066760728E+03  0.25500000000E-02 0. -1.
    8880023    1    1    2    0    0 -0.29233886999E+03 -0.33675520222E+03  0.15557353447E+03  0.81048097573E+03  0.65864270000E+03 0.  1.
    8880022    1    1    2    0    0  0.29233886999E+03  0.33675520222E+03 -0.26541001784E+03  0.54101775546E+03  0.15294330000E+03 0. -1.
<mgrwt>
<rscale>  0 0.69791124E+03</rscale>
<asrwt>0</asrwt>
<pdfrwt beam="1">  1        2 0.11241040E+00 0.79540951E+03</pdfrwt>
<pdfrwt beam="2">  1       -2 0.95512481E-01 0.79540951E+03</pdfrwt>
<totfact> 0.36047123E+01</totfact>
</mgrwt>
</event>
<event>
 4    5  0.1112901E-007  0.6899528E+03  0.7818608E-02  0.1004175E+00
          2   -1    0    0  501    0  0.00000000000E+00  0.00000000000E+00  0.22856638003E+04  0.22856638003E+04  0.25500000000E-02 0. -1.
         -2   -1    0    0    0  501 -0.00000000000E+00 -0.00000000000E+00 -0.28090276252E+03  0.28090276253E+03  0.25500000000E-02 0.  1.
    8880023    1    1    2    0    0 -0.57884166904E+02  0.19716520305E+03  0.16546182532E+03  0.70951569114E+03  0.65864270000E+03 0.  0.
    8880022    1    1    2    0    0  0.57884166904E+02 -0.19716520305E+03  0.18392992124E+04  0.18570508717E+04  0.15294330000E+03 0.  0.
<mgrwt>
<rscale>  0 0.53856863E+03</rscale>
<asrwt>0</asrwt>
<pdfrwt beam="1">  1        2 0.35164057E+00 0.68995282E+03</pdfrwt>
<pdfrwt beam="2">  1       -2 0.43215811E-01 0.68995282E+03</pdfrwt>
<totfact> 0.24600574E+01</totfact>
</mgrwt>
</event>
<event>
 4    5  0.1112901E-007  0.7779435E+03  0.7818608E-02  0.9760690E-01
         -2   -1    0    0    0  501 -0.00000000000E+00  0.00000000000E+00  0.15050426921E+03  0.15050426923E+03  0.25500000000E-02 0.  1.
          2   -1    0    0  501    0  0.00000000000E+00 -0.00000000000E+00 -0.41187689542E+04  0.41187689542E+04  0.25500000000E-02 0. -1.
    8880023    1    1    2    0    0  0.28205769689E+03 -0.30303349897E+03 -0.99295930597E+03  0.12614135862E+04  0.65864270000E+03 0.  1.
    8880022    1    1    2    0    0 -0.28205769689E+03  0.30303349897E+03 -0.29753053790E+04  0.30078596373E+04  0.15294330000E+03 0.  0.
<mgrwt>
<rscale>  0 0.67515483E+03</rscale>
<asrwt>0</asrwt>
<pdfrwt beam="1">  1        2 0.63365668E+00 0.77794348E+03</pdfrwt>
<pdfrwt beam="2">  1       -2 0.23154506E-01 0.77794348E+03</pdfrwt>
<totfact> 0.49559222E+00</totfact>
</mgrwt>
</event>
<event>
 4    5  0.1112901E-007  0.6895058E+03  0.7818608E-02  0.1004388E+00
          2   -1    0    0  501    0  0.00000000000E+00  0.00000000000E+00  0.93518131737E+03  0.93518131737E+03  0.25500000000E-02 0. -1.
         -2   -1    0    0    0  501 -0.00000000000E+00 -0.00000000000E+00 -0.12333151333E+04  0.12333151333E+04  0.25500000000E-02 0.  1.
    8880023    1    1    2    0    0 -0.11812089305E+03 -0.16629926402E+03 -0.11159961789E+04  0.13118176962E+04  0.65864270000E+03 0.  1.
    8880022    1    1    2    0    0  0.11812089305E+03  0.16629926402E+03  0.81786236294E+03  0.85667875445E+03  0.15294330000E+03 0.  0.
<mgrwt>
<rscale>  0 0.53767185E+03</rscale>
<asrwt>0</asrwt>
<pdfrwt beam="1">  1        2 0.14387405E+00 0.68950576E+03</pdfrwt>
<pdfrwt beam="2">  1       -2 0.18974079E+00 0.68950576E+03</pdfrwt>
<totfact> 0.44550695E+00</totfact>
</mgrwt>
</event>
<event>
 4    5  0.1112901E-007  0.6671892E+03  0.7818608E-02  0.1017763E+00
         -2   -1    0    0    0  501 -0.00000000000E+00  0.00000000000E+00  0.35046170070E+03  0.35046170071E+03  0.25500000000E-02 0.  1.
          2   -1    0    0  501    0  0.00000000000E+00 -0.00000000000E+00 -0.72879136598E+03  0.72879136599E+03  0.25500000000E-02 0. -1.
    8880023    1    1    2    0    0 -0.66891090050E+02 -0.82805997570E+02 -0.10905844682E+02  0.66727834887E+03  0.65864270000E+03 0.  0.
    8880022    1    1    2    0    0  0.66891090050E+02  0.82805997570E+02 -0.36742382060E+03  0.41197471782E+03  0.15294330000E+03 0.  0.
<mgrwt>
<rscale>  0 0.48502461E+03</rscale>
<asrwt>0</asrwt>
<pdfrwt beam="1">  1        2 0.11212175E+00 0.66718922E+03</pdfrwt>
<pdfrwt beam="2">  1       -2 0.53917185E-01 0.66718922E+03</pdfrwt>
<totfact> 0.12816810E+02</totfact>
</mgrwt>
</event>
<event>
 4    5  0.1112901E-007  0.8818269E+03  0.7818608E-02  0.9555858E-01
          2   -1    0    0  501    0  0.00000000000E+00  0.00000000000E+00  0.35012920187E+04  0.35012920187E+04  0.25500000000E-02 0. -1.
         -2   -1    0    0    0  501 -0.00000000000E+00 -0.00000000000E+00 -0.16343809696E+03  0.16343809698E+03  0.25500000000E-02 0.  1.
    8880023    1    1    2    0    0 -0.51862142066E+03  0.27356965128E+03  0.22952396927E+04  0.24588094651E+04  0.65864270000E+03 0.  1.
    8880022    1    1    2    0    0  0.51862142066E+03 -0.27356965128E+03  0.10426142290E+04  0.12059206506E+04  0.15294330000E+03 0.  0.
<mgrwt>
<rscale>  0 0.80287952E+03</rscale>
<asrwt>0</asrwt>
<pdfrwt beam="1">  1        2 0.53866026E+00 0.88182693E+03</pdfrwt>
<pdfrwt beam="2">  1       -2 0.25144325E-01 0.88182693E+03</pdfrwt>
<totfact> 0.12136819E+01</totfact>
</mgrwt>
</event>
<event>
 4    5  0.1112901E-007  0.1150942E+04  0.7818608E-02  0.9206351E-01
          2   -1    0    0  501    0  0.00000000000E+00  0.00000000000E+00  0.20230696069E+04  0.20230696069E+04  0.25500000000E-02 0. -1.
         -2   -1    0    0    0  501 -0.00000000000E+00 -0.00000000000E+00 -0.79494419291E+03  0.79494419291E+03  0.25500000000E-02 0.  1.
    8880023    1    1    2    0    0 -0.89445499700E+03 -0.30134409150E+03 -0.12871198638E+03  0.11581169996E+04  0.65864270000E+03 0.  1.
    8880022    1    1    2    0    0  0.89445499700E+03  0.30134409150E+03  0.13568374003E+04  0.16598968001E+04  0.15294330000E+03 0.  0.
<mgrwt>
<rscale>  0 0.10988117E+04</rscale>
<asrwt>0</asrwt>
<pdfrwt beam="1">  1        2 0.31124148E+00 0.11509423E+04</pdfrwt>
<pdfrwt beam="2">  1       -2 0.12229911E+00 0.11509423E+04</pdfrwt>
<totfact> 0.32240398E+00</totfact>
</mgrwt>
</event>
<event>
 4    5  0.1112901E-007  0.7978470E+03  0.7818608E-02  0.9715471E-01
         -2   -1    0    0    0  501 -0.00000000000E+00  0.00000000000E+00  0.65692351579E+03  0.65692351579E+03  0.25500000000E-02 0.  1.
          2   -1    0    0  501    0  0.00000000000E+00 -0.00000000000E+00 -0.10067763163E+04  0.10067763163E+04  0.25500000000E-02 0. -1.
    8880023    1    1    2    0    0 -0.14524839997E+03 -0.42620706605E+03 -0.70933262631E+03  0.10675732021E+04  0.65864270000E+03 0. -1.
    8880022    1    1    2    0    0  0.14524839997E+03  0.42620706605E+03  0.35947982578E+03  0.59612663000E+03  0.15294330000E+03 0.  0.
<mgrwt>
<rscale>  0 0.70103090E+03</rscale>
<asrwt>0</asrwt>
<pdfrwt beam="1">  1        2 0.15488866E+00 0.79784696E+03</pdfrwt>
<pdfrwt beam="2">  1       -2 0.10106516E+00 0.79784696E+03</pdfrwt>
<totfact> 0.20319842E+01</totfact>
</mgrwt>
</event>
<event>
 4    5  0.1112901E-007  0.8712194E+03  0.7818608E-02  0.9573910E-01
          2   -1    0    0  501    0  0.00000000000E+00  0.00000000000E+00  0.19065183518E+04  0.19065183518E+04  0.25500000000E-02 0. -1.
         -2   -1    0    0    0  501 -0.00000000000E+00 -0.00000000000E+00 -0.42292558879E+03  0.42292558880E+03  0.25500000000E-02 0.  1.
    8880023    1    1    2    0    0  0.48510187232E+03  0.29981525342E+03  0.16777079018E+03  0.88722615889E+03  0.65864270000E+03 0.  1.
    8880022    1    1    2    0    0 -0.48510187232E+03 -0.29981525342E+03  0.13158219728E+04  0.14422177817E+04  0.15294330000E+03 0. -1.
<mgrwt>
<rscale>  0 0.79047347E+03</rscale>
<asrwt>0</asrwt>
<pdfrwt beam="1">  1        2 0.29331052E+00 0.87121939E+03</pdfrwt>
<pdfrwt beam="2">  1       -2 0.65065475E-01 0.87121939E+03</pdfrwt>
<totfact> 0.16674093E+01</totfact>
</mgrwt>
</event>
<event>
 4    5  0.1112901E-007  0.7063409E+03  0.7818608E-02  0.9971848E-01
          2   -1    0    0  501    0  0.00000000000E+00  0.00000000000E+00  0.17073256392E+04  0.17073256392E+04  0.25500000000E-02 0. -1.
         -2   -1    0    0    0  501 -0.00000000000E+00 -0.00000000000E+00 -0.39095367570E+03  0.39095367571E+03  0.25500000000E-02 0.  1.
    8880023    1    1    2    0    0  0.14514223541E+03 -0.20985955850E+03 -0.42120584906E+02  0.70759568451E+03  0.65864270000E+03 0.  1.
    8880022    1    1    2    0    0 -0.14514223541E+03  0.20985955850E+03  0.13584925484E+04  0.13906836304E+04  0.15294330000E+03 0.  0.
<mgrwt>
<rscale>  0 0.56902068E+03</rscale>
<asrwt>0</asrwt>
<pdfrwt beam="1">  1        2 0.26266548E+00 0.70634093E+03</pdfrwt>
<pdfrwt beam="2">  1       -2 0.60146719E-01 0.70634093E+03</pdfrwt>
<totfact> 0.25860419E+01</totfact>
</mgrwt>
</event>
<event>
 4    5  0.1112901E-007  0.1310112E+04  0.7818608E-02  0.9056877E-01
         -2   -1    0    0    0  501 -0.00000000000E+00  0.00000000000E+00  0.83275246855E+03  0.83275246856E+03  0.25500000000E-02 0.  1.
          2   -1    0    0  501    0  0.00000000000E+00 -0.00000000000E+00 -0.29292783464E+04  0.29292783464E+04  0.25500000000E-02 0. -1.
    8880023    1    1    2    0    0  0.11263521550E+04 -0.11795555669E+03 -0.22553491940E+04  0.26082547582E+04  0.65864270000E+03 0. -1.
    8880022    1    1    2    0    0 -0.11263521550E+04  0.11795555669E+03  0.15882331619E+03  0.11537760568E+04  0.15294330000E+03 0.  0.
<mgrwt>
<rscale>  0 0.12661148E+04</rscale>
<asrwt>0</asrwt>
<pdfrwt beam="1">  1        2 0.45065820E+00 0.13101118E+04</pdfrwt>
<pdfrwt beam="2">  1       -2 0.12811577E+00 0.13101118E+04</pdfrwt>
<totfact> 0.84392823E-01</totfact>
</mgrwt>
</event>
<event>
 4    5  0.1112901E-007  0.1545339E+04  0.7818608E-02  0.8878266E-01
         -2   -1    0    0    0  501 -0.00000000000E+00  0.00000000000E+00  0.19603120480E+04  0.19603120480E+04  0.25500000000E-02 0.  1.
          2   -1    0    0  501    0  0.00000000000E+00 -0.00000000000E+00 -0.19105145236E+04  0.19105145236E+04  0.25500000000E-02 0. -1.
    8880023    1    1    2    0    0 -0.47826868754E+03 -0.13135916394E+04  0.12767442908E+04  0.20045323951E+04  0.65864270000E+03 0.  0.
    8880022    1    1    2    0    0  0.47826868754E+03  0.13135916394E+04 -0.12269467665E+04  0.18662941765E+04  0.15294330000E+03 0.  0.
<mgrwt>
<rscale>  0 0.15093389E+04</rscale>
<asrwt>0</asrwt>
<pdfrwt beam="1">  1        2 0.29392531E+00 0.15453395E+04</pdfrwt>
<pdfrwt beam="2">  1       -2 0.30158647E+00 0.15453395E+04</pdfrwt>
<totfact> 0.21733494E-01</totfact>
</mgrwt>
</event>
<event>
 4    5  0.1112901E-007  0.1050939E+04  0.7818608E-02  0.9317754E-01
          2   -1    0    0  501    0  0.00000000000E+00  0.00000000000E+00  0.28668815559E+04  0.28668815559E+04  0.25500000000E-02 0. -1.
         -2   -1    0    0    0  501 -0.00000000000E+00 -0.00000000000E+00 -0.50069847622E+03  0.50069847623E+03  0.25500000000E-02 0.  1.
    8880023    1    1    2    0    0  0.59858294920E+03 -0.55889209501E+03  0.23037553929E+04  0.25321455404E+04  0.65864270000E+03 0.  0.
    8880022    1    1    2    0    0 -0.59858294920E+03  0.55889209501E+03  0.62427686767E+02  0.83543449177E+03  0.15294330000E+03 0.  0.
<mgrwt>
<rscale>  0 0.99164713E+03</rscale>
<asrwt>0</asrwt>
<pdfrwt beam="1">  1        2 0.44105870E+00 0.10509387E+04</pdfrwt>
<pdfrwt beam="2">  1       -2 0.77030535E-01 0.10509387E+04</pdfrwt>
<totfact> 0.32023342E+00</totfact>
</mgrwt>
</event>
<event>
 4    5  0.1112901E-007  0.1068251E+04  0.7818608E-02  0.9297256E-01
         -2   -1    0    0    0  501 -0.00000000000E+00  0.00000000000E+00  0.49160921648E+03  0.49160921649E+03  0.25500000000E-02 0.  1.
          2   -1    0    0  501    0  0.00000000000E+00 -0.00000000000E+00 -0.19041671938E+04  0.19041671938E+04  0.25500000000E-02 0. -1.
    8880023    1    1    2    0    0 -0.73910489697E+03  0.40133976780E+03 -0.65148981366E+03  0.12512389226E+04  0.65864270000E+03 0. -1.
    8880022    1    1    2    0    0  0.73910489697E+03 -0.40133976780E+03 -0.76106816370E+03  0.11445374877E+04  0.15294330000E+03 0.  1.
<mgrwt>
<rscale>  0 0.10103582E+04</rscale>
<asrwt>0</asrwt>
<pdfrwt beam="1">  1        2 0.29294880E+00 0.10682508E+04</pdfrwt>
<pdfrwt beam="2">  1       -2 0.75632188E-01 0.10682508E+04</pdfrwt>
<totfact> 0.11769704E+01</totfact>
</mgrwt>
</event>
<event>
 4    5  0.1112901E-007  0.8661097E+03  0.7818608E-02  0.9582786E-01
          2   -1    0    0  501    0  0.00000000000E+00  0.00000000000E+00  0.23350828074E+04  0.23350828074E+04  0.25500000000E-02 0. -1.
         -2   -1    0    0    0  501 -0.00000000000E+00 -0.00000000000E+00 -0.29769198111E+03  0.29769198112E+03  0.25500000000E-02 0.  1.
    8880023    1    1    2    0    0 -0.31507772718E+03  0.46589897519E+03  0.52704758686E+03  0.10138664578E+04  0.65864270000E+03 0.  0.
    8880022    1    1    2    0    0  0.31507772718E+03 -0.46589897519E+03  0.15103432394E+04  0.16189083307E+04  0.15294330000E+03 0.  0.
<mgrwt>
<rscale>  0 0.78446039E+03</rscale>
<asrwt>0</asrwt>
<pdfrwt beam="1">  1        2 0.35924351E+00 0.86610971E+03</pdfrwt>
<pdfrwt beam="2">  1       -2 0.45798766E-01 0.86610971E+03</pdfrwt>
<totfact> 0.20067798E+01</totfact>
</mgrwt>
</event>
<event>
 4    5  0.1112901E-007  0.7666510E+03  0.7818608E-02  0.9788183E-01
          2   -1    0    0  501    0  0.00000000000E+00  0.00000000000E+00  0.20646524176E+04  0.20646524176E+04  0.25500000000E-02 0. -1.
         -2   -1    0    0    0  501 -0.00000000000E+00 -0.00000000000E+00 -0.12365003125E+04  0.12365003125E+04  0.25500000000E-02 0.  1.
    8880023    1    1    2    0    0 -0.35266409483E+03 -0.17196396420E+03 -0.10926224605E+04  0.13347575121E+04  0.65864270000E+03 0.  1.
    8880022    1    1    2    0    0  0.35266409483E+03  0.17196396420E+03  0.19207745655E+04  0.19663952180E+04  0.15294330000E+03 0.  0.
<mgrwt>
<rscale>  0 0.66000566E+03</rscale>
<asrwt>0</asrwt>
<pdfrwt beam="1">  1        2 0.31763883E+00 0.76665101E+03</pdfrwt>
<pdfrwt beam="2">  1       -2 0.19023082E+00 0.76665101E+03</pdfrwt>
<totfact> 0.98822185E-01</totfact>
</mgrwt>
</event>
<event>
 4    5  0.1112901E-007  0.1238780E+04  0.7818608E-02  0.9120318E-01
          2   -1    0    0  501    0  0.00000000000E+00  0.00000000000E+00  0.15813039109E+04  0.15813039109E+04  0.25500000000E-02 0. -1.
         -2   -1    0    0    0  501 -0.00000000000E+00 -0.00000000000E+00 -0.97111135066E+03  0.97111135066E+03  0.25500000000E-02 0.  1.
    8880023    1    1    2    0    0  0.62201432809E+03 -0.84490401460E+03  0.80090821167E+03  0.14751368709E+04  0.65864270000E+03 0.  0.
    8880022    1    1    2    0    0 -0.62201432809E+03  0.84490401460E+03 -0.19071565141E+03  0.10772783906E+04  0.15294330000E+03 0.  0.
<mgrwt>
<rscale>  0 0.11915132E+04</rscale>
<asrwt>0</asrwt>
<pdfrwt beam="1">  1        2 0.24327752E+00 0.12387796E+04</pdfrwt>
<pdfrwt beam="2">  1       -2 0.14940175E+00 0.12387796E+04</pdfrwt>
<totfact> 0.33500607E+00</totfact>
</mgrwt>
</event>
<event>
 4    5  0.1112901E-007  0.1037761E+04  0.7818608E-02  0.9333742E-01
          2   -1    0    0  501    0  0.00000000000E+00  0.00000000000E+00  0.30089543491E+04  0.30089543491E+04  0.25500000000E-02 0. -1.
         -2   -1    0    0    0  501 -0.00000000000E+00 -0.00000000000E+00 -0.40795531017E+03  0.40795531018E+03  0.25500000000E-02 0.  1.
    8880023    1    1    2    0    0  0.33552000900E+02 -0.80125585346E+03  0.47841078903E+03  0.11427264628E+04  0.65864270000E+03 0.  1.
    8880022    1    1    2    0    0 -0.33552000900E+02  0.80125585346E+03  0.21225882499E+04  0.22741831964E+04  0.15294330000E+03 0.  0.
<mgrwt>
<rscale>  0 0.97735015E+03</rscale>
<asrwt>0</asrwt>
<pdfrwt beam="1">  1        2 0.46291604E+00 0.10377605E+04</pdfrwt>
<pdfrwt beam="2">  1       -2 0.62762357E-01 0.10377605E+04</pdfrwt>
<totfact> 0.41149067E+00</totfact>
</mgrwt>
</event>
<event>
 4    5  0.1112901E-007  0.1124613E+04  0.7818608E-02  0.9234135E-01
         -2   -1    0    0    0  501 -0.00000000000E+00  0.00000000000E+00  0.74486917761E+03  0.74486917762E+03  0.25500000000E-02 0.  1.
          2   -1    0    0  501    0  0.00000000000E+00 -0.00000000000E+00 -0.17479749131E+04  0.17479749131E+04  0.25500000000E-02 0. -1.
    8880023    1    1    2    0    0  0.75991873963E+03  0.50345618775E+03  0.56955586878E+01  0.11246276137E+04  0.65864270000E+03 0.  0.
    8880022    1    1    2    0    0 -0.75991873963E+03 -0.50345618775E+03 -0.10088012941E+04  0.13682164770E+04  0.15294330000E+03 0.  0.
<mgrwt>
<rscale>  0 0.10707941E+04</rscale>
<asrwt>0</asrwt>
<pdfrwt beam="1">  1        2 0.26891922E+00 0.11246132E+04</pdfrwt>
<pdfrwt beam="2">  1       -2 0.11459526E+00 0.11246132E+04</pdfrwt>
<totfact> 0.53927235E+00</totfact>
</mgrwt>
</event>
<event>
 4    5  0.1112901E-007  0.1030137E+04  0.7818608E-02  0.9343149E-01
         -2   -1    0    0    0  501 -0.00000000000E+00  0.00000000000E+00  0.17931569019E+04  0.17931569019E+04  0.25500000000E-02 0.  1.
          2   -1    0    0  501    0  0.00000000000E+00 -0.00000000000E+00 -0.10384790940E+04  0.10384790940E+04  0.25500000000E-02 0. -1.
    8880023    1    1    2    0    0 -0.64939931164E+03  0.45348997868E+03  0.14417792117E+04  0.17719791558E+04  0.65864270000E+03 0.  0.
    8880022    1    1    2    0    0  0.64939931164E+03 -0.45348997868E+03 -0.68710140384E+03  0.10596568402E+04  0.15294330000E+03 0.  0.
<mgrwt>
<rscale>  0 0.96905694E+03</rscale>
<asrwt>0</asrwt>
<pdfrwt beam="1">  1        2 0.15976602E+00 0.10301373E+04</pdfrwt>
<pdfrwt beam="2">  1       -2 0.27587029E+00 0.10301373E+04</pdfrwt>
<totfact> 0.10582377E+00</totfact>
</mgrwt>
</event>
<event>
 4    5  0.1112901E-007  0.8147090E+03  0.7818608E-02  0.9679850E-01
          2   -1    0    0  501    0  0.00000000000E+00  0.00000000000E+00  0.31694217865E+04  0.31694217865E+04  0.25500000000E-02 0. -1.
         -2   -1    0    0    0  501 -0.00000000000E+00 -0.00000000000E+00 -0.16534213108E+03  0.16534213110E+03  0.25500000000E-02 0.  1.
    8880023    1    1    2    0    0 -0.13230993854E+03  0.46090629758E+03  0.11222921027E+04  0.13868274244E+04  0.65864270000E+03 0.  1.
    8880022    1    1    2    0    0  0.13230993854E+03 -0.46090629758E+03  0.18817875528E+04  0.19479364933E+04  0.15294330000E+03 0.  0.
<mgrwt>
<rscale>  0 0.72229262E+03</rscale>
<asrwt>0</asrwt>
<pdfrwt beam="1">  1        2 0.48760331E+00 0.81470899E+03</pdfrwt>
<pdfrwt beam="2">  1       -2 0.25437253E-01 0.81470899E+03</pdfrwt>
<totfact> 0.19867415E+01</totfact>
</mgrwt>
</event>
<event>
 4    5  0.1112901E-007  0.9963870E+03  0.7818608E-02  0.9386300E-01
          2   -1    0    0  501    0  0.00000000000E+00  0.00000000000E+00  0.25881662454E+04  0.25881662454E+04  0.25500000000E-02 0. -1.
         -2   -1    0    0    0  501 -0.00000000000E+00 -0.00000000000E+00 -0.38199538127E+03  0.38199538127E+03  0.25500000000E-02 0.  1.
    8880023    1    1    2    0    0  0.59322123984E+03 -0.45504433072E+03  0.19048299988E+04  0.21496893527E+04  0.65864270000E+03 0. -1.
    8880022    1    1    2    0    0 -0.59322123984E+03  0.45504433072E+03  0.30134086535E+03  0.82047227404E+03  0.15294330000E+03 0.  0.
<mgrwt>
<rscale>  0 0.93211771E+03</rscale>
<asrwt>0</asrwt>
<pdfrwt beam="1">  1        2 0.39817943E+00 0.99638697E+03</pdfrwt>
<pdfrwt beam="2">  1       -2 0.58768519E-01 0.99638697E+03</pdfrwt>
<totfact> 0.84850291E+00</totfact>
</mgrwt>
</event>
<event>
 4    5  0.1112901E-007  0.6853555E+03  0.7818608E-02  0.1006443E+00
          2   -1    0    0  501    0  0.00000000000E+00  0.00000000000E+00  0.33626876019E+04  0.33626876019E+04  0.25500000000E-02 0. -1.
         -2   -1    0    0    0  501 -0.00000000000E+00 -0.00000000000E+00 -0.65794768359E+03  0.65794768360E+03  0.25500000000E-02 0.  1.
    8880023    1    1    2    0    0 -0.18879239729E+03  0.16107354276E+02 -0.47354194136E+03  0.83303913031E+03  0.65864270000E+03 0.  1.
    8880022    1    1    2    0    0  0.18879239729E+03 -0.16107354276E+02  0.31782818596E+04  0.31875961552E+04  0.15294330000E+03 0.  0.
<mgrwt>
<rscale>  0 0.52913074E+03</rscale>
<asrwt>0</asrwt>
<pdfrwt beam="1">  1        2 0.51733656E+00 0.68535554E+03</pdfrwt>
<pdfrwt beam="2">  1       -2 0.10122272E+00 0.68535554E+03</pdfrwt>
<totfact> 0.89239406E-01</totfact>
</mgrwt>
</event>
<event>
 4    5  0.1112901E-007  0.9788746E+03  0.7818608E-02  0.9409733E-01
          2   -1    0    0  501    0  0.00000000000E+00  0.00000000000E+00  0.26017143302E+04  0.26017143302E+04  0.25500000000E-02 0. -1.
         -2   -1    0    0    0  501 -0.00000000000E+00 -0.00000000000E+00 -0.14174899819E+04  0.14174899819E+04  0.25500000000E-02 0.  1.
    8880023    1    1    2    0    0  0.68303223883E+03  0.24052503196E+03 -0.11850296551E+04  0.15370396286E+04  0.65864270000E+03 0.  0.
    8880022    1    1    2    0    0 -0.68303223883E+03 -0.24052503196E+03  0.23692540034E+04  0.24821646834E+04  0.15294330000E+03 0.  0.
<mgrwt>
<rscale>  0 0.91278980E+03</rscale>
<asrwt>0</asrwt>
<pdfrwt beam="1">  1        2 0.40026374E+00 0.97887463E+03</pdfrwt>
<pdfrwt beam="2">  1       -2 0.21807538E+00 0.97887463E+03</pdfrwt>
<totfact> 0.31296240E-01</totfact>
</mgrwt>
</event>
<event>
 4    5  0.1112901E-007  0.9301353E+03  0.7818608E-02  0.9479290E-01
          2   -1    0    0  501    0  0.00000000000E+00  0.00000000000E+00  0.18736883491E+04  0.18736883491E+04  0.25500000000E-02 0. -1.
         -2   -1    0    0    0  501 -0.00000000000E+00 -0.00000000000E+00 -0.55959332180E+03  0.55959332180E+03  0.25500000000E-02 0.  1.
    8880023    1    1    2    0    0  0.18204433747E+03 -0.63103195196E+03 -0.28803220750E+02  0.93058116088E+03  0.65864270000E+03 0.  0.
    8880022    1    1    2    0    0 -0.18204433747E+03  0.63103195196E+03  0.13428982480E+04  0.15027005100E+04  0.15294330000E+03 0.  0.
<mgrwt>
<rscale>  0 0.85828035E+03</rscale>
<asrwt>0</asrwt>
<pdfrwt beam="1">  1        2 0.28825975E+00 0.93013530E+03</pdfrwt>
<pdfrwt beam="2">  1       -2 0.86091280E-01 0.93013530E+03</pdfrwt>
<totfact> 0.92652739E+00</totfact>
</mgrwt>
</event>
<event>
 4    5  0.1112901E-007  0.1675080E+04  0.7818608E-02  0.8794979E-01
          2   -1    0    0  501    0  0.00000000000E+00  0.00000000000E+00  0.21646718266E+04  0.21646718266E+04  0.25500000000E-02 0. -1.
         -2   -1    0    0    0  501 -0.00000000000E+00 -0.00000000000E+00 -0.13314693796E+04  0.13314693796E+04  0.25500000000E-02 0.  1.
    8880023    1    1    2    0    0 -0.10045241251E+04  0.11674820129E+04 -0.11841763882E+03  0.16792605253E+04  0.65864270000E+03 0.  0.
    8880022    1    1    2    0    0  0.10045241251E+04 -0.11674820129E+04  0.95162008582E+03  0.18168806810E+04  0.15294330000E+03 0.  0.
<mgrwt>
<rscale>  0 0.16422929E+04</rscale>
<asrwt>0</asrwt>
<pdfrwt beam="1">  1        2 0.33302643E+00 0.16750801E+04</pdfrwt>
<pdfrwt beam="2">  1       -2 0.20484144E+00 0.16750801E+04</pdfrwt>
<totfact> 0.61685149E-01</totfact>
</mgrwt>
</event>
<event>
 4    5  0.1112901E-007  0.1802722E+04  0.7818608E-02  0.8721032E-01
         -2   -1    0    0    0  501 -0.00000000000E+00  0.00000000000E+00  0.12733216335E+04  0.12733216335E+04  0.25500000000E-02 0.  1.
          2   -1    0    0  501    0  0.00000000000E+00 -0.00000000000E+00 -0.33404186463E+04  0.33404186463E+04  0.25500000000E-02 0. -1.
    8880023    1    1    2    0    0 -0.16558639490E+04 -0.27223247712E+03  0.17258301201E+03  0.18109641194E+04  0.65864270000E+03 0.  0.
    8880022    1    1    2    0    0  0.16558639490E+04  0.27223247712E+03 -0.22396800248E+04  0.28027761605E+04  0.15294330000E+03 0.  0.
<mgrwt>
<rscale>  0 0.17725546E+04</rscale>
<asrwt>0</asrwt>
<pdfrwt beam="1">  1        2 0.51391056E+00 0.18027219E+04</pdfrwt>
<pdfrwt beam="2">  1       -2 0.19589564E+00 0.18027219E+04</pdfrwt>
<totfact> 0.13519292E-01</totfact>
</mgrwt>
</event>
<event>
 4    5  0.1112901E-007  0.1053867E+04  0.7818608E-02  0.9314247E-01
         -2   -1    0    0    0  501 -0.00000000000E+00  0.00000000000E+00  0.13523140102E+04  0.13523140102E+04  0.25500000000E-02 0.  1.
          2   -1    0    0  501    0  0.00000000000E+00 -0.00000000000E+00 -0.10117171836E+04  0.10117171836E+04  0.25500000000E-02 0. -1.
    8880023    1    1    2    0    0 -0.60556855645E+03  0.55687689461E+03  0.87617877552E+03  0.13705198303E+04  0.65864270000E+03 0.  0.
    8880022    1    1    2    0    0  0.60556855645E+03 -0.55687689461E+03 -0.53558194900E+03  0.99351136351E+03  0.15294330000E+03 0.  0.
<mgrwt>
<rscale>  0 0.99481741E+03</rscale>
<asrwt>0</asrwt>
<pdfrwt beam="1">  1        2 0.15564880E+00 0.10538669E+04</pdfrwt>
<pdfrwt beam="2">  1       -2 0.20804831E+00 0.10538669E+04</pdfrwt>
<totfact> 0.28796094E+00</totfact>
</mgrwt>
</event>
<event>
 4    5  0.1112901E-007  0.8313851E+03  0.7818608E-02  0.9646643E-01
          2   -1    0    0  501    0  0.00000000000E+00  0.00000000000E+00  0.95796763053E+03  0.95796763053E+03  0.25500000000E-02 0. -1.
         -2   -1    0    0    0  501 -0.00000000000E+00 -0.00000000000E+00 -0.94335286807E+03  0.94335286808E+03  0.25500000000E-02 0.  1.
    8880023    1    1    2    0    0 -0.11929035264E+03  0.49311330829E+03 -0.64713737872E+03  0.10535596406E+04  0.65864270000E+03 0.  0.
    8880022    1    1    2    0    0  0.11929035264E+03 -0.49311330829E+03  0.66175214117E+03  0.84776085803E+03  0.15294330000E+03 0.  0.
<mgrwt>
<rscale>  0 0.74284454E+03</rscale>
<asrwt>0</asrwt>
<pdfrwt beam="1">  1        2 0.14737964E+00 0.83138507E+03</pdfrwt>
<pdfrwt beam="2">  1       -2 0.14513121E+00 0.83138507E+03</pdfrwt>
<totfact> 0.88402176E+00</totfact>
</mgrwt>
</event>
<event>
 4    5  0.1112901E-007  0.9184532E+03  0.7818608E-02  0.9497035E-01
         -2   -1    0    0    0  501 -0.00000000000E+00  0.00000000000E+00  0.39438471032E+03  0.39438471033E+03  0.25500000000E-02 0.  1.
          2   -1    0    0  501    0  0.00000000000E+00 -0.00000000000E+00 -0.28361834903E+04  0.28361834903E+04  0.25500000000E-02 0. -1.
    8880023    1    1    2    0    0 -0.43839764072E+03 -0.46642634108E+03 -0.26421220175E+03  0.95570095577E+03  0.65864270000E+03 0.  1.
    8880022    1    1    2    0    0  0.43839764072E+03  0.46642634108E+03 -0.21775865782E+04  0.22748672448E+04  0.15294330000E+03 0.  0.
<mgrwt>
<rscale>  0 0.84502782E+03</rscale>
<asrwt>0</asrwt>
<pdfrwt beam="1">  1        2 0.43633591E+00 0.91845317E+03</pdfrwt>
<pdfrwt beam="2">  1       -2 0.60674573E-01 0.91845317E+03</pdfrwt>
<totfact> 0.57312679E+00</totfact>
</mgrwt>
</event>
<event>
 4    5  0.1112901E-007  0.8459326E+03  0.7818608E-02  0.9619094E-01
         -2   -1    0    0    0  501 -0.00000000000E+00  0.00000000000E+00  0.31639358990E+03  0.31639358991E+03  0.25500000000E-02 0.  1.
          2   -1    0    0  501    0  0.00000000000E+00 -0.00000000000E+00 -0.16683311030E+04  0.16683311030E+04  0.25500000000E-02 0. -1.
    8880023    1    1    2    0    0 -0.44061505694E+03  0.29605754749E+03 -0.54321075575E+03  0.10053257339E+04  0.65864270000E+03 0.  1.
    8880022    1    1    2    0    0  0.44061505694E+03 -0.29605754749E+03 -0.80872675738E+03  0.97939895903E+03  0.15294330000E+03 0. -1.
<mgrwt>
<rscale>  0 0.76045219E+03</rscale>
<asrwt>0</asrwt>
<pdfrwt beam="1">  1        2 0.25666632E+00 0.84593257E+03</pdfrwt>
<pdfrwt beam="2">  1       -2 0.48675938E-01 0.84593257E+03</pdfrwt>
<totfact> 0.41419258E+01</totfact>
</mgrwt>
</event>
<event>
 4    5  0.1112901E-007  0.9258589E+03  0.7818608E-02  0.9485733E-01
         -2   -1    0    0    0  501 -0.00000000000E+00  0.00000000000E+00  0.21548426747E+04  0.21548426747E+04  0.25500000000E-02 0.  1.
          2   -1    0    0  501    0  0.00000000000E+00 -0.00000000000E+00 -0.40530213657E+03  0.40530213657E+03  0.25500000000E-02 0. -1.
    8880023    1    1    2    0    0  0.60393114988E+03  0.24222227548E+03  0.16392966832E+04  0.18826864546E+04  0.65864270000E+03 0.  0.
    8880022    1    1    2    0    0 -0.60393114988E+03 -0.24222227548E+03  0.11024385501E+03  0.67745835674E+03  0.15294330000E+03 0.  0.
<mgrwt>
<rscale>  0 0.85343858E+03</rscale>
<asrwt>0</asrwt>
<pdfrwt beam="1">  1        2 0.62354174E-01 0.92585888E+03</pdfrwt>
<pdfrwt beam="2">  1       -2 0.33151426E+00 0.92585888E+03</pdfrwt>
<totfact> 0.16271898E+00</totfact>
</mgrwt>
</event>
<event>
 4    5  0.1112901E-007  0.6878966E+03  0.7818608E-02  0.1005169E+00
         -2   -1    0    0    0  501 -0.00000000000E+00  0.00000000000E+00  0.19578875037E+04  0.19578875037E+04  0.25500000000E-02 0.  1.
          2   -1    0    0  501    0  0.00000000000E+00 -0.00000000000E+00 -0.62394142564E+03  0.62394142565E+03  0.25500000000E-02 0. -1.
    8880023    1    1    2    0    0  0.15161916177E+02  0.19789308907E+03  0.18686952250E+04  0.19912869228E+04  0.65864270000E+03 0.  1.
    8880022    1    1    2    0    0 -0.15161916177E+02 -0.19789308907E+03 -0.53474914695E+03  0.59054200662E+03  0.15294330000E+03 0.  0.
<mgrwt>
<rscale>  0 0.53440784E+03</rscale>
<asrwt>0</asrwt>
<pdfrwt beam="1">  1        2 0.95990988E-01 0.68789662E+03</pdfrwt>
<pdfrwt beam="2">  1       -2 0.30121346E+00 0.68789662E+03</pdfrwt>
<totfact> 0.15575810E+00</totfact>
</mgrwt>
</event>
<event>
 4    5  0.1112901E-007  0.9676578E+03  0.7818608E-02  0.9425151E-01
         -2   -1    0    0    0  501 -0.00000000000E+00  0.00000000000E+00  0.54846593941E+03  0.54846593941E+03  0.25500000000E-02 0.  1.
          2   -1    0    0  501    0  0.00000000000E+00 -0.00000000000E+00 -0.17880425116E+04  0.17880425116E+04  0.25500000000E-02 0. -1.
    8880023    1    1    2    0    0 -0.28085658224E+03 -0.65090009482E+03 -0.82795651215E+02  0.97119343045E+03  0.65864270000E+03 0.  0.
    8880022    1    1    2    0    0  0.28085658224E+03  0.65090009482E+03 -0.11567809209E+04  0.13653150205E+04  0.15294330000E+03 0.  0.
<mgrwt>
<rscale>  0 0.90034442E+03</rscale>
<asrwt>0</asrwt>
<pdfrwt beam="1">  1        2 0.27508346E+00 0.96765777E+03</pdfrwt>
<pdfrwt beam="2">  1       -2 0.84379376E-01 0.96765777E+03</pdfrwt>
<totfact> 0.10764423E+01</totfact>
</mgrwt>
</event>
<event>
 4    5  0.1112901E-007  0.1096106E+04  0.7818608E-02  0.9265404E-01
         -2   -1    0    0    0  501 -0.00000000000E+00  0.00000000000E+00  0.77842100069E+03  0.77842100069E+03  0.25500000000E-02 0.  1.
          2   -1    0    0  501    0  0.00000000000E+00 -0.00000000000E+00 -0.32210972336E+04  0.32210972336E+04  0.25500000000E-02 0. -1.
    8880023    1    1    2    0    0  0.78372503710E+03 -0.39167884048E+03  0.28329569298E+03  0.11321236257E+04  0.65864270000E+03 0.  1.
    8880022    1    1    2    0    0 -0.78372503710E+03  0.39167884048E+03 -0.27259719259E+04  0.28673946087E+04  0.15294330000E+03 0.  0.
<mgrwt>
<rscale>  0 0.10403114E+04</rscale>
<asrwt>0</asrwt>
<pdfrwt beam="1">  1        2 0.49555342E+00 0.10961056E+04</pdfrwt>
<pdfrwt beam="2">  1       -2 0.11975708E+00 0.10961056E+04</pdfrwt>
<totfact> 0.67550703E-01</totfact>
</mgrwt>
</event>
<event>
 4    5  0.1112901E-007  0.7224153E+03  0.7818608E-02  0.9914496E-01
          2   -1    0    0  501    0  0.00000000000E+00  0.00000000000E+00  0.39563184769E+03  0.39563184770E+03  0.25500000000E-02 0. -1.
         -2   -1    0    0    0  501 -0.00000000000E+00 -0.00000000000E+00 -0.12355013870E+04  0.12355013870E+04  0.25500000000E-02 0.  1.
    8880023    1    1    2    0    0 -0.27741373046E+02 -0.29547269127E+03 -0.10214404816E+04  0.12510893489E+04  0.65864270000E+03 0.  0.
    8880022    1    1    2    0    0  0.27741373046E+02  0.29547269127E+03  0.18157094230E+03  0.38004388585E+03  0.15294330000E+03 0.  0.
<mgrwt>
<rscale>  0 0.59563841E+03</rscale>
<asrwt>0</asrwt>
<pdfrwt beam="1">  1        2 0.60866439E-01 0.72241532E+03</pdfrwt>
<pdfrwt beam="2">  1       -2 0.19007714E+00 0.72241532E+03</pdfrwt>
<totfact> 0.12711260E+01</totfact>
</mgrwt>
</event>
<event>
 4    5  0.1112901E-007  0.8652337E+03  0.7818608E-02  0.9584321E-01
         -2   -1    0    0    0  501 -0.00000000000E+00  0.00000000000E+00  0.40926477751E+03  0.40926477751E+03  0.25500000000E-02 0.  1.
          2   -1    0    0  501    0  0.00000000000E+00 -0.00000000000E+00 -0.21934071252E+04  0.21934071252E+04  0.25500000000E-02 0. -1.
    8880023    1    1    2    0    0  0.27961821655E+03  0.48644912327E+03 -0.16310632831E+03  0.88047315527E+03  0.65864270000E+03 0.  0.
    8880022    1    1    2    0    0 -0.27961821655E+03 -0.48644912327E+03 -0.16210360194E+04  0.17221987475E+04  0.15294330000E+03 0.  0.
<mgrwt>
<rscale>  0 0.78342691E+03</rscale>
<asrwt>0</asrwt>
<pdfrwt beam="1">  1        2 0.33744724E+00 0.86523367E+03</pdfrwt>
<pdfrwt beam="2">  1       -2 0.62963813E-01 0.86523367E+03</pdfrwt>
<totfact> 0.12452096E+01</totfact>
</mgrwt>
</event>
<event>
 4    5  0.1112901E-007  0.9904666E+03  0.7818608E-02  0.9394138E-01
         -2   -1    0    0    0  501 -0.00000000000E+00  0.00000000000E+00  0.20731416658E+04  0.20731416658E+04  0.25500000000E-02 0.  1.
          2   -1    0    0  501    0  0.00000000000E+00 -0.00000000000E+00 -0.56691894032E+03  0.56691894033E+03  0.25500000000E-02 0. -1.
    8880023    1    1    2    0    0 -0.68380960075E+03 -0.28216724444E+03  0.15970314480E+04  0.18792374985E+04  0.65864270000E+03 0.  0.
    8880022    1    1    2    0    0  0.68380960075E+03  0.28216724444E+03 -0.90808722493E+02  0.76082310757E+03  0.15294330000E+03 0.  0.
<mgrwt>
<rscale>  0 0.92559689E+03</rscale>
<asrwt>0</asrwt>
<pdfrwt beam="1">  1        2 0.87218297E-01 0.99046662E+03</pdfrwt>
<pdfrwt beam="2">  1       -2 0.31894488E+00 0.99046662E+03</pdfrwt>
<totfact> 0.13042499E+00</totfact>
</mgrwt>
</event>
<event>
 4    5  0.1112901E-007  0.7271395E+03  0.7818608E-02  0.9899129E-01
         -2   -1    0    0    0  501 -0.00000000000E+00  0.00000000000E+00  0.90481699297E+03  0.90481699297E+03  0.25500000000E-02 0.  1.
          2   -1    0    0  501    0  0.00000000000E+00 -0.00000000000E+00 -0.10520174852E+04  0.10520174852E+04  0.25500000000E-02 0. -1.
    8880023    1    1    2    0    0 -0.29125834873E+03  0.10045041872E+03  0.72037611520E+03  0.10235593124E+04  0.65864270000E+03 0.  1.
    8880022    1    1    2    0    0  0.29125834873E+03 -0.10045041872E+03 -0.86757660742E+03  0.93327516579E+03  0.15294330000E+03 0.  0.
<mgrwt>
<rscale>  0 0.60303504E+03</rscale>
<asrwt>0</asrwt>
<pdfrwt beam="1">  1        2 0.16184884E+00 0.72713955E+03</pdfrwt>
<pdfrwt beam="2">  1       -2 0.13920262E+00 0.72713955E+03</pdfrwt>
<totfact> 0.86900413E+00</totfact>
</mgrwt>
</event>
<event>
 4    5  0.1112901E-007  0.1024274E+04  0.7818608E-02  0.9350467E-01
         -2   -1    0    0    0  501 -0.00000000000E+00  0.00000000000E+00  0.60176468157E+03  0.60176468158E+03  0.25500000000E-02 0.  1.
          2   -1    0    0  501    0  0.00000000000E+00 -0.00000000000E+00 -0.20083734981E+04  0.20083734981E+04  0.25500000000E-02 0. -1.
    8880023    1    1    2    0    0  0.77878247464E+03 -0.93936701678E+02 -0.37647425734E+02  0.10249652588E+04  0.65864270000E+03 0.  1.
    8880022    1    1    2    0    0 -0.77878247464E+03  0.93936701678E+02 -0.13689613908E+04  0.15851729210E+04  0.15294330000E+03 0.  0.
<mgrwt>
<rscale>  0 0.96266599E+03</rscale>
<asrwt>0</asrwt>
<pdfrwt beam="1">  1        2 0.30898054E+00 0.10242736E+04</pdfrwt>
<pdfrwt beam="2">  1       -2 0.92579182E-01 0.10242736E+04</pdfrwt>
<totfact> 0.65320646E+00</totfact>
</mgrwt>
</event>
<event>
 4    5  0.1112901E-007  0.9224730E+03  0.7818608E-02  0.9490878E-01
         -2   -1    0    0    0  501 -0.00000000000E+00  0.00000000000E+00  0.76925501836E+03  0.76925501837E+03  0.25500000000E-02 0.  1.
          2   -1    0    0  501    0  0.00000000000E+00 -0.00000000000E+00 -0.20974445953E+04  0.20974445953E+04  0.25500000000E-02 0. -1.
    8880023    1    1    2    0    0 -0.29419047999E+03 -0.57497669904E+03  0.40747171309E+03  0.10084590454E+04  0.65864270000E+03 0.  0.
    8880022    1    1    2    0    0  0.29419047999E+03  0.57497669904E+03 -0.17356612900E+04  0.18582405683E+04  0.15294330000E+03 0.  0.
<mgrwt>
<rscale>  0 0.84959737E+03</rscale>
<asrwt>0</asrwt>
<pdfrwt beam="1">  1        2 0.32268378E+00 0.92247301E+03</pdfrwt>
<pdfrwt beam="2">  1       -2 0.11834693E+00 0.92247301E+03</pdfrwt>
<totfact> 0.32759823E+00</totfact>
</mgrwt>
</event>
<event>
 4    5  0.1112901E-007  0.9566556E+03  0.7818608E-02  0.9440602E-01
         -2   -1    0    0    0  501 -0.00000000000E+00  0.00000000000E+00  0.67537449648E+03  0.67537449649E+03  0.25500000000E-02 0.  1.
          2   -1    0    0  501    0  0.00000000000E+00 -0.00000000000E+00 -0.15124099481E+04  0.15124099481E+04  0.25500000000E-02 0. -1.
    8880023    1    1    2    0    0 -0.68160542215E+03  0.12959058113E+03  0.15340133803E+03  0.96887659018E+03  0.65864270000E+03 0.  1.
    8880022    1    1    2    0    0  0.68160542215E+03 -0.12959058113E+03 -0.99043678961E+03  0.12189078544E+04  0.15294330000E+03 0.  0.
<mgrwt>
<rscale>  0 0.88808296E+03</rscale>
<asrwt>0</asrwt>
<pdfrwt beam="1">  1        2 0.23267845E+00 0.95665557E+03</pdfrwt>
<pdfrwt beam="2">  1       -2 0.10390377E+00 0.95665557E+03</pdfrwt>
<totfact> 0.94136719E+00</totfact>
</mgrwt>
</event>
<event>
 4    5  0.1112901E-007  0.1030919E+04  0.7818608E-02  0.9342179E-01
         -2   -1    0    0    0  501 -0.00000000000E+00  0.00000000000E+00  0.72907746741E+03  0.72907746741E+03  0.25500000000E-02 0.  1.
          2   -1    0    0  501    0  0.00000000000E+00 -0.00000000000E+00 -0.18074523896E+04  0.18074523896E+04  0.25500000000E-02 0. -1.
    8880023    1    1    2    0    0  0.47965628571E+03 -0.63159563789E+03  0.17478372144E+03  0.10456303160E+04  0.65864270000E+03 0.  0.
    8880022    1    1    2    0    0 -0.47965628571E+03  0.63159563789E+03 -0.12531586437E+04  0.14908995410E+04  0.15294330000E+03 0.  0.
<mgrwt>
<rscale>  0 0.96990784E+03</rscale>
<asrwt>0</asrwt>
<pdfrwt beam="1">  1        2 0.27806960E+00 0.10309187E+04</pdfrwt>
<pdfrwt beam="2">  1       -2 0.11216576E+00 0.10309187E+04</pdfrwt>
<totfact> 0.53222220E+00</totfact>
</mgrwt>
</event>
<event>
 4    5  0.1112901E-007  0.1022662E+04  0.7818608E-02  0.9352492E-01
          2   -1    0    0  501    0  0.00000000000E+00  0.00000000000E+00  0.13337916374E+04  0.13337916374E+04  0.25500000000E-02 0. -1.
         -2   -1    0    0    0  501 -0.00000000000E+00 -0.00000000000E+00 -0.20260949395E+04  0.20260949395E+04  0.25500000000E-02 0.  1.
    8880023    1    1    2    0    0 -0.18946992257E+03 -0.75903096899E+03 -0.17551373443E+04  0.20313404853E+04  0.65864270000E+03 0.  0.
    8880022    1    1    2    0    0  0.18946992257E+03  0.75903096899E+03  0.10628340421E+04  0.13285460916E+04  0.15294330000E+03 0.  0.
<mgrwt>
<rscale>  0 0.96090731E+03</rscale>
<asrwt>0</asrwt>
<pdfrwt beam="1">  1        2 0.20519871E+00 0.10226618E+04</pdfrwt>
<pdfrwt beam="2">  1       -2 0.31170691E+00 0.10226618E+04</pdfrwt>
<totfact> 0.42664880E-01</totfact>
</mgrwt>
</event>
<event>
 4    5  0.1112901E-007  0.8773729E+03  0.7818608E-02  0.9563378E-01
          2   -1    0    0  501    0  0.00000000000E+00  0.00000000000E+00  0.16970821398E+04  0.16970821398E+04  0.25500000000E-02 0. -1.
         -2   -1    0    0    0  501 -0.00000000000E+00 -0.00000000000E+00 -0.88745335749E+03  0.88745335750E+03  0.25500000000E-02 0.  1.
    8880023    1    1    2    0    0 -0.51620493055E+03 -0.26363904508E+03 -0.59313214453E+03  0.10590510014E+04  0.65864270000E+03 0.  0.
    8880022    1    1    2    0    0  0.51620493055E+03  0.26363904508E+03  0.14027609268E+04  0.15254844959E+04  0.15294330000E+03 0. -1.
<mgrwt>
<rscale>  0 0.79768258E+03</rscale>
<asrwt>0</asrwt>
<pdfrwt beam="1">  1        2 0.26108956E+00 0.87737294E+03</pdfrwt>
<pdfrwt beam="2">  1       -2 0.13653129E+00 0.87737294E+03</pdfrwt>
<totfact> 0.38123289E+00</totfact>
</mgrwt>
</event>
<event>
 4    5  0.1112901E-007  0.7318181E+03  0.7818608E-02  0.9884455E-01
         -2   -1    0    0    0  501 -0.00000000000E+00  0.00000000000E+00  0.72225181795E+03  0.72225181795E+03  0.25500000000E-02 0.  1.
          2   -1    0    0  501    0  0.00000000000E+00 -0.00000000000E+00 -0.98241455505E+03  0.98241455505E+03  0.25500000000E-02 0. -1.
    8880023    1    1    2    0    0 -0.31540052180E+03  0.47644882541E+02 -0.78405818036E+03  0.10725227086E+04  0.65864270000E+03 0. -1.
    8880022    1    1    2    0    0  0.31540052180E+03 -0.47644882541E+02  0.52389544326E+03  0.63214366442E+03  0.15294330000E+03 0.  0.
<mgrwt>
<rscale>  0 0.61020607E+03</rscale>
<asrwt>0</asrwt>
<pdfrwt beam="1">  1        2 0.15114070E+00 0.73181810E+03</pdfrwt>
<pdfrwt beam="2">  1       -2 0.11111566E+00 0.73181810E+03</pdfrwt>
<totfact> 0.16884125E+01</totfact>
</mgrwt>
</event>
<event>
 4    5  0.1112901E-007  0.6719976E+03  0.7818608E-02  0.1014270E+00
         -2   -1    0    0    0  501 -0.00000000000E+00  0.00000000000E+00  0.82127411754E+03  0.82127411755E+03  0.25500000000E-02 0.  1.
          2   -1    0    0  501    0  0.00000000000E+00 -0.00000000000E+00 -0.18466517253E+04  0.18466517253E+04  0.25500000000E-02 0. -1.
    8880023    1    1    2    0    0  0.13068565049E+03 -0.26303094150E+02  0.67677053530E+03  0.95372907878E+03  0.65864270000E+03 0.  1.
    8880022    1    1    2    0    0 -0.13068565049E+03  0.26303094150E+02 -0.17021481431E+04  0.17141967641E+04  0.15294330000E+03 0.  0.
<mgrwt>
<rscale>  0 0.49812482E+03</rscale>
<asrwt>0</asrwt>
<pdfrwt beam="1">  1        2 0.28410027E+00 0.67199762E+03</pdfrwt>
<pdfrwt beam="2">  1       -2 0.12634986E+00 0.67199762E+03</pdfrwt>
<totfact> 0.39728450E+00</totfact>
</mgrwt>
</event>
<event>
 4    5  0.1112901E-007  0.8109615E+03  0.7818608E-02  0.9687578E-01
         -2   -1    0    0    0  501 -0.00000000000E+00  0.00000000000E+00  0.26011309445E+04  0.26011309445E+04  0.25500000000E-02 0.  1.
          2   -1    0    0  501    0  0.00000000000E+00 -0.00000000000E+00 -0.95611482906E+03  0.95611482907E+03  0.25500000000E-02 0. -1.
    8880023    1    1    2    0    0 -0.22409897389E+03 -0.41668684120E+03  0.24668325371E+04  0.25967135472E+04  0.65864270000E+03 0.  1.
    8880022    1    1    2    0    0  0.22409897389E+03  0.41668684120E+03 -0.82181642174E+03  0.96053222631E+03  0.15294330000E+03 0.  0.
<mgrwt>
<rscale>  0 0.71761248E+03</rscale>
<asrwt>0</asrwt>
<pdfrwt beam="1">  1        2 0.14709459E+00 0.81096145E+03</pdfrwt>
<pdfrwt beam="2">  1       -2 0.40017399E+00 0.81096145E+03</pdfrwt>
<totfact> 0.20989049E-01</totfact>
</mgrwt>
</event>
<event>
 4    5  0.1112901E-007  0.9511096E+03  0.7818608E-02  0.9448519E-01
         -2   -1    0    0    0  501 -0.00000000000E+00  0.00000000000E+00  0.77272373857E+03  0.77272373857E+03  0.25500000000E-02 0.  1.
          2   -1    0    0  501    0  0.00000000000E+00 -0.00000000000E+00 -0.14694550376E+04  0.14694550376E+04  0.25500000000E-02 0. -1.
    8880023    1    1    2    0    0  0.68191739208E+03 -0.76079031768E+02  0.32226128885E+03  0.10042220338E+04  0.65864270000E+03 0.  0.
    8880022    1    1    2    0    0 -0.68191739208E+03  0.76079031768E+02 -0.10189925879E+04  0.12379567423E+04  0.15294330000E+03 0.  0.
<mgrwt>
<rscale>  0 0.88188061E+03</rscale>
<asrwt>0</asrwt>
<pdfrwt beam="1">  1        2 0.22607001E+00 0.95110964E+03</pdfrwt>
<pdfrwt beam="2">  1       -2 0.11888058E+00 0.95110964E+03</pdfrwt>
<totfact> 0.71733861E+00</totfact>
</mgrwt>
</event>
<event>
 4    5  0.1112901E-007  0.9531724E+03  0.7818608E-02  0.9445564E-01
         -2   -1    0    0    0  501 -0.00000000000E+00  0.00000000000E+00  0.19423269754E+04  0.19423269754E+04  0.25500000000E-02 0.  1.
          2   -1    0    0  501    0  0.00000000000E+00 -0.00000000000E+00 -0.38420841233E+03  0.38420841234E+03  0.25500000000E-02 0. -1.
    8880023    1    1    2    0    0  0.11108651396E+03  0.67999054761E+03  0.12077729698E+04  0.15385880252E+04  0.65864270000E+03 0.  0.
    8880022    1    1    2    0    0 -0.11108651396E+03 -0.67999054761E+03  0.35034559327E+03  0.78794736256E+03  0.15294330000E+03 0.  0.
<mgrwt>
<rscale>  0 0.88418923E+03</rscale>
<asrwt>0</asrwt>
<pdfrwt beam="1">  1        2 0.59108988E-01 0.95317237E+03</pdfrwt>
<pdfrwt beam="2">  1       -2 0.29881953E+00 0.95317237E+03</pdfrwt>
<totfact> 0.27257840E+00</totfact>
</mgrwt>
</event>
<event>
 4    5  0.1112901E-007  0.7300080E+03  0.7818608E-02  0.9890072E-01
         -2   -1    0    0    0  501 -0.00000000000E+00  0.00000000000E+00  0.16691931795E+03  0.16691931797E+03  0.25500000000E-02 0.  1.
          2   -1    0    0  501    0  0.00000000000E+00 -0.00000000000E+00 -0.33540233800E+04  0.33540233800E+04  0.25500000000E-02 0. -1.
    8880023    1    1    2    0    0  0.29171504613E+03  0.11833757442E+03 -0.70694262452E+03  0.10162084089E+04  0.65864270000E+03 0.  0.
    8880022    1    1    2    0    0 -0.29171504613E+03 -0.11833757442E+03 -0.24801614375E+04  0.25047342891E+04  0.15294330000E+03 0.  0.
<mgrwt>
<rscale>  0 0.60744878E+03</rscale>
<asrwt>0</asrwt>
<pdfrwt beam="1">  1        2 0.51600355E+00 0.73000798E+03</pdfrwt>
<pdfrwt beam="2">  1       -2 0.25679898E-01 0.73000798E+03</pdfrwt>
<totfact> 0.15054278E+01</totfact>
</mgrwt>
</event>
<event>
 4    5  0.1112901E-007  0.1470969E+04  0.7818608E-02  0.8930413E-01
         -2   -1    0    0    0  501 -0.00000000000E+00  0.00000000000E+00  0.10457030061E+04  0.10457030061E+04  0.25500000000E-02 0.  1.
          2   -1    0    0  501    0  0.00000000000E+00 -0.00000000000E+00 -0.27879765058E+04  0.27879765059E+04  0.25500000000E-02 0. -1.
    8880023    1    1    2    0    0  0.15608837420E+03  0.13059768726E+04 -0.20020121166E+04  0.24843111507E+04  0.65864270000E+03 0. -1.
    8880022    1    1    2    0    0 -0.15608837420E+03 -0.13059768726E+04  0.25973861685E+03  0.13493683613E+04  0.15294330000E+03 0.  0.
<mgrwt>
<rscale>  0 0.14328001E+04</rscale>
<asrwt>0</asrwt>
<pdfrwt beam="1">  1        2 0.42891946E+00 0.14709689E+04</pdfrwt>
<pdfrwt beam="2">  1       -2 0.16087739E+00 0.14709689E+04</pdfrwt>
<totfact> 0.55314279E-01</totfact>
</mgrwt>
</event>
<event>
 4    5  0.1112901E-007  0.1180018E+04  0.7818608E-02  0.9176795E-01
          2   -1    0    0  501    0  0.00000000000E+00  0.00000000000E+00  0.13100696442E+04  0.13100696442E+04  0.25500000000E-02 0. -1.
         -2   -1    0    0    0  501 -0.00000000000E+00 -0.00000000000E+00 -0.14651947807E+04  0.14651947807E+04  0.25500000000E-02 0.  1.
    8880023    1    1    2    0    0  0.97909701881E+03  0.97482229648E+00 -0.94198245821E+03  0.15098917446E+04  0.65864270000E+03 0.  0.
    8880022    1    1    2    0    0 -0.97909701881E+03 -0.97482229648E+00  0.78685732171E+03  0.12653726804E+04  0.15294330000E+03 0.  0.
<mgrwt>
<rscale>  0 0.11296182E+04</rscale>
<asrwt>0</asrwt>
<pdfrwt beam="1">  1        2 0.20154918E+00 0.11800179E+04</pdfrwt>
<pdfrwt beam="2">  1       -2 0.22541458E+00 0.11800179E+04</pdfrwt>
<totfact> 0.14498639E+00</totfact>
</mgrwt>
</event>
<event>
 4    5  0.1112901E-007  0.8809216E+03  0.7818608E-02  0.9557380E-01
          2   -1    0    0  501    0  0.00000000000E+00  0.00000000000E+00  0.23002546383E+04  0.23002546383E+04  0.25500000000E-02 0. -1.
         -2   -1    0    0    0  501 -0.00000000000E+00 -0.00000000000E+00 -0.65174988871E+03  0.65174988871E+03  0.25500000000E-02 0.  1.
    8880023    1    1    2    0    0  0.58482764523E+03 -0.13760450674E+02 -0.28522451425E+03  0.92594597814E+03  0.65864270000E+03 0.  0.
    8880022    1    1    2    0    0 -0.58482764523E+03  0.13760450674E+02  0.19337292639E+04  0.20260585489E+04  0.15294330000E+03 0.  0.
<mgrwt>
<rscale>  0 0.80182461E+03</rscale>
<asrwt>0</asrwt>
<pdfrwt beam="1">  1        2 0.35388533E+00 0.88092164E+03</pdfrwt>
<pdfrwt beam="2">  1       -2 0.10026921E+00 0.88092164E+03</pdfrwt>
<totfact> 0.38015210E+00</totfact>
</mgrwt>
</event>
<event>
 4    5  0.1112901E-007  0.1629585E+04  0.7818608E-02  0.8823168E-01
          2   -1    0    0  501    0  0.00000000000E+00  0.00000000000E+00  0.11933676091E+04  0.11933676091E+04  0.25500000000E-02 0. -1.
         -2   -1    0    0    0  501 -0.00000000000E+00 -0.00000000000E+00 -0.24732214247E+04  0.24732214247E+04  0.25500000000E-02 0.  1.
    8880023    1    1    2    0    0 -0.98538540008E+03  0.11183706759E+04 -0.14202731533E+04  0.21616483044E+04  0.65864270000E+03 0.  0.
    8880022    1    1    2    0    0  0.98538540008E+03 -0.11183706759E+04  0.14041933775E+03  0.15049407294E+04  0.15294330000E+03 0.  0.
<mgrwt>
<rscale>  0 0.15957430E+04</rscale>
<asrwt>0</asrwt>
<pdfrwt beam="1">  1        2 0.18359502E+00 0.16295851E+04</pdfrwt>
<pdfrwt beam="2">  1       -2 0.38049560E+00 0.16295851E+04</pdfrwt>
<totfact> 0.17730937E-01</totfact>
</mgrwt>
</event>
<event>
 4    5  0.1112901E-007  0.7088866E+03  0.7818608E-02  0.9962159E-01
          2   -1    0    0  501    0  0.00000000000E+00  0.00000000000E+00  0.17625332871E+04  0.17625332871E+04  0.25500000000E-02 0. -1.
         -2   -1    0    0    0  501 -0.00000000000E+00 -0.00000000000E+00 -0.30498793685E+03  0.30498793686E+03  0.25500000000E-02 0.  1.
    8880023    1    1    2    0    0 -0.24859345644E+03 -0.83133818465E+02  0.14917172983E+03  0.72441172658E+03  0.65864270000E+03 0.  1.
    8880022    1    1    2    0    0  0.24859345644E+03  0.83133818465E+02  0.13083736205E+04  0.13431094974E+04  0.15294330000E+03 0.  0.
<mgrwt>
<rscale>  0 0.57341090E+03</rscale>
<asrwt>0</asrwt>
<pdfrwt beam="1">  1        2 0.27115896E+00 0.70888655E+03</pdfrwt>
<pdfrwt beam="2">  1       -2 0.46921222E-01 0.70888655E+03</pdfrwt>
<totfact> 0.40219457E+01</totfact>
</mgrwt>
</event>
<event>
 4    5  0.1112901E-007  0.7514084E+03  0.7818608E-02  0.9827880E-01
         -2   -1    0    0    0  501 -0.00000000000E+00  0.00000000000E+00  0.50014473458E+03  0.50014473458E+03  0.25500000000E-02 0.  1.
          2   -1    0    0  501    0  0.00000000000E+00 -0.00000000000E+00 -0.10983892386E+04  0.10983892386E+04  0.25500000000E-02 0. -1.
    8880023    1    1    2    0    0 -0.90898855305E+02  0.35005970761E+03  0.13813288674E+03  0.76399954284E+03  0.65864270000E+03 0.  1.
    8880022    1    1    2    0    0  0.90898855305E+02 -0.35005970761E+03 -0.73637739075E+03  0.83453443033E+03  0.15294330000E+03 0.  0.
<mgrwt>
<rscale>  0 0.63887545E+03</rscale>
<asrwt>0</asrwt>
<pdfrwt beam="1">  1        2 0.16898296E+00 0.75140842E+03</pdfrwt>
<pdfrwt beam="2">  1       -2 0.76945344E-01 0.75140842E+03</pdfrwt>
<totfact> 0.33498080E+01</totfact>
</mgrwt>
</event>
<event>
 4    5  0.1112901E-007  0.1049463E+04  0.7818608E-02  0.9319527E-01
         -2   -1    0    0    0  501 -0.00000000000E+00  0.00000000000E+00  0.64696829472E+03  0.64696829473E+03  0.25500000000E-02 0.  1.
          2   -1    0    0  501    0  0.00000000000E+00 -0.00000000000E+00 -0.30337558790E+04  0.30337558790E+04  0.25500000000E-02 0. -1.
    8880023    1    1    2    0    0 -0.17777991299E+01 -0.81704332365E+03  0.10427831338E+03  0.10546312750E+04  0.65864270000E+03 0.  0.
    8880022    1    1    2    0    0  0.17777991299E+01  0.81704332365E+03 -0.24910658976E+04  0.26260928987E+04  0.15294330000E+03 0.  0.
<mgrwt>
<rscale>  0 0.99004885E+03</rscale>
<asrwt>0</asrwt>
<pdfrwt beam="1">  1        2 0.46673166E+00 0.10494633E+04</pdfrwt>
<pdfrwt beam="2">  1       -2 0.99533586E-01 0.10494633E+04</pdfrwt>
<totfact> 0.14020868E+00</totfact>
</mgrwt>
</event>
<event>
 4    5  0.1112901E-007  0.9433736E+03  0.7818608E-02  0.9459713E-01
          2   -1    0    0  501    0  0.00000000000E+00  0.00000000000E+00  0.11576112541E+04  0.11576112541E+04  0.25500000000E-02 0. -1.
         -2   -1    0    0    0  501 -0.00000000000E+00 -0.00000000000E+00 -0.12377266718E+04  0.12377266718E+04  0.25500000000E-02 0.  1.
    8880023    1    1    2    0    0 -0.48726567702E+03 -0.46767048190E+03 -0.91255579067E+03  0.13125211606E+04  0.65864270000E+03 0.  0.
    8880022    1    1    2    0    0  0.48726567702E+03  0.46767048190E+03  0.83244037295E+03  0.10828167653E+04  0.15294330000E+03 0.  0.
<mgrwt>
<rscale>  0 0.87320325E+03</rscale>
<asrwt>0</asrwt>
<pdfrwt beam="1">  1        2 0.17809404E+00 0.94337359E+03</pdfrwt>
<pdfrwt beam="2">  1       -2 0.19041949E+00 0.94337359E+03</pdfrwt>
<totfact> 0.30883512E+00</totfact>
</mgrwt>
</event>
<event>
 4    5  0.1112901E-007  0.8066051E+03  0.7818608E-02  0.9696692E-01
         -2   -1    0    0    0  501 -0.00000000000E+00  0.00000000000E+00  0.35644836220E+03  0.35644836221E+03  0.25500000000E-02 0.  1.
          2   -1    0    0  501    0  0.00000000000E+00 -0.00000000000E+00 -0.18592800422E+04  0.18592800422E+04  0.25500000000E-02 0. -1.
    8880023    1    1    2    0    0 -0.36981219126E+03  0.28291437623E+03 -0.21054790458E+03  0.83363194964E+03  0.65864270000E+03 0.  1.
    8880022    1    1    2    0    0  0.36981219126E+03 -0.28291437623E+03 -0.12922837755E+04  0.13820964548E+04  0.15294330000E+03 0.  0.
<mgrwt>
<rscale>  0 0.71214074E+03</rscale>
<asrwt>0</asrwt>
<pdfrwt beam="1">  1        2 0.28604308E+00 0.80660511E+03</pdfrwt>
<pdfrwt beam="2">  1       -2 0.54838211E-01 0.80660511E+03</pdfrwt>
<totfact> 0.25599533E+01</totfact>
</mgrwt>
</event>
<event>
 4    5  0.1112901E-007  0.9615058E+03  0.7818608E-02  0.9433749E-01
         -2   -1    0    0    0  501 -0.00000000000E+00  0.00000000000E+00  0.10135902529E+04  0.10135902529E+04  0.25500000000E-02 0.  1.
          2   -1    0    0  501    0  0.00000000000E+00 -0.00000000000E+00 -0.32161366090E+04  0.32161366090E+04  0.25500000000E-02 0. -1.
    8880023    1    1    2    0    0  0.69045835950E+03  0.11811228273E+03  0.73226878479E+03  0.12085987907E+04  0.65864270000E+03 0.  0.
    8880022    1    1    2    0    0 -0.69045835950E+03 -0.11811228273E+03 -0.29348151410E+04  0.30211280712E+04  0.15294330000E+03 0.  0.
<mgrwt>
<rscale>  0 0.89349524E+03</rscale>
<asrwt>0</asrwt>
<pdfrwt beam="1">  1        2 0.49479024E+00 0.96150583E+03</pdfrwt>
<pdfrwt beam="2">  1       -2 0.15593696E+00 0.96150583E+03</pdfrwt>
<totfact> 0.35201837E-01</totfact>
</mgrwt>
</event>
<event>
 4    5  0.1112901E-007  0.8115333E+03  0.7818608E-02  0.9686392E-01
         -2   -1    0    0    0  501 -0.00000000000E+00  0.00000000000E+00  0.16023304072E+03  0.16023304074E+03  0.25500000000E-02 0.  1.
          2   -1    0    0  501    0  0.00000000000E+00 -0.00000000000E+00 -0.30939084562E+04  0.30939084562E+04  0.25500000000E-02 0. -1.
    8880023    1    1    2    0    0  0.20124496822E+03 -0.42927444548E+03 -0.23532348102E+04  0.24892369042E+04  0.65864270000E+03 0.  0.
    8880022    1    1    2    0    0 -0.20124496822E+03  0.42927444548E+03 -0.58044060523E+03  0.76490459274E+03  0.15294330000E+03 0.  0.
<mgrwt>
<rscale>  0 0.71832821E+03</rscale>
<asrwt>0</asrwt>
<pdfrwt beam="1">  1        2 0.47598587E+00 0.81153330E+03</pdfrwt>
<pdfrwt beam="2">  1       -2 0.24651239E-01 0.81153330E+03</pdfrwt>
<totfact> 0.23468736E+01</totfact>
</mgrwt>
</event>
<event>
 4    5  0.1112901E-007  0.6893885E+03  0.7818608E-02  0.1004445E+00
          2   -1    0    0  501    0  0.00000000000E+00  0.00000000000E+00  0.97107664563E+03  0.97107664563E+03  0.25500000000E-02 0. -1.
         -2   -1    0    0    0  501 -0.00000000000E+00 -0.00000000000E+00 -0.29305705044E+03  0.29305705045E+03  0.25500000000E-02 0.  1.
    8880023    1    1    2    0    0 -0.20307604355E+03 -0.14368533886E+02  0.19228396889E+03  0.71570221824E+03  0.65864270000E+03 0.  0.
    8880022    1    1    2    0    0  0.20307604355E+03  0.14368533886E+02  0.48573562629E+03  0.54843147785E+03  0.15294330000E+03 0.  0.
<mgrwt>
<rscale>  0 0.53743597E+03</rscale>
<asrwt>0</asrwt>
<pdfrwt beam="1">  1        2 0.14939641E+00 0.68938853E+03</pdfrwt>
<pdfrwt beam="2">  1       -2 0.45085700E-01 0.68938853E+03</pdfrwt>
<totfact> 0.12475506E+02</totfact>
</mgrwt>
</event>
<event>
 4    5  0.1112901E-007  0.1013085E+04  0.7818608E-02  0.9364635E-01
         -2   -1    0    0    0  501 -0.00000000000E+00  0.00000000000E+00  0.48501581292E+03  0.48501581293E+03  0.25500000000E-02 0.  1.
          2   -1    0    0  501    0  0.00000000000E+00 -0.00000000000E+00 -0.17954165409E+04  0.17954165409E+04  0.25500000000E-02 0. -1.
    8880023    1    1    2    0    0 -0.53255867435E+03 -0.55579839557E+03 -0.42873732058E+03  0.11000711315E+04  0.65864270000E+03 0.  0.
    8880022    1    1    2    0    0  0.53255867435E+03  0.55579839557E+03 -0.88166340741E+03  0.11803612223E+04  0.15294330000E+03 0.  0.
<mgrwt>
<rscale>  0 0.95044083E+03</rscale>
<asrwt>0</asrwt>
<pdfrwt beam="1">  1        2 0.27621793E+00 0.10130848E+04</pdfrwt>
<pdfrwt beam="2">  1       -2 0.74617818E-01 0.10130848E+04</pdfrwt>
<totfact> 0.14000752E+01</totfact>
</mgrwt>
</event>
<event>
 4    5  0.1112901E-007  0.1142519E+04  0.7818608E-02  0.9215130E-01
         -2   -1    0    0    0  501 -0.00000000000E+00  0.00000000000E+00  0.98432056025E+03  0.98432056025E+03  0.25500000000E-02 0.  1.
          2   -1    0    0  501    0  0.00000000000E+00 -0.00000000000E+00 -0.28425456883E+04  0.28425456883E+04  0.25500000000E-02 0. -1.
    8880023    1    1    2    0    0  0.93319504529E+03  0.26199064440E+02  0.52899115831E+03  0.12590398069E+04  0.65864270000E+03 0.  0.
    8880022    1    1    2    0    0 -0.93319504529E+03 -0.26199064440E+02 -0.23872162863E+04  0.25678264416E+04  0.15294330000E+03 0.  0.
<mgrwt>
<rscale>  0 0.10898614E+04</rscale>
<asrwt>0</asrwt>
<pdfrwt beam="1">  1        2 0.43731472E+00 0.11425190E+04</pdfrwt>
<pdfrwt beam="2">  1       -2 0.15143393E+00 0.11425190E+04</pdfrwt>
<totfact> 0.63039830E-01</totfact>
</mgrwt>
</event>
<event>
 4    5  0.1112901E-007  0.1371885E+04  0.7818608E-02  0.9005842E-01
          2   -1    0    0  501    0  0.00000000000E+00  0.00000000000E+00  0.20598978674E+04  0.20598978674E+04  0.25500000000E-02 0. -1.
         -2   -1    0    0    0  501 -0.00000000000E+00 -0.00000000000E+00 -0.14707119039E+04  0.14707119039E+04  0.25500000000E-02 0.  1.
    8880023    1    1    2    0    0 -0.93979488580E+03 -0.75169407179E+03 -0.87652255565E+03  0.16279927524E+04  0.65864270000E+03 0. -1.
    8880022    1    1    2    0    0  0.93979488580E+03  0.75169407179E+03  0.14657085191E+04  0.19026170190E+04  0.15294330000E+03 0.  0.
<mgrwt>
<rscale>  0 0.13303437E+04</rscale>
<asrwt>0</asrwt>
<pdfrwt beam="1">  1        2 0.31690736E+00 0.13718851E+04</pdfrwt>
<pdfrwt beam="2">  1       -2 0.22626337E+00 0.13718851E+04</pdfrwt>
<totfact> 0.53121533E-01</totfact>
</mgrwt>
</event>
<event>
 4    5  0.1112901E-007  0.6996916E+03  0.7818608E-02  0.9998483E-01
          2   -1    0    0  501    0  0.00000000000E+00  0.00000000000E+00  0.20016985676E+04  0.20016985676E+04  0.25500000000E-02 0. -1.
         -2   -1    0    0    0  501 -0.00000000000E+00 -0.00000000000E+00 -0.89886998178E+03  0.89886998179E+03  0.25500000000E-02 0.  1.
    8880023    1    1    2    0    0  0.12667146751E+03 -0.19927999212E+03 -0.75046433195E+03  0.10260434181E+04  0.65864270000E+03 0.  1.
    8880022    1    1    2    0    0 -0.12667146751E+03  0.19927999212E+03  0.18532929178E+04  0.18745251313E+04  0.15294330000E+03 0.  0.
<mgrwt>
<rscale>  0 0.55716812E+03</rscale>
<asrwt>0</asrwt>
<pdfrwt beam="1">  1        2 0.30795362E+00 0.69969163E+03</pdfrwt>
<pdfrwt beam="2">  1       -2 0.13828769E+00 0.69969163E+03</pdfrwt>
<totfact> 0.25884111E+00</totfact>
</mgrwt>
</event>
<event>
 4    5  0.1112901E-007  0.1976453E+04  0.7818608E-02  0.8630738E-01
         -2   -1    0    0    0  501 -0.00000000000E+00  0.00000000000E+00  0.27026330528E+04  0.27026330528E+04  0.25500000000E-02 0.  1.
          2   -1    0    0  501    0  0.00000000000E+00 -0.00000000000E+00 -0.26708869254E+04  0.26708869254E+04  0.25500000000E-02 0. -1.
    8880023    1    1    2    0    0  0.16551836788E+04  0.85610858521E+03 -0.18597618357E+04  0.27138679430E+04  0.65864270000E+03 0.  0.
    8880022    1    1    2    0    0 -0.16551836788E+04 -0.85610858521E+03  0.18915079632E+04  0.26596520352E+04  0.15294330000E+03 0.  0.
<mgrwt>
<rscale>  0 0.19492180E+04</rscale>
<asrwt>0</asrwt>
<pdfrwt beam="1">  1        2 0.41090568E+00 0.19764527E+04</pdfrwt>
<pdfrwt beam="2">  1       -2 0.41578970E+00 0.19764527E+04</pdfrwt>
<totfact> 0.14252597E-02</totfact>
</mgrwt>
</event>
<event>
 4    5  0.1112901E-007  0.6769307E+03  0.7818608E-02  0.1011116E+00
          2   -1    0    0  501    0  0.00000000000E+00  0.00000000000E+00  0.22818013279E+04  0.22818013279E+04  0.25500000000E-02 0. -1.
         -2   -1    0    0    0  501 -0.00000000000E+00 -0.00000000000E+00 -0.62454710724E+03  0.62454710724E+03  0.25500000000E-02 0.  1.
    8880023    1    1    2    0    0 -0.74565422805E+02 -0.13734961178E+03 -0.43372877026E+03  0.80396254300E+03  0.65864270000E+03 0.  1.
    8880022    1    1    2    0    0  0.74565422805E+02  0.13734961178E+03  0.20909829909E+04  0.21023858921E+04  0.15294330000E+03 0.  0.
<mgrwt>
<rscale>  0 0.51033511E+03</rscale>
<asrwt>0</asrwt>
<pdfrwt beam="1">  1        2 0.35104636E+00 0.67693066E+03</pdfrwt>
<pdfrwt beam="2">  1       -2 0.96084170E-01 0.67693066E+03</pdfrwt>
<totfact> 0.44573821E+00</totfact>
</mgrwt>
</event>
<event>
 4    5  0.1112901E-007  0.1185822E+04  0.7818608E-02  0.9171029E-01
          2   -1    0    0  501    0  0.00000000000E+00  0.00000000000E+00  0.11498553257E+04  0.11498553257E+04  0.25500000000E-02 0. -1.
         -2   -1    0    0    0  501 -0.00000000000E+00 -0.00000000000E+00 -0.28701129768E+04  0.28701129768E+04  0.25500000000E-02 0.  1.
    8880023    1    1    2    0    0 -0.65360052789E+03  0.73835590951E+03 -0.24911624566E+04  0.27589968631E+04  0.65864270000E+03 0.  1.
    8880022    1    1    2    0    0  0.65360052789E+03 -0.73835590951E+03  0.77090480540E+03  0.12609714395E+04  0.15294330000E+03 0.  0.
<mgrwt>
<rscale>  0 0.11357523E+04</rscale>
<asrwt>0</asrwt>
<pdfrwt beam="1">  1        2 0.17690082E+00 0.11858218E+04</pdfrwt>
<pdfrwt beam="2">  1       -2 0.44155584E+00 0.11858218E+04</pdfrwt>
<totfact> 0.79090781E-02</totfact>
</mgrwt>
</event>
<event>
 4    5  0.1112901E-007  0.1248404E+04  0.7818608E-02  0.9111448E-01
         -2   -1    0    0    0  501 -0.00000000000E+00  0.00000000000E+00  0.86849344529E+03  0.86849344529E+03  0.25500000000E-02 0.  1.
          2   -1    0    0  501    0  0.00000000000E+00 -0.00000000000E+00 -0.28903038019E+04  0.28903038019E+04  0.25500000000E-02 0. -1.
    8880023    1    1    2    0    0  0.10275602719E+04  0.26234072543E+03 -0.23304256004E+04  0.26437466698E+04  0.65864270000E+03 0. -1.
    8880022    1    1    2    0    0 -0.10275602719E+04 -0.26234072543E+03  0.30861524374E+03  0.11150505775E+04  0.15294330000E+03 0.  0.
<mgrwt>
<rscale>  0 0.12016102E+04</rscale>
<asrwt>0</asrwt>
<pdfrwt beam="1">  1        2 0.44466212E+00 0.12484042E+04</pdfrwt>
<pdfrwt beam="2">  1       -2 0.13361438E+00 0.12484042E+04</pdfrwt>
<totfact> 0.80702609E-01</totfact>
</mgrwt>
</event>
<event>
 4    5  0.1112901E-007  0.7508398E+03  0.7818608E-02  0.9829427E-01
          2   -1    0    0  501    0  0.00000000000E+00  0.00000000000E+00  0.86246556431E+03  0.86246556432E+03  0.25500000000E-02 0. -1.
         -2   -1    0    0    0  501 -0.00000000000E+00 -0.00000000000E+00 -0.52055062062E+03  0.52055062063E+03  0.25500000000E-02 0.  1.
    8880023    1    1    2    0    0 -0.16965750538E+03 -0.31806691988E+03 -0.13820586249E+03  0.76345353581E+03  0.65864270000E+03 0.  0.
    8880022    1    1    2    0    0  0.16965750538E+03  0.31806691988E+03  0.48012080618E+03  0.61956264913E+03  0.15294330000E+03 0.  0.
<mgrwt>
<rscale>  0 0.63806963E+03</rscale>
<asrwt>0</asrwt>
<pdfrwt beam="1">  1        2 0.13268701E+00 0.75083982E+03</pdfrwt>
<pdfrwt beam="2">  1       -2 0.80084712E-01 0.75083982E+03</pdfrwt>
<totfact> 0.43514530E+01</totfact>
</mgrwt>
</event>
<event>
 4    5  0.1112901E-007  0.9204322E+03  0.7818608E-02  0.9493997E-01
         -2   -1    0    0    0  501 -0.00000000000E+00  0.00000000000E+00  0.10394955762E+04  0.10394955762E+04  0.25500000000E-02 0.  1.
          2   -1    0    0  501    0  0.00000000000E+00 -0.00000000000E+00 -0.72967143351E+03  0.72967143352E+03  0.25500000000E-02 0. -1.
    8880023    1    1    2    0    0  0.17412650027E+03 -0.61892257472E+03  0.54262263596E+03  0.10684730801E+04  0.65864270000E+03 0.  0.
    8880022    1    1    2    0    0 -0.17412650027E+03  0.61892257472E+03 -0.23279849322E+03  0.70069392966E+03  0.15294330000E+03 0.  0.
<mgrwt>
<rscale>  0 0.84727871E+03</rscale>
<asrwt>0</asrwt>
<pdfrwt beam="1">  1        2 0.11225714E+00 0.92043218E+03</pdfrwt>
<pdfrwt beam="2">  1       -2 0.15992240E+00 0.92043218E+03</pdfrwt>
<totfact> 0.97919697E+00</totfact>
</mgrwt>
</event>
<event>
 4    5  0.1112901E-007  0.8163224E+03  0.7818608E-02  0.9676555E-01
          2   -1    0    0  501    0  0.00000000000E+00  0.00000000000E+00  0.15650069520E+04  0.15650069520E+04  0.25500000000E-02 0. -1.
         -2   -1    0    0    0  501 -0.00000000000E+00 -0.00000000000E+00 -0.99587768065E+03  0.99587768065E+03  0.25500000000E-02 0.  1.
    8880023    1    1    2    0    0 -0.54334838436E+02 -0.47918658066E+03 -0.77443269442E+03  0.11252236481E+04  0.65864270000E+03 0.  1.
    8880022    1    1    2    0    0  0.54334838436E+02  0.47918658066E+03  0.13435619658E+04  0.14356609846E+04  0.15294330000E+03 0.  0.
<mgrwt>
<rscale>  0 0.72430016E+03</rscale>
<asrwt>0</asrwt>
<pdfrwt beam="1">  1        2 0.24077030E+00 0.81632240E+03</pdfrwt>
<pdfrwt beam="2">  1       -2 0.15321195E+00 0.81632240E+03</pdfrwt>
<totfact> 0.33623480E+00</totfact>
</mgrwt>
</event>
<event>
 4    5  0.1112901E-007  0.1158723E+04  0.7818608E-02  0.9198330E-01
          2   -1    0    0  501    0  0.00000000000E+00  0.00000000000E+00  0.35378614084E+04  0.35378614084E+04  0.25500000000E-02 0. -1.
         -2   -1    0    0    0  501 -0.00000000000E+00 -0.00000000000E+00 -0.74169504283E+03  0.74169504284E+03  0.25500000000E-02 0.  1.
    8880023    1    1    2    0    0  0.72170637318E+03 -0.62287090143E+03 -0.15999413690E+03  0.11697164524E+04  0.65864270000E+03 0.  0.
    8880022    1    1    2    0    0 -0.72170637318E+03  0.62287090143E+03  0.29561605024E+04  0.31098399988E+04  0.15294330000E+03 0.  0.
<mgrwt>
<rscale>  0 0.11070684E+04</rscale>
<asrwt>0</asrwt>
<pdfrwt beam="1">  1        2 0.54428638E+00 0.11587228E+04</pdfrwt>
<pdfrwt beam="2">  1       -2 0.11410693E+00 0.11587228E+04</pdfrwt>
<totfact> 0.46221680E-01</totfact>
</mgrwt>
</event>
<event>
 4    5  0.1112901E-007  0.8437705E+03  0.7818608E-02  0.9623111E-01
          2   -1    0    0  501    0  0.00000000000E+00  0.00000000000E+00  0.13958142208E+04  0.13958142208E+04  0.25500000000E-02 0. -1.
         -2   -1    0    0    0  501 -0.00000000000E+00 -0.00000000000E+00 -0.16952862928E+04  0.16952862928E+04  0.25500000000E-02 0.  1.
    8880023    1    1    2    0    0 -0.20308090127E+02  0.52699726112E+03 -0.15279706220E+04  0.17454635372E+04  0.65864270000E+03 0.  0.
    8880022    1    1    2    0    0  0.20308090127E+02 -0.52699726112E+03  0.12284985500E+04  0.13456369764E+04  0.15294330000E+03 0.  0.
<mgrwt>
<rscale>  0 0.75785238E+03</rscale>
<asrwt>0</asrwt>
<pdfrwt beam="1">  1        2 0.21474065E+00 0.84377055E+03</pdfrwt>
<pdfrwt beam="2">  1       -2 0.26081327E+00 0.84377055E+03</pdfrwt>
<totfact> 0.82229775E-01</totfact>
</mgrwt>
</event>
<event>
 4    5  0.1112901E-007  0.7986214E+03  0.7818608E-02  0.9713785E-01
          2   -1    0    0  501    0  0.00000000000E+00  0.00000000000E+00  0.40471558862E+04  0.40471558862E+04  0.25500000000E-02 0. -1.
         -2   -1    0    0    0  501 -0.00000000000E+00 -0.00000000000E+00 -0.25962669789E+03  0.25962669791E+03  0.25500000000E-02 0.  1.
    8880023    1    1    2    0    0  0.26873631556E+03  0.36299689127E+03  0.41368170563E+03  0.89940464209E+03  0.65864270000E+03 0.  1.
    8880022    1    1    2    0    0 -0.26873631556E+03 -0.36299689127E+03  0.33738474826E+04  0.34073779420E+04  0.15294330000E+03 0.  0.
<mgrwt>
<rscale>  0 0.70201949E+03</rscale>
<asrwt>0</asrwt>
<pdfrwt beam="1">  1        2 0.62263933E+00 0.79862141E+03</pdfrwt>
<pdfrwt beam="2">  1       -2 0.39942571E-01 0.79862141E+03</pdfrwt>
<totfact> 0.20414230E+00</totfact>
</mgrwt>
</event>
<event>
 4    5  0.1112901E-007  0.7531768E+03  0.7818608E-02  0.9823103E-01
          2   -1    0    0  501    0  0.00000000000E+00  0.00000000000E+00  0.16579731577E+04  0.16579731577E+04  0.25500000000E-02 0. -1.
         -2   -1    0    0    0  501 -0.00000000000E+00 -0.00000000000E+00 -0.34785757360E+03  0.34785757361E+03  0.25500000000E-02 0.  1.
    8880023    1    1    2    0    0  0.20721019696E+03 -0.30088037565E+03  0.13423676129E+03  0.76504560682E+03  0.65864270000E+03 0.  1.
    8880022    1    1    2    0    0 -0.20721019696E+03  0.30088037565E+03  0.11758788228E+04  0.12407851245E+04  0.15294330000E+03 0.  0.
<mgrwt>
<rscale>  0 0.64137287E+03</rscale>
<asrwt>0</asrwt>
<pdfrwt beam="1">  1        2 0.25507279E+00 0.75317679E+03</pdfrwt>
<pdfrwt beam="2">  1       -2 0.53516550E-01 0.75317679E+03</pdfrwt>
<totfact> 0.34914871E+01</totfact>
</mgrwt>
</event>
<event>
 4    5  0.1112901E-007  0.1694449E+04  0.7818608E-02  0.8783286E-01
         -2   -1    0    0    0  501 -0.00000000000E+00  0.00000000000E+00  0.19558845222E+04  0.19558845222E+04  0.25500000000E-02 0.  1.
          2   -1    0    0  501    0  0.00000000000E+00 -0.00000000000E+00 -0.18673438757E+04  0.18673438757E+04  0.25500000000E-02 0. -1.
    8880023    1    1    2    0    0  0.47596551802E+03  0.14868773487E+04 -0.94935982178E+03  0.19422774523E+04  0.65864270000E+03 0.  0.
    8880022    1    1    2    0    0 -0.47596551802E+03 -0.14868773487E+04  0.10379004683E+04  0.18809509455E+04  0.15294330000E+03 0.  0.
<mgrwt>
<rscale>  0 0.16620902E+04</rscale>
<asrwt>0</asrwt>
<pdfrwt beam="1">  1        2 0.28728367E+00 0.16944491E+04</pdfrwt>
<pdfrwt beam="2">  1       -2 0.30090531E+00 0.16944491E+04</pdfrwt>
<totfact> 0.22824871E-01</totfact>
</mgrwt>
</event>
<event>
 4    5  0.1112901E-007  0.1561123E+04  0.7818608E-02  0.8867638E-01
          2   -1    0    0  501    0  0.00000000000E+00  0.00000000000E+00  0.18439007178E+04  0.18439007178E+04  0.25500000000E-02 0. -1.
         -2   -1    0    0    0  501 -0.00000000000E+00 -0.00000000000E+00 -0.12409782376E+04  0.12409782376E+04  0.25500000000E-02 0.  1.
    8880023    1    1    2    0    0  0.14048466395E+04  0.17234235426E+03  0.56670281740E+03  0.16608004868E+04  0.65864270000E+03 0.  0.
    8880022    1    1    2    0    0 -0.14048466395E+04 -0.17234235426E+03  0.36219662783E+02  0.14240784685E+04  0.15294330000E+03 0.  0.
<mgrwt>
<rscale>  0 0.15255494E+04</rscale>
<asrwt>0</asrwt>
<pdfrwt beam="1">  1        2 0.28367703E+00 0.15611234E+04</pdfrwt>
<pdfrwt beam="2">  1       -2 0.19091973E+00 0.15611234E+04</pdfrwt>
<totfact> 0.11660914E+00</totfact>
</mgrwt>
</event>
<event>
 4    5  0.1112901E-007  0.7792218E+03  0.7818608E-02  0.9757668E-01
          2   -1    0    0  501    0  0.00000000000E+00  0.00000000000E+00  0.47718380287E+03  0.47718380288E+03  0.25500000000E-02 0. -1.
         -2   -1    0    0    0  501 -0.00000000000E+00 -0.00000000000E+00 -0.10830873840E+04  0.10830873840E+04  0.25500000000E-02 0.  1.
    8880023    1    1    2    0    0  0.41632653069E+03 -0.69698186683E+01  0.35950076938E+02  0.78005062196E+03  0.65864270000E+03 0. -1.
    8880022    1    1    2    0    0 -0.41632653069E+03  0.69698186683E+01 -0.64185365803E+03  0.78022056488E+03  0.15294330000E+03 0.  0.
<mgrwt>
<rscale>  0 0.67684639E+03</rscale>
<asrwt>0</asrwt>
<pdfrwt beam="1">  1        2 0.73412893E-01 0.77922177E+03</pdfrwt>
<pdfrwt beam="2">  1       -2 0.16662883E+00 0.77922177E+03</pdfrwt>
<totfact> 0.14826815E+01</totfact>
</mgrwt>
</event>
<event>
 4    5  0.1112901E-007  0.8084184E+03  0.7818608E-02  0.9692881E-01
          2   -1    0    0  501    0  0.00000000000E+00  0.00000000000E+00  0.97373998894E+03  0.97373998894E+03  0.25500000000E-02 0. -1.
         -2   -1    0    0    0  501 -0.00000000000E+00 -0.00000000000E+00 -0.12302508290E+04  0.12302508290E+04  0.25500000000E-02 0.  1.
    8880023    1    1    2    0    0  0.38848937483E+03 -0.26230904717E+03 -0.10160618363E+04  0.12984305496E+04  0.65864270000E+03 0.  1.
    8880022    1    1    2    0    0 -0.38848937483E+03  0.26230904717E+03  0.75955099630E+03  0.90556026833E+03  0.15294330000E+03 0.  0.
<mgrwt>
<rscale>  0 0.71442244E+03</rscale>
<asrwt>0</asrwt>
<pdfrwt beam="1">  1        2 0.14980615E+00 0.80841836E+03</pdfrwt>
<pdfrwt beam="2">  1       -2 0.18926936E+00 0.80841836E+03</pdfrwt>
<totfact> 0.41645361E+00</totfact>
</mgrwt>
</event>
<event>
 4    5  0.1112901E-007  0.9303526E+03  0.7818608E-02  0.9478964E-01
         -2   -1    0    0    0  501 -0.00000000000E+00  0.00000000000E+00  0.84740656976E+03  0.84740656976E+03  0.25500000000E-02 0.  1.
          2   -1    0    0  501    0  0.00000000000E+00 -0.00000000000E+00 -0.19382892258E+04  0.19382892258E+04  0.25500000000E-02 0. -1.
    8880023    1    1    2    0    0  0.56797671109E+03 -0.33037590794E+03  0.50106082157E+03  0.10567014423E+04  0.65864270000E+03 0.  1.
    8880022    1    1    2    0    0 -0.56797671109E+03  0.33037590794E+03 -0.15919434776E+04  0.17289943533E+04  0.15294330000E+03 0.  0.
<mgrwt>
<rscale>  0 0.85852611E+03</rscale>
<asrwt>0</asrwt>
<pdfrwt beam="1">  1        2 0.29819834E+00 0.93035262E+03</pdfrwt>
<pdfrwt beam="2">  1       -2 0.13037024E+00 0.93035262E+03</pdfrwt>
<totfact> 0.31392917E+00</totfact>
</mgrwt>
</event>
<event>
 4    5  0.1112901E-007  0.7221652E+03  0.7818608E-02  0.9915327E-01
         -2   -1    0    0    0  501 -0.00000000000E+00  0.00000000000E+00  0.33488660813E+03  0.33488660814E+03  0.25500000000E-02 0.  1.
          2   -1    0    0  501    0  0.00000000000E+00 -0.00000000000E+00 -0.16640824172E+04  0.16640824172E+04  0.25500000000E-02 0. -1.
    8880023    1    1    2    0    0 -0.52171095400E+02 -0.29153146261E+03 -0.10445522870E+03  0.72968042180E+03  0.65864270000E+03 0.  1.
    8880022    1    1    2    0    0  0.52171095400E+02  0.29153146261E+03 -0.12247405803E+04  0.12692886035E+04  0.15294330000E+03 0.  0.
<mgrwt>
<rscale>  0 0.59524215E+03</rscale>
<asrwt>0</asrwt>
<pdfrwt beam="1">  1        2 0.25601268E+00 0.72216523E+03</pdfrwt>
<pdfrwt beam="2">  1       -2 0.51521017E-01 0.72216523E+03</pdfrwt>
<totfact> 0.37597604E+01</totfact>
</mgrwt>
</event>
<event>
 4    5  0.1112901E-007  0.6893159E+03  0.7818608E-02  0.1004479E+00
         -2   -1    0    0    0  501 -0.00000000000E+00  0.00000000000E+00  0.19215904578E+04  0.19215904578E+04  0.25500000000E-02 0.  1.
          2   -1    0    0  501    0  0.00000000000E+00 -0.00000000000E+00 -0.26678296250E+03  0.26678296251E+03  0.25500000000E-02 0. -1.
    8880023    1    1    2    0    0 -0.10480041561E+03 -0.17425013083E+03  0.17770759217E+04  0.19060837529E+04  0.65864270000E+03 0.  1.
    8880022    1    1    2    0    0  0.10480041561E+03  0.17425013083E+03 -0.12226842644E+03  0.28228966740E+03  0.15294330000E+03 0.  0.
<mgrwt>
<rscale>  0 0.53728974E+03</rscale>
<asrwt>0</asrwt>
<pdfrwt beam="1">  1        2 0.41043535E-01 0.68931592E+03</pdfrwt>
<pdfrwt beam="2">  1       -2 0.29562928E+00 0.68931592E+03</pdfrwt>
<totfact> 0.44275794E+00</totfact>
</mgrwt>
</event>
<event>
 4    5  0.1112901E-007  0.1672244E+04  0.7818608E-02  0.8796706E-01
         -2   -1    0    0    0  501 -0.00000000000E+00  0.00000000000E+00  0.23413647466E+04  0.23413647466E+04  0.25500000000E-02 0.  1.
          2   -1    0    0  501    0  0.00000000000E+00 -0.00000000000E+00 -0.14105724905E+04  0.14105724905E+04  0.25500000000E-02 0. -1.
    8880023    1    1    2    0    0  0.15211392239E+04  0.22073619051E+03  0.13525121372E+04  0.21507413354E+04  0.65864270000E+03 0.  0.
    8880022    1    1    2    0    0 -0.15211392239E+04 -0.22073619051E+03 -0.42171988103E+03  0.16011959016E+04  0.15294330000E+03 0.  0.
<mgrwt>
<rscale>  0 0.16393929E+04</rscale>
<asrwt>0</asrwt>
<pdfrwt beam="1">  1        2 0.21701115E+00 0.16722438E+04</pdfrwt>
<pdfrwt beam="2">  1       -2 0.36020996E+00 0.16722438E+04</pdfrwt>
<totfact> 0.17710940E-01</totfact>
</mgrwt>
</event>
<event>
 4    5  0.1112901E-007  0.1470046E+04  0.7818608E-02  0.8931082E-01
         -2   -1    0    0    0  501 -0.00000000000E+00  0.00000000000E+00  0.11699319284E+04  0.11699319284E+04  0.25500000000E-02 0.  1.
          2   -1    0    0  501    0  0.00000000000E+00 -0.00000000000E+00 -0.27613248384E+04  0.27613248384E+04  0.25500000000E-02 0. -1.
    8880023    1    1    2    0    0  0.11894110132E+04 -0.55903965469E+03  0.41534100461E+03  0.15275936142E+04  0.65864270000E+03 0.  0.
    8880022    1    1    2    0    0 -0.11894110132E+04  0.55903965469E+03 -0.20067339146E+04  0.24036631525E+04  0.15294330000E+03 0.  0.
<mgrwt>
<rscale>  0 0.14318481E+04</rscale>
<asrwt>0</asrwt>
<pdfrwt beam="1">  1        2 0.42481920E+00 0.14700456E+04</pdfrwt>
<pdfrwt beam="2">  1       -2 0.17998953E+00 0.14700456E+04</pdfrwt>
<totfact> 0.41855912E-01</totfact>
</mgrwt>
</event>
<event>
 4    5  0.1112901E-007  0.1056007E+04  0.7818608E-02  0.9311695E-01
         -2   -1    0    0    0  501 -0.00000000000E+00  0.00000000000E+00  0.64832321970E+03  0.64832321970E+03  0.25500000000E-02 0.  1.
          2   -1    0    0  501    0  0.00000000000E+00 -0.00000000000E+00 -0.21507443861E+04  0.21507443861E+04  0.25500000000E-02 0. -1.
    8880023    1    1    2    0    0  0.80309302510E+03  0.19074130735E+03  0.24834557228E+02  0.10562990177E+04  0.65864270000E+03 0.  0.
    8880022    1    1    2    0    0 -0.80309302510E+03 -0.19074130735E+03 -0.15272557236E+04  0.17427685881E+04  0.15294330000E+03 0.  0.
<mgrwt>
<rscale>  0 0.99713310E+03</rscale>
<asrwt>0</asrwt>
<pdfrwt beam="1">  1        2 0.33088375E+00 0.10560070E+04</pdfrwt>
<pdfrwt beam="2">  1       -2 0.99742034E-01 0.10560070E+04</pdfrwt>
<totfact> 0.45545945E+00</totfact>
</mgrwt>
</event>
<event>
 4    5  0.1112901E-007  0.1271366E+04  0.7818608E-02  0.9090690E-01
          2   -1    0    0  501    0  0.00000000000E+00  0.00000000000E+00  0.14524981629E+04  0.14524981629E+04  0.25500000000E-02 0. -1.
         -2   -1    0    0    0  501 -0.00000000000E+00 -0.00000000000E+00 -0.13410440997E+04  0.13410440997E+04  0.25500000000E-02 0.  1.
    8880023    1    1    2    0    0 -0.23048732608E+02  0.10872122451E+04 -0.67820283087E+03  0.14409479505E+04  0.65864270000E+03 0.  0.
    8880022    1    1    2    0    0  0.23048732608E+02 -0.10872122451E+04  0.78965689409E+03  0.13525943122E+04  0.15294330000E+03 0.  0.
<mgrwt>
<rscale>  0 0.12256580E+04</rscale>
<asrwt>0</asrwt>
<pdfrwt beam="1">  1        2 0.22346126E+00 0.12713662E+04</pdfrwt>
<pdfrwt beam="2">  1       -2 0.20631448E+00 0.12713662E+04</pdfrwt>
<totfact> 0.15729369E+00</totfact>
</mgrwt>
</event>
<event>
 4    5  0.1112901E-007  0.7556832E+03  0.7818608E-02  0.9816414E-01
          2   -1    0    0  501    0  0.00000000000E+00  0.00000000000E+00  0.17275688365E+04  0.17275688365E+04  0.25500000000E-02 0. -1.
         -2   -1    0    0    0  501 -0.00000000000E+00 -0.00000000000E+00 -0.46274825596E+03  0.46274825597E+03  0.25500000000E-02 0.  1.
    8880023    1    1    2    0    0 -0.31231903576E+03 -0.19925777277E+03 -0.10511166764E+03  0.76295839273E+03  0.65864270000E+03 0.  0.
    8880022    1    1    2    0    0  0.31231903576E+03  0.19925777277E+03  0.13699322482E+04  0.14273586998E+04  0.15294330000E+03 0.  0.
<mgrwt>
<rscale>  0 0.64489055E+03</rscale>
<asrwt>0</asrwt>
<pdfrwt beam="1">  1        2 0.26577982E+00 0.75568317E+03</pdfrwt>
<pdfrwt beam="2">  1       -2 0.71192041E-01 0.75568317E+03</pdfrwt>
<totfact> 0.17429435E+01</totfact>
</mgrwt>
</event>
<event>
 4    5  0.1112901E-007  0.6653010E+03  0.7818608E-02  0.1019282E+00
         -2   -1    0    0    0  501 -0.00000000000E+00  0.00000000000E+00  0.15028858878E+04  0.15028858878E+04  0.25500000000E-02 0.  1.
          2   -1    0    0  501    0  0.00000000000E+00 -0.00000000000E+00 -0.13801791509E+04  0.13801791509E+04  0.25500000000E-02 0. -1.
    8880023    1    1    2    0    0  0.71307687865E+02  0.61077211542E+02  0.14227894027E+04  0.15706543550E+04  0.65864270000E+03 0.  1.
    8880022    1    1    2    0    0 -0.71307687865E+02 -0.61077211542E+02 -0.13000826657E+04  0.13124106837E+04  0.15294330000E+03 0.  0.
<mgrwt>
<rscale>  0 0.47946531E+03</rscale>
<asrwt>0</asrwt>
<pdfrwt beam="1">  1        2 0.21233526E+00 0.66530100E+03</pdfrwt>
<pdfrwt beam="2">  1       -2 0.23121321E+00 0.66530100E+03</pdfrwt>
<totfact> 0.13147419E+00</totfact>
</mgrwt>
</event>
<event>
 4    5  0.1112901E-007  0.1932616E+04  0.7818608E-02  0.8652521E-01
         -2   -1    0    0    0  501 -0.00000000000E+00  0.00000000000E+00  0.24720873580E+04  0.24720873580E+04  0.25500000000E-02 0.  1.
          2   -1    0    0  501    0  0.00000000000E+00 -0.00000000000E+00 -0.14993012239E+04  0.14993012239E+04  0.25500000000E-02 0. -1.
    8880023    1    1    2    0    0  0.18007272693E+04 -0.24202615796E+03  0.93678102473E+03  0.21476881185E+04  0.65864270000E+03 0.  1.
    8880022    1    1    2    0    0 -0.18007272693E+04  0.24202615796E+03  0.36005109356E+02  0.18237004635E+04  0.15294330000E+03 0. -1.
<mgrwt>
<rscale>  0 0.19046993E+04</rscale>
<asrwt>0</asrwt>
<pdfrwt beam="1">  1        2 0.23066173E+00 0.19326162E+04</pdfrwt>
<pdfrwt beam="2">  1       -2 0.38032113E+00 0.19326162E+04</pdfrwt>
<totfact> 0.11399911E-01</totfact>
</mgrwt>
</event>
<event>
 4    5  0.1112901E-007  0.9134922E+03  0.7818608E-02  0.9504710E-01
         -2   -1    0    0    0  501 -0.00000000000E+00  0.00000000000E+00  0.11030556591E+04  0.11030556591E+04  0.25500000000E-02 0.  1.
          2   -1    0    0  501    0  0.00000000000E+00 -0.00000000000E+00 -0.83350571845E+03  0.83350571845E+03  0.25500000000E-02 0. -1.
    8880023    1    1    2    0    0  0.23126932968E+03 -0.58921330870E+03  0.70439083821E+03  0.11535313109E+04  0.65864270000E+03 0.  1.
    8880022    1    1    2    0    0 -0.23126932968E+03  0.58921330870E+03 -0.43484089760E+03  0.78303006663E+03  0.15294330000E+03 0.  0.
<mgrwt>
<rscale>  0 0.83937437E+03</rscale>
<asrwt>0</asrwt>
<pdfrwt beam="1">  1        2 0.12823165E+00 0.91349222E+03</pdfrwt>
<pdfrwt beam="2">  1       -2 0.16970087E+00 0.91349222E+03</pdfrwt>
<totfact> 0.69813345E+00</totfact>
</mgrwt>
</event>
<event>
 4    5  0.1112901E-007  0.6960664E+03  0.7818608E-02  0.1001393E+00
         -2   -1    0    0    0  501 -0.00000000000E+00  0.00000000000E+00  0.18070517085E+03  0.18070517087E+03  0.25500000000E-02 0.  1.
          2   -1    0    0  501    0  0.00000000000E+00 -0.00000000000E+00 -0.19950426220E+04  0.19950426221E+04  0.25500000000E-02 0. -1.
    8880023    1    1    2    0    0  0.22367729091E+03  0.25819531994E+02 -0.56330004408E+03  0.89544141328E+03  0.65864270000E+03 0.  0.
    8880022    1    1    2    0    0 -0.22367729091E+03 -0.25819531994E+02 -0.12510374071E+04  0.12803063796E+04  0.15294330000E+03 0.  0.
<mgrwt>
<rscale>  0 0.55043725E+03</rscale>
<asrwt>0</asrwt>
<pdfrwt beam="1">  1        2 0.30692962E+00 0.69606637E+03</pdfrwt>
<pdfrwt beam="2">  1       -2 0.27800797E-01 0.69606637E+03</pdfrwt>
<totfact> 0.82035069E+01</totfact>
</mgrwt>
</event>
<event>
 4    5  0.1112901E-007  0.9954942E+03  0.7818608E-02  0.9387476E-01
         -2   -1    0    0    0  501 -0.00000000000E+00  0.00000000000E+00  0.28159947669E+03  0.28159947670E+03  0.25500000000E-02 0.  1.
          2   -1    0    0  501    0  0.00000000000E+00 -0.00000000000E+00 -0.32635523247E+04  0.32635523247E+04  0.25500000000E-02 0. -1.
    8880023    1    1    2    0    0  0.62696905873E+03  0.40510287402E+03 -0.95414962220E+03  0.13789163307E+04  0.65864270000E+03 0. -1.
    8880022    1    1    2    0    0 -0.62696905873E+03 -0.40510287402E+03 -0.20278032258E+04  0.21662354708E+04  0.15294330000E+03 0.  0.
<mgrwt>
<rscale>  0 0.93113525E+03</rscale>
<asrwt>0</asrwt>
<pdfrwt beam="1">  1        2 0.50208495E+00 0.99549422E+03</pdfrwt>
<pdfrwt beam="2">  1       -2 0.43322999E-01 0.99549422E+03</pdfrwt>
<totfact> 0.61333924E+00</totfact>
</mgrwt>
</event>
<event>
 4    5  0.1112901E-007  0.8346469E+03  0.7818608E-02  0.9640358E-01
          2   -1    0    0  501    0  0.00000000000E+00  0.00000000000E+00  0.73801011866E+03  0.73801011866E+03  0.25500000000E-02 0. -1.
         -2   -1    0    0    0  501 -0.00000000000E+00 -0.00000000000E+00 -0.65095688203E+03  0.65095688203E+03  0.25500000000E-02 0.  1.
    8880023    1    1    2    0    0  0.35670361735E+03  0.36822236057E+03 -0.51788491955E+02  0.83625201441E+03  0.65864270000E+03 0.  0.
    8880022    1    1    2    0    0 -0.35670361735E+03 -0.36822236057E+03  0.13884172858E+03  0.55271498628E+03  0.15294330000E+03 0.  1.
<mgrwt>
<rscale>  0 0.74681661E+03</rscale>
<asrwt>0</asrwt>
<pdfrwt beam="1">  1        2 0.11354002E+00 0.83464686E+03</pdfrwt>
<pdfrwt beam="2">  1       -2 0.10014721E+00 0.83464686E+03</pdfrwt>
<totfact> 0.31729718E+01</totfact>
</mgrwt>
</event>
<event>
 4    5  0.1112901E-007  0.7878759E+03  0.7818608E-02  0.9737651E-01
         -2   -1    0    0    0  501 -0.00000000000E+00  0.00000000000E+00  0.55907204887E+03  0.55907204888E+03  0.25500000000E-02 0.  1.
          2   -1    0    0  501    0  0.00000000000E+00 -0.00000000000E+00 -0.27974319445E+04  0.27974319445E+04  0.25500000000E-02 0. -1.
    8880023    1    1    2    0    0 -0.22697603912E+03  0.36799465743E+03  0.24972457205E+03  0.82650514722E+03  0.65864270000E+03 0.  1.
    8880022    1    1    2    0    0  0.22697603912E+03 -0.36799465743E+03 -0.24880844677E+04  0.25299988462E+04  0.15294330000E+03 0.  0.
<mgrwt>
<rscale>  0 0.68818621E+03</rscale>
<asrwt>0</asrwt>
<pdfrwt beam="1">  1        2 0.43037413E+00 0.78787588E+03</pdfrwt>
<pdfrwt beam="2">  1       -2 0.86011087E-01 0.78787588E+03</pdfrwt>
<totfact> 0.28641251E+00</totfact>
</mgrwt>
</event>
<event>
 4    5  0.1112901E-007  0.6600880E+03  0.7818608E-02  0.1024066E+00
         -2   -1    0    0    0  501 -0.00000000000E+00  0.00000000000E+00  0.26225324736E+03  0.26225324738E+03  0.25500000000E-02 0.  1.
          2   -1    0    0  501    0  0.00000000000E+00 -0.00000000000E+00 -0.11973361188E+04  0.11973361188E+04  0.25500000000E-02 0. -1.
    8880023    1    1    2    0    0  0.26427029519E+02 -0.34749735323E+02 -0.17479008146E+03  0.68283798286E+03  0.65864270000E+03 0.  1.
    8880022    1    1    2    0    0 -0.26427029519E+02  0.34749735323E+02 -0.76029279001E+03  0.77675138336E+03  0.15294330000E+03 0.  0.
<mgrwt>
<rscale>  0 0.46247286E+03</rscale>
<asrwt>0</asrwt>
<pdfrwt beam="1">  1        2 0.18420555E+00 0.66008798E+03</pdfrwt>
<pdfrwt beam="2">  1       -2 0.40346654E-01 0.66008798E+03</pdfrwt>
<totfact> 0.11299136E+02</totfact>
</mgrwt>
</event>
<event>
 4    5  0.1112901E-007  0.7518084E+03  0.7818608E-02  0.9826796E-01
         -2   -1    0    0    0  501 -0.00000000000E+00  0.00000000000E+00  0.54526159301E+03  0.54526159301E+03  0.25500000000E-02 0.  1.
          2   -1    0    0  501    0  0.00000000000E+00 -0.00000000000E+00 -0.10044994740E+04  0.10044994740E+04  0.25500000000E-02 0. -1.
    8880023    1    1    2    0    0 -0.30388812961E+02  0.36122323065E+03  0.20365295393E+03  0.77890335358E+03  0.65864270000E+03 0.  1.
    8880022    1    1    2    0    0  0.30388812961E+02 -0.36122323065E+03 -0.66289083492E+03  0.77085771343E+03  0.15294330000E+03 0. -1.
<mgrwt>
<rscale>  0 0.63944152E+03</rscale>
<asrwt>0</asrwt>
<pdfrwt beam="1">  1        2 0.15453838E+00 0.75180843E+03</pdfrwt>
<pdfrwt beam="2">  1       -2 0.83886399E-01 0.75180843E+03</pdfrwt>
<totfact> 0.31562824E+01</totfact>
</mgrwt>
</event>
<event>
 4    5  0.1112901E-007  0.8578903E+03  0.7818608E-02  0.9597327E-01
         -2   -1    0    0    0  501 -0.00000000000E+00  0.00000000000E+00  0.11524161861E+04  0.11524161861E+04  0.25500000000E-02 0.  1.
          2   -1    0    0  501    0  0.00000000000E+00 -0.00000000000E+00 -0.11766509408E+04  0.11766509408E+04  0.25500000000E-02 0. -1.
    8880023    1    1    2    0    0 -0.39208429884E+03 -0.38527323994E+03  0.89969742038E+03  0.12431537400E+04  0.65864270000E+03 0.  0.
    8880022    1    1    2    0    0  0.39208429884E+03  0.38527323994E+03 -0.92393217503E+03  0.10859133869E+04  0.15294330000E+03 0.  0.
<mgrwt>
<rscale>  0 0.77473332E+03</rscale>
<asrwt>0</asrwt>
<pdfrwt beam="1">  1        2 0.18102322E+00 0.85789030E+03</pdfrwt>
<pdfrwt beam="2">  1       -2 0.17729480E+00 0.85789030E+03</pdfrwt>
<totfact> 0.37347395E+00</totfact>
</mgrwt>
</event>
<event>
 4    5  0.1112901E-007  0.8592517E+03  0.7818608E-02  0.9594896E-01
          2   -1    0    0  501    0  0.00000000000E+00  0.00000000000E+00  0.14991690860E+04  0.14991690860E+04  0.25500000000E-02 0. -1.
         -2   -1    0    0    0  501 -0.00000000000E+00 -0.00000000000E+00 -0.89474162584E+03  0.89474162584E+03  0.25500000000E-02 0.  1.
    8880023    1    1    2    0    0  0.45877312888E+03 -0.30664381431E+03 -0.60830834758E+03  0.10527831993E+04  0.65864270000E+03 0.  0.
    8880022    1    1    2    0    0 -0.45877312888E+03  0.30664381431E+03  0.12127358078E+04  0.13411275126E+04  0.15294330000E+03 0.  0.
<mgrwt>
<rscale>  0 0.77634921E+03</rscale>
<asrwt>0</asrwt>
<pdfrwt beam="1">  1        2 0.23064139E+00 0.85925166E+03</pdfrwt>
<pdfrwt beam="2">  1       -2 0.13765256E+00 0.85925166E+03</pdfrwt>
<totfact> 0.48170314E+00</totfact>
</mgrwt>
</event>
<event>
 4    5  0.1112901E-007  0.6661872E+03  0.7818608E-02  0.1018557E+00
          2   -1    0    0  501    0  0.00000000000E+00  0.00000000000E+00  0.16597187858E+04  0.16597187858E+04  0.25500000000E-02 0. -1.
         -2   -1    0    0    0  501 -0.00000000000E+00 -0.00000000000E+00 -0.20435569519E+03  0.20435569521E+03  0.25500000000E-02 0.  1.
    8880023    1    1    2    0    0 -0.79930203460E+01 -0.99656161911E+02  0.36721521102E+03  0.76069209044E+03  0.65864270000E+03 0.  1.
    8880022    1    1    2    0    0  0.79930203460E+01  0.99656161911E+02  0.10881478796E+04  0.11033823906E+04  0.15294330000E+03 0.  0.
<mgrwt>
<rscale>  0 0.48210788E+03</rscale>
<asrwt>0</asrwt>
<pdfrwt beam="1">  1        2 0.25534135E+00 0.66618724E+03</pdfrwt>
<pdfrwt beam="2">  1       -2 0.31439338E-01 0.66618724E+03</pdfrwt>
<totfact> 0.99799435E+01</totfact>
</mgrwt>
</event>
<event>
 4    5  0.1112901E-007  0.7446986E+03  0.7818608E-02  0.9846466E-01
         -2   -1    0    0    0  501 -0.00000000000E+00  0.00000000000E+00  0.41026672521E+03  0.41026672522E+03  0.25500000000E-02 0.  1.
          2   -1    0    0  501    0  0.00000000000E+00 -0.00000000000E+00 -0.21007432125E+04  0.21007432125E+04  0.25500000000E-02 0. -1.
    8880023    1    1    2    0    0 -0.30503004824E+03  0.16650067104E+03  0.33761523521E+02  0.74546351388E+03  0.65864270000E+03 0.  1.
    8880022    1    1    2    0    0  0.30503004824E+03 -0.16650067104E+03 -0.17242380108E+04  0.17655464238E+04  0.15294330000E+03 0.  0.
<mgrwt>
<rscale>  0 0.62927437E+03</rscale>
<asrwt>0</asrwt>
<pdfrwt beam="1">  1        2 0.32319126E+00 0.74469860E+03</pdfrwt>
<pdfrwt beam="2">  1       -2 0.63117959E-01 0.74469860E+03</pdfrwt>
<totfact> 0.14169118E+01</totfact>
</mgrwt>
</event>
<event>
 4    5  0.1112901E-007  0.8439175E+03  0.7818608E-02  0.9622837E-01
          2   -1    0    0  501    0  0.00000000000E+00  0.00000000000E+00  0.24796797935E+04  0.24796797935E+04  0.25500000000E-02 0. -1.
         -2   -1    0    0    0  501 -0.00000000000E+00 -0.00000000000E+00 -0.23481880011E+03  0.23481880012E+03  0.25500000000E-02 0.  1.
    8880023    1    1    2    0    0 -0.52585143448E+03  0.43206256938E+02  0.77672318767E+03  0.11469505780E+04  0.65864270000E+03 0.  1.
    8880022    1    1    2    0    0  0.52585143448E+03 -0.43206256938E+02  0.14681378058E+04  0.15675480157E+04  0.15294330000E+03 0.  0.
<mgrwt>
<rscale>  0 0.75802925E+03</rscale>
<asrwt>0</asrwt>
<pdfrwt beam="1">  1        2 0.38148921E+00 0.84391748E+03</pdfrwt>
<pdfrwt beam="2">  1       -2 0.36125969E-01 0.84391748E+03</pdfrwt>
<totfact> 0.26563306E+01</totfact>
</mgrwt>
</event>
<event>
 4    5  0.1112901E-007  0.8543153E+03  0.7818608E-02  0.9603756E-01
          2   -1    0    0  501    0  0.00000000000E+00  0.00000000000E+00  0.16168488191E+04  0.16168488191E+04  0.25500000000E-02 0. -1.
         -2   -1    0    0    0  501 -0.00000000000E+00 -0.00000000000E+00 -0.14075032553E+04  0.14075032553E+04  0.25500000000E-02 0.  1.
    8880023    1    1    2    0    0 -0.52023921231E+03 -0.15936003340E+03 -0.12188222596E+04  0.14884160591E+04  0.65864270000E+03 0.  1.
    8880022    1    1    2    0    0  0.52023921231E+03  0.15936003340E+03  0.14281678234E+04  0.15359360153E+04  0.15294330000E+03 0.  0.
<mgrwt>
<rscale>  0 0.77048049E+03</rscale>
<asrwt>0</asrwt>
<pdfrwt beam="1">  1        2 0.24874597E+00 0.85431532E+03</pdfrwt>
<pdfrwt beam="2">  1       -2 0.21653896E+00 0.85431532E+03</pdfrwt>
<totfact> 0.11553575E+00</totfact>
</mgrwt>
</event>
<event>
 4    5  0.1112901E-007  0.1677999E+04  0.7818608E-02  0.8793206E-01
          2   -1    0    0  501    0  0.00000000000E+00  0.00000000000E+00  0.17640952863E+04  0.17640952863E+04  0.25500000000E-02 0. -1.
         -2   -1    0    0    0  501 -0.00000000000E+00 -0.00000000000E+00 -0.25524787807E+04  0.25524787807E+04  0.25500000000E-02 0.  1.
    8880023    1    1    2    0    0 -0.11597907766E+04  0.10182113951E+04  0.99684989899E+03  0.19517656155E+04  0.65864270000E+03 0.  0.
    8880022    1    1    2    0    0  0.11597907766E+04 -0.10182113951E+04 -0.17852333934E+04  0.23648084515E+04  0.15294330000E+03 0.  0.
<mgrwt>
<rscale>  0 0.16452768E+04</rscale>
<asrwt>0</asrwt>
<pdfrwt beam="1">  1        2 0.27139927E+00 0.16779986E+04</pdfrwt>
<pdfrwt beam="2">  1       -2 0.39268904E+00 0.16779986E+04</pdfrwt>
<totfact> 0.68892377E-02</totfact>
</mgrwt>
</event>
<event>
 4    5  0.1112901E-007  0.1230331E+04  0.7818608E-02  0.9128188E-01
          2   -1    0    0  501    0  0.00000000000E+00  0.00000000000E+00  0.18474420886E+04  0.18474420886E+04  0.25500000000E-02 0. -1.
         -2   -1    0    0    0  501 -0.00000000000E+00 -0.00000000000E+00 -0.16314347528E+04  0.16314347528E+04  0.25500000000E-02 0.  1.
    8880023    1    1    2    0    0 -0.80958452006E+03 -0.65151931428E+03 -0.11981221713E+04  0.17173268343E+04  0.65864270000E+03 0.  0.
    8880022    1    1    2    0    0  0.80958452006E+03  0.65151931428E+03  0.14141295071E+04  0.17615500072E+04  0.15294330000E+03 0.  0.
<mgrwt>
<rscale>  0 0.11826413E+04</rscale>
<asrwt>0</asrwt>
<pdfrwt beam="1">  1        2 0.28422186E+00 0.12303311E+04</pdfrwt>
<pdfrwt beam="2">  1       -2 0.25098996E+00 0.12303311E+04</pdfrwt>
<totfact> 0.49832387E-01</totfact>
</mgrwt>
</event>
<event>
 4    5  0.1112901E-007  0.7492743E+03  0.7818608E-02  0.9833711E-01
         -2   -1    0    0    0  501 -0.00000000000E+00  0.00000000000E+00  0.20307014061E+03  0.20307014063E+03  0.25500000000E-02 0.  1.
          2   -1    0    0  501    0  0.00000000000E+00 -0.00000000000E+00 -0.17407889634E+04  0.17407889634E+04  0.25500000000E-02 0. -1.
    8880023    1    1    2    0    0 -0.46439691544E+01 -0.35718368826E+03 -0.72301180440E+03  0.10412290954E+04  0.65864270000E+03 0.  1.
    8880022    1    1    2    0    0  0.46439691544E+01  0.35718368826E+03 -0.81470701843E+03  0.90263000864E+03  0.15294330000E+03 0.  0.
<mgrwt>
<rscale>  0 0.63584370E+03</rscale>
<asrwt>0</asrwt>
<pdfrwt beam="1">  1        2 0.26781368E+00 0.74927429E+03</pdfrwt>
<pdfrwt beam="2">  1       -2 0.31241561E-01 0.74927429E+03</pdfrwt>
<totfact> 0.90409878E+01</totfact>
</mgrwt>
</event>
<event>
 4    5  0.1112901E-007  0.1589911E+04  0.7818608E-02  0.8848625E-01
         -2   -1    0    0    0  501 -0.00000000000E+00  0.00000000000E+00  0.10791358198E+04  0.10791358199E+04  0.25500000000E-02 0.  1.
          2   -1    0    0  501    0  0.00000000000E+00 -0.00000000000E+00 -0.32603645839E+04  0.32603645839E+04  0.25500000000E-02 0. -1.
    8880023    1    1    2    0    0 -0.14058166822E+04  0.34305318924E+03  0.14407996661E+03  0.15964257820E+04  0.65864270000E+03 0.  0.
    8880022    1    1    2    0    0  0.14058166822E+04 -0.34305318924E+03 -0.23253087307E+04  0.27430746217E+04  0.15294330000E+03 0.  0.
<mgrwt>
<rscale>  0 0.15550876E+04</rscale>
<asrwt>0</asrwt>
<pdfrwt beam="1">  1        2 0.50159455E+00 0.15899108E+04</pdfrwt>
<pdfrwt beam="2">  1       -2 0.16602090E+00 0.15899108E+04</pdfrwt>
<totfact> 0.25269202E-01</totfact>
</mgrwt>
</event>
<event>
 4    5  0.1112901E-007  0.1714633E+04  0.7818608E-02  0.8771289E-01
          2   -1    0    0  501    0  0.00000000000E+00  0.00000000000E+00  0.28666028740E+04  0.28666028740E+04  0.25500000000E-02 0. -1.
         -2   -1    0    0    0  501 -0.00000000000E+00 -0.00000000000E+00 -0.15421784522E+04  0.15421784522E+04  0.25500000000E-02 0.  1.
    8880023    1    1    2    0    0  0.95848166198E+03  0.12599473488E+04 -0.68474155396E+03  0.18463032308E+04  0.65864270000E+03 0.  0.
    8880022    1    1    2    0    0 -0.95848166198E+03 -0.12599473488E+04  0.20091659758E+04  0.25624780954E+04  0.15294330000E+03 0.  0.
<mgrwt>
<rscale>  0 0.16827074E+04</rscale>
<asrwt>0</asrwt>
<pdfrwt beam="1">  1        2 0.44101582E+00 0.17146325E+04</pdfrwt>
<pdfrwt beam="2">  1       -2 0.23725822E+00 0.17146325E+04</pdfrwt>
<totfact> 0.14864223E-01</totfact>
</mgrwt>
</event>
<event>
 4    5  0.1112901E-007  0.9791314E+03  0.7818608E-02  0.9409384E-01
          2   -1    0    0  501    0  0.00000000000E+00  0.00000000000E+00  0.11229314518E+04  0.11229314518E+04  0.25500000000E-02 0. -1.
         -2   -1    0    0    0  501 -0.00000000000E+00 -0.00000000000E+00 -0.97209545303E+03  0.97209545303E+03  0.25500000000E-02 0.  1.
    8880023    1    1    2    0    0  0.59804690737E+03  0.40893507434E+03  0.67374625121E+03  0.11885420547E+04  0.65864270000E+03 0. -1.
    8880022    1    1    2    0    0 -0.59804690737E+03 -0.40893507434E+03 -0.52291025244E+03  0.90648485016E+03  0.15294330000E+03 0.  0.
<mgrwt>
<rscale>  0 0.91307402E+03</rscale>
<asrwt>0</asrwt>
<pdfrwt beam="1">  1        2 0.17275868E+00 0.97913135E+03</pdfrwt>
<pdfrwt beam="2">  1       -2 0.14955315E+00 0.97913135E+03</pdfrwt>
<totfact> 0.63267215E+00</totfact>
</mgrwt>
</event>
<event>
 4    5  0.1112901E-007  0.1463826E+04  0.7818608E-02  0.8935611E-01
         -2   -1    0    0    0  501 -0.00000000000E+00  0.00000000000E+00  0.12287892468E+04  0.12287892468E+04  0.25500000000E-02 0.  1.
          2   -1    0    0  501    0  0.00000000000E+00 -0.00000000000E+00 -0.20234713956E+04  0.20234713956E+04  0.25500000000E-02 0. -1.
    8880023    1    1    2    0    0 -0.68779936834E+03 -0.11117138966E+04  0.35320159898E+03  0.15058344314E+04  0.65864270000E+03 0.  1.
    8880022    1    1    2    0    0  0.68779936834E+03  0.11117138966E+04 -0.11478837478E+04  0.17464262110E+04  0.15294330000E+03 0.  0.
<mgrwt>
<rscale>  0 0.14254338E+04</rscale>
<asrwt>0</asrwt>
<pdfrwt beam="1">  1        2 0.31130329E+00 0.14638258E+04</pdfrwt>
<pdfrwt beam="2">  1       -2 0.18904450E+00 0.14638258E+04</pdfrwt>
<totfact> 0.96232335E-01</totfact>
</mgrwt>
</event>
<event>
 4    5  0.1112901E-007  0.1015669E+04  0.7818608E-02  0.9361338E-01
         -2   -1    0    0    0  501 -0.00000000000E+00  0.00000000000E+00  0.19147783287E+04  0.19147783287E+04  0.25500000000E-02 0.  1.
          2   -1    0    0  501    0  0.00000000000E+00 -0.00000000000E+00 -0.10355741408E+04  0.10355741408E+04  0.25500000000E-02 0. -1.
    8880023    1    1    2    0    0 -0.68952362468E+03 -0.34975912882E+03  0.15915343999E+04  0.18880058870E+04  0.65864270000E+03 0.  1.
    8880022    1    1    2    0    0  0.68952362468E+03  0.34975912882E+03 -0.71233021202E+03  0.10623465824E+04  0.15294330000E+03 0.  0.
<mgrwt>
<rscale>  0 0.95326853E+03</rscale>
<asrwt>0</asrwt>
<pdfrwt beam="1">  1        2 0.15931910E+00 0.10156695E+04</pdfrwt>
<pdfrwt beam="2">  1       -2 0.29458128E+00 0.10156695E+04</pdfrwt>
<totfact> 0.82068970E-01</totfact>
</mgrwt>
</event>
<event>
 4    5  0.1112901E-007  0.1062276E+04  0.7818608E-02  0.9304267E-01
          2   -1    0    0  501    0  0.00000000000E+00  0.00000000000E+00  0.11928840010E+04  0.11928840010E+04  0.25500000000E-02 0. -1.
         -2   -1    0    0    0  501 -0.00000000000E+00 -0.00000000000E+00 -0.18663594346E+04  0.18663594346E+04  0.25500000000E-02 0.  1.
    8880023    1    1    2    0    0 -0.81188068050E+03  0.18833712691E+03 -0.15246341063E+04  0.18582089433E+04  0.65864270000E+03 0.  1.
    8880022    1    1    2    0    0  0.81188068050E+03 -0.18833712691E+03  0.85115867265E+03  0.12010344923E+04  0.15294330000E+03 0.  0.
<mgrwt>
<rscale>  0 0.10039098E+04</rscale>
<asrwt>0</asrwt>
<pdfrwt beam="1">  1        2 0.18352062E+00 0.10622765E+04</pdfrwt>
<pdfrwt beam="2">  1       -2 0.28713222E+00 0.10622765E+04</pdfrwt>
<totfact> 0.72364080E-01</totfact>
</mgrwt>
</event>
<event>
 4    5  0.1112901E-007  0.6765495E+03  0.7818608E-02  0.1011347E+00
          2   -1    0    0  501    0  0.00000000000E+00  0.00000000000E+00  0.13523089703E+04  0.13523089703E+04  0.25500000000E-02 0. -1.
         -2   -1    0    0    0  501 -0.00000000000E+00 -0.00000000000E+00 -0.30666364133E+03  0.30666364134E+03  0.25500000000E-02 0.  1.
    8880023    1    1    2    0    0 -0.14305915575E+03 -0.58678277052E+02  0.94307045924E+02  0.68309083394E+03  0.65864270000E+03 0.  1.
    8880022    1    1    2    0    0  0.14305915575E+03  0.58678277052E+02  0.95133828305E+03  0.97588177771E+03  0.15294330000E+03 0.  0.
<mgrwt>
<rscale>  0 0.50942841E+03</rscale>
<asrwt>0</asrwt>
<pdfrwt beam="1">  1        2 0.20804753E+00 0.67654953E+03</pdfrwt>
<pdfrwt beam="2">  1       -2 0.47179022E-01 0.67654953E+03</pdfrwt>
<totfact> 0.67343415E+01</totfact>
</mgrwt>
</event>
<event>
 4    5  0.1112901E-007  0.7610692E+03  0.7818608E-02  0.9802347E-01
          2   -1    0    0  501    0  0.00000000000E+00  0.00000000000E+00  0.23106839674E+04  0.23106839674E+04  0.25500000000E-02 0. -1.
         -2   -1    0    0    0  501 -0.00000000000E+00 -0.00000000000E+00 -0.58807321416E+03  0.58807321416E+03  0.25500000000E-02 0.  1.
    8880023    1    1    2    0    0  0.88068965593E+02  0.37102563766E+03 -0.31239558767E+03  0.82268911258E+03  0.65864270000E+03 0.  1.
    8880022    1    1    2    0    0 -0.88068965593E+02 -0.37102563766E+03  0.20350063409E+04  0.20760680690E+04  0.15294330000E+03 0.  0.
<mgrwt>
<rscale>  0 0.65236731E+03</rscale>
<asrwt>0</asrwt>
<pdfrwt beam="1">  1        2 0.35548984E+00 0.76106923E+03</pdfrwt>
<pdfrwt beam="2">  1       -2 0.90472802E-01 0.76106923E+03</pdfrwt>
<totfact> 0.48654024E+00</totfact>
</mgrwt>
</event>
<event>
 4    5  0.2536374E-007  0.9201329E+03  0.7818608E-02  0.9494455E-01
          2   -1    0    0  501    0  0.00000000000E+00  0.00000000000E+00  0.27508339946E+04  0.27508339946E+04  0.25500000000E-02 0. -1.
         -2   -1    0    0    0  501 -0.00000000000E+00 -0.00000000000E+00 -0.28337986586E+04  0.28337986586E+04  0.25500000000E-02 0.  1.
    8880023    1    1    2    0    0 -0.42961759725E+03 -0.47776882100E+03 -0.27172487832E+04  0.28688125561E+04  0.65864270000E+03 0.  1.
    8880022    1    1    2    0    0  0.42961759725E+03  0.47776882100E+03  0.26342841192E+04  0.27158200971E+04  0.15294330000E+03 0.  0.
<mgrwt>
<rscale>  0 0.84693846E+03</rscale>
<asrwt>0</asrwt>
<pdfrwt beam="1">  1        2 0.42320523E+00 0.92013289E+03</pdfrwt>
<pdfrwt beam="2">  1       -2 0.43596903E+00 0.92013289E+03</pdfrwt>
<totfact> 0.11282745E-02</totfact>
</mgrwt>
</event>
<event>
 4    5  0.1112901E-007  0.1393442E+04  0.7818608E-02  0.8988795E-01
          2   -1    0    0  501    0  0.00000000000E+00  0.00000000000E+00  0.28892255745E+04  0.28892255745E+04  0.25500000000E-02 0. -1.
         -2   -1    0    0    0  501 -0.00000000000E+00 -0.00000000000E+00 -0.13020246885E+04  0.13020246885E+04  0.25500000000E-02 0.  1.
    8880023    1    1    2    0    0  0.11853005960E+04  0.32083235988E+03 -0.72349462759E+03  0.15700718418E+04  0.65864270000E+03 0.  1.
    8880022    1    1    2    0    0 -0.11853005960E+04 -0.32083235988E+03  0.23106955136E+04  0.26211784212E+04  0.15294330000E+03 0.  0.
<mgrwt>
<rscale>  0 0.13526889E+04</rscale>
<asrwt>0</asrwt>
<pdfrwt beam="1">  1        2 0.44449623E+00 0.13934422E+04</pdfrwt>
<pdfrwt beam="2">  1       -2 0.20031149E+00 0.13934422E+04</pdfrwt>
<totfact> 0.25775978E-01</totfact>
</mgrwt>
</event>
<event>
 4    5  0.1112901E-007  0.9786121E+03  0.7818608E-02  0.9410090E-01
          2   -1    0    0  501    0  0.00000000000E+00  0.00000000000E+00  0.34209036473E+04  0.34209036473E+04  0.25500000000E-02 0. -1.
         -2   -1    0    0    0  501 -0.00000000000E+00 -0.00000000000E+00 -0.48523355322E+03  0.48523355323E+03  0.25500000000E-02 0.  1.
    8880023    1    1    2    0    0 -0.46460102571E+03  0.55499314888E+03  0.10946354249E+03  0.98471517800E+03  0.65864270000E+03 0. -1.
    8880022    1    1    2    0    0  0.46460102571E+03 -0.55499314888E+03  0.28262065516E+04  0.29214220225E+04  0.15294330000E+03 0.  0.
<mgrwt>
<rscale>  0 0.91249916E+03</rscale>
<asrwt>0</asrwt>
<pdfrwt beam="1">  1        2 0.52629286E+00 0.97861214E+03</pdfrwt>
<pdfrwt beam="2">  1       -2 0.74651318E-01 0.97861214E+03</pdfrwt>
<totfact> 0.15433702E+00</totfact>
</mgrwt>
</event>
<event>
 4    5  0.1112901E-007  0.8513583E+03  0.7818608E-02  0.9609124E-01
         -2   -1    0    0    0  501 -0.00000000000E+00  0.00000000000E+00  0.11831232221E+04  0.11831232221E+04  0.25500000000E-02 0.  1.
          2   -1    0    0  501    0  0.00000000000E+00 -0.00000000000E+00 -0.18595527009E+04  0.18595527009E+04  0.25500000000E-02 0. -1.
    8880023    1    1    2    0    0  0.17649415134E+03 -0.50975540734E+03  0.97750955213E+03  0.12962777062E+04  0.65864270000E+03 0.  1.
    8880022    1    1    2    0    0 -0.17649415134E+03  0.50975540734E+03 -0.16539390309E+04  0.17463982168E+04  0.15294330000E+03 0.  0.
<mgrwt>
<rscale>  0 0.76695219E+03</rscale>
<asrwt>0</asrwt>
<pdfrwt beam="1">  1        2 0.28608503E+00 0.85135831E+03</pdfrwt>
<pdfrwt beam="2">  1       -2 0.18201896E+00 0.85135831E+03</pdfrwt>
<totfact> 0.14309863E+00</totfact>
</mgrwt>
</event>
<event>
 4    5  0.1112901E-007  0.8035680E+03  0.7818608E-02  0.9703134E-01
          2   -1    0    0  501    0  0.00000000000E+00  0.00000000000E+00  0.12357108539E+04  0.12357108539E+04  0.25500000000E-02 0. -1.
         -2   -1    0    0    0  501 -0.00000000000E+00 -0.00000000000E+00 -0.77108792925E+03  0.77108792925E+03  0.25500000000E-02 0.  1.
    8880023    1    1    2    0    0 -0.45780458600E+03  0.48232363088E+02 -0.48632715063E+03  0.93927403004E+03  0.65864270000E+03 0.  1.
    8880022    1    1    2    0    0  0.45780458600E+03 -0.48232363088E+02  0.95095007524E+03  0.10675247531E+04  0.15294330000E+03 0.  0.
<mgrwt>
<rscale>  0 0.70830522E+03</rscale>
<asrwt>0</asrwt>
<pdfrwt beam="1">  1        2 0.19010936E+00 0.80356805E+03</pdfrwt>
<pdfrwt beam="2">  1       -2 0.11862891E+00 0.80356805E+03</pdfrwt>
<totfact> 0.99886649E+00</totfact>
</mgrwt>
</event>
<event>
 4    5  0.1112901E-007  0.9187890E+03  0.7818608E-02  0.9496518E-01
          2   -1    0    0  501    0  0.00000000000E+00  0.00000000000E+00  0.11527930479E+04  0.11527930479E+04  0.25500000000E-02 0. -1.
         -2   -1    0    0    0  501 -0.00000000000E+00 -0.00000000000E+00 -0.79270689664E+03  0.79270689665E+03  0.25500000000E-02 0.  1.
    8880023    1    1    2    0    0 -0.68989057317E+02  0.63687013014E+03 -0.34429849912E+03  0.98118026654E+03  0.65864270000E+03 0.  0.
    8880022    1    1    2    0    0  0.68989057317E+02 -0.63687013014E+03  0.70438465037E+03  0.96431967800E+03  0.15294330000E+03 0.  0.
<mgrwt>
<rscale>  0 0.84540998E+03</rscale>
<asrwt>0</asrwt>
<pdfrwt beam="1">  1        2 0.17735278E+00 0.91878902E+03</pdfrwt>
<pdfrwt beam="2">  1       -2 0.12195491E+00 0.91878902E+03</pdfrwt>
<totfact> 0.10317047E+01</totfact>
</mgrwt>
</event>
<event>
 4    5  0.1112901E-007  0.8213878E+03  0.7818608E-02  0.9666327E-01
          2   -1    0    0  501    0  0.00000000000E+00  0.00000000000E+00  0.12940462220E+04  0.12940462220E+04  0.25500000000E-02 0. -1.
         -2   -1    0    0    0  501 -0.00000000000E+00 -0.00000000000E+00 -0.14496099135E+04  0.14496099135E+04  0.25500000000E-02 0.  1.
    8880023    1    1    2    0    0 -0.15469134452E+03  0.46576636472E+03 -0.12722294702E+04  0.15143466412E+04  0.65864270000E+03 0.  1.
    8880022    1    1    2    0    0  0.15469134452E+03 -0.46576636472E+03  0.11166657787E+04  0.12293094944E+04  0.15294330000E+03 0.  0.
<mgrwt>
<rscale>  0 0.73057530E+03</rscale>
<asrwt>0</asrwt>
<pdfrwt beam="1">  1        2 0.19908403E+00 0.82138780E+03</pdfrwt>
<pdfrwt beam="2">  1       -2 0.22301691E+00 0.82138780E+03</pdfrwt>
<totfact> 0.16082989E+00</totfact>
</mgrwt>
</event>
<event>
 4    5  0.1112901E-007  0.9597702E+03  0.7818608E-02  0.9436194E-01
          2   -1    0    0  501    0  0.00000000000E+00  0.00000000000E+00  0.15555060004E+04  0.15555060004E+04  0.25500000000E-02 0. -1.
         -2   -1    0    0    0  501 -0.00000000000E+00 -0.00000000000E+00 -0.52444144753E+03  0.52444144754E+03  0.25500000000E-02 0.  1.
    8880023    1    1    2    0    0 -0.49593871451E+03  0.49131811877E+03  0.19378202537E+03  0.97913757052E+03  0.65864270000E+03 0.  1.
    8880022    1    1    2    0    0  0.49593871451E+03 -0.49131811877E+03  0.83728252754E+03  0.11008098775E+04  0.15294330000E+03 0.  0.
<mgrwt>
<rscale>  0 0.89155980E+03</rscale>
<asrwt>0</asrwt>
<pdfrwt beam="1">  1        2 0.23930862E+00 0.95977024E+03</pdfrwt>
<pdfrwt beam="2">  1       -2 0.80683300E-01 0.95977024E+03</pdfrwt>
<totfact> 0.16039151E+01</totfact>
</mgrwt>
</event>
<event>
 4    5  0.1112901E-007  0.1287556E+04  0.7818608E-02  0.9076381E-01
          2   -1    0    0  501    0  0.00000000000E+00  0.00000000000E+00  0.25024445177E+04  0.25024445177E+04  0.25500000000E-02 0. -1.
         -2   -1    0    0    0  501 -0.00000000000E+00 -0.00000000000E+00 -0.11276727477E+04  0.11276727477E+04  0.25500000000E-02 0.  1.
    8880023    1    1    2    0    0  0.10039804907E+04 -0.46477161032E+03 -0.55371111051E+03  0.14015690050E+04  0.65864270000E+03 0.  0.
    8880022    1    1    2    0    0 -0.10039804907E+04  0.46477161032E+03  0.19284828805E+04  0.22285482604E+04  0.15294330000E+03 0.  0.
<mgrwt>
<rscale>  0 0.12425802E+04</rscale>
<asrwt>0</asrwt>
<pdfrwt beam="1">  1        2 0.38499147E+00 0.12875557E+04</pdfrwt>
<pdfrwt beam="2">  1       -2 0.17348811E+00 0.12875557E+04</pdfrwt>
<totfact> 0.67442013E-01</totfact>
</mgrwt>
</event>
<event>
 4    5  0.1112901E-007  0.7639363E+03  0.7818608E-02  0.9795021E-01
         -2   -1    0    0    0  501 -0.00000000000E+00  0.00000000000E+00  0.12875129640E+03  0.12875129642E+03  0.25500000000E-02 0.  1.
          2   -1    0    0  501    0  0.00000000000E+00 -0.00000000000E+00 -0.32104522034E+04  0.32104522034E+04  0.25500000000E-02 0. -1.
    8880023    1    1    2    0    0  0.13191841386E+03  0.36384895152E+03 -0.12849515039E+04  0.14948909998E+04  0.65864270000E+03 0.  1.
    8880022    1    1    2    0    0 -0.13191841386E+03 -0.36384895152E+03 -0.17967494030E+04  0.18443125000E+04  0.15294330000E+03 0.  1.
<mgrwt>
<rscale>  0 0.65630415E+03</rscale>
<asrwt>0</asrwt>
<pdfrwt beam="1">  1        2 0.49391566E+00 0.76393634E+03</pdfrwt>
<pdfrwt beam="2">  1       -2 0.19807894E-01 0.76393634E+03</pdfrwt>
<totfact> 0.29428017E+01</totfact>
</mgrwt>
</event>
<event>
 4    5  0.1112901E-007  0.1187598E+04  0.7818608E-02  0.9169274E-01
         -2   -1    0    0    0  501 -0.00000000000E+00  0.00000000000E+00  0.11150611045E+04  0.11150611045E+04  0.25500000000E-02 0.  1.
          2   -1    0    0  501    0  0.00000000000E+00 -0.00000000000E+00 -0.13949352396E+04  0.13949352396E+04  0.25500000000E-02 0. -1.
    8880023    1    1    2    0    0  0.20281197739E+03  0.96718406613E+03  0.45209942563E+03  0.12707406552E+04  0.65864270000E+03 0.  0.
    8880022    1    1    2    0    0 -0.20281197739E+03 -0.96718406613E+03 -0.73197356072E+03  0.12392556889E+04  0.15294330000E+03 0.  0.
<mgrwt>
<rscale>  0 0.11376281E+04</rscale>
<asrwt>0</asrwt>
<pdfrwt beam="1">  1        2 0.21460542E+00 0.11875975E+04</pdfrwt>
<pdfrwt beam="2">  1       -2 0.17154786E+00 0.11875975E+04</pdfrwt>
<totfact> 0.29428048E+00</totfact>
</mgrwt>
</event>
<event>
 4    5  0.1112901E-007  0.1597238E+04  0.7818608E-02  0.8843859E-01
         -2   -1    0    0    0  501 -0.00000000000E+00  0.00000000000E+00  0.12707548277E+04  0.12707548277E+04  0.25500000000E-02 0.  1.
          2   -1    0    0  501    0  0.00000000000E+00 -0.00000000000E+00 -0.22099567039E+04  0.22099567039E+04  0.25500000000E-02 0. -1.
    8880023    1    1    2    0    0  0.14506527083E+04 -0.11386104621E+03  0.22225828381E+03  0.16126272257E+04  0.65864270000E+03 0.  0.
    8880022    1    1    2    0    0 -0.14506527083E+04  0.11386104621E+03 -0.11614601599E+04  0.18680843060E+04  0.15294330000E+03 0.  0.
<mgrwt>
<rscale>  0 0.15626001E+04</rscale>
<asrwt>0</asrwt>
<pdfrwt beam="1">  1        2 0.33999334E+00 0.15972376E+04</pdfrwt>
<pdfrwt beam="2">  1       -2 0.19550074E+00 0.15972376E+04</pdfrwt>
<totfact> 0.67548355E-01</totfact>
</mgrwt>
</event>
<event>
 4    5  0.1112901E-007  0.9295053E+03  0.7818608E-02  0.9480236E-01
          2   -1    0    0  501    0  0.00000000000E+00  0.00000000000E+00  0.23721109844E+04  0.23721109844E+04  0.25500000000E-02 0. -1.
         -2   -1    0    0    0  501 -0.00000000000E+00 -0.00000000000E+00 -0.62106654449E+03  0.62106654449E+03  0.25500000000E-02 0.  1.
    8880023    1    1    2    0    0  0.44524375966E+03  0.48158901460E+03 -0.18113593328E+03  0.94699018848E+03  0.65864270000E+03 0.  1.
    8880022    1    1    2    0    0 -0.44524375966E+03 -0.48158901460E+03  0.19321803732E+04  0.20461873404E+04  0.15294330000E+03 0.  0.
<mgrwt>
<rscale>  0 0.85756779E+03</rscale>
<asrwt>0</asrwt>
<pdfrwt beam="1">  1        2 0.36494016E+00 0.92950535E+03</pdfrwt>
<pdfrwt beam="2">  1       -2 0.95548698E-01 0.92950535E+03</pdfrwt>
<totfact> 0.38551025E+00</totfact>
</mgrwt>
</event>
<event>
 4    5  0.1112901E-007  0.8395991E+03  0.7818608E-02  0.9630937E-01
         -2   -1    0    0    0  501 -0.00000000000E+00  0.00000000000E+00  0.48973887066E+03  0.48973887067E+03  0.25500000000E-02 0.  1.
          2   -1    0    0  501    0  0.00000000000E+00 -0.00000000000E+00 -0.31227220108E+04  0.31227220108E+04  0.25500000000E-02 0. -1.
    8880023    1    1    2    0    0 -0.40301864077E+03  0.32968542716E+03  0.82164619781E+02  0.84360994346E+03  0.65864270000E+03 0.  1.
    8880022    1    1    2    0    0  0.40301864077E+03 -0.32968542716E+03 -0.27151477599E+04  0.27688509380E+04  0.15294330000E+03 0.  0.
<mgrwt>
<rscale>  0 0.75282001E+03</rscale>
<asrwt>0</asrwt>
<pdfrwt beam="1">  1        2 0.48041876E+00 0.83959914E+03</pdfrwt>
<pdfrwt beam="2">  1       -2 0.75344444E-01 0.83959914E+03</pdfrwt>
<totfact> 0.24221362E+00</totfact>
</mgrwt>
</event>
<event>
 4    5  0.1112901E-007  0.1432847E+04  0.7818608E-02  0.8958571E-01
          2   -1    0    0  501    0  0.00000000000E+00  0.00000000000E+00  0.25850977951E+04  0.25850977951E+04  0.25500000000E-02 0. -1.
         -2   -1    0    0    0  501 -0.00000000000E+00 -0.00000000000E+00 -0.76166331992E+03  0.76166331992E+03  0.25500000000E-02 0.  1.
    8880023    1    1    2    0    0 -0.12415785322E+04  0.27878857957E+03  0.13833439504E+04  0.19916553454E+04  0.65864270000E+03 0.  0.
    8880022    1    1    2    0    0  0.12415785322E+04 -0.27878857957E+03  0.44009052480E+03  0.13551057696E+04  0.15294330000E+03 0.  0.
<mgrwt>
<rscale>  0 0.13934532E+04</rscale>
<asrwt>0</asrwt>
<pdfrwt beam="1">  1        2 0.39770736E+00 0.14328470E+04</pdfrwt>
<pdfrwt beam="2">  1       -2 0.11717897E+00 0.14328470E+04</pdfrwt>
<totfact> 0.16734741E+00</totfact>
</mgrwt>
</event>
<event>
 4    5  0.1112901E-007  0.6723460E+03  0.7818608E-02  0.1014034E+00
         -2   -1    0    0    0  501 -0.00000000000E+00  0.00000000000E+00  0.48525725490E+03  0.48525725491E+03  0.25500000000E-02 0.  1.
          2   -1    0    0  501    0  0.00000000000E+00 -0.00000000000E+00 -0.16214820324E+04  0.16214820324E+04  0.25500000000E-02 0. -1.
    8880023    1    1    2    0    0 -0.12599496022E+03  0.48622771409E+02  0.24118743725E+03  0.71429720009E+03  0.65864270000E+03 0.  1.
    8880022    1    1    2    0    0  0.12599496022E+03 -0.48622771409E+02 -0.13774122147E+04  0.13924420872E+04  0.15294330000E+03 0.  0.
<mgrwt>
<rscale>  0 0.49902366E+03</rscale>
<asrwt>0</asrwt>
<pdfrwt beam="1">  1        2 0.24945877E+00 0.67234598E+03</pdfrwt>
<pdfrwt beam="2">  1       -2 0.74654963E-01 0.67234598E+03</pdfrwt>
<totfact> 0.18151716E+01</totfact>
</mgrwt>
</event>
<event>
 4    5  0.1112901E-007  0.7100330E+03  0.7818608E-02  0.9957879E-01
         -2   -1    0    0    0  501 -0.00000000000E+00  0.00000000000E+00  0.48114513714E+03  0.48114513715E+03  0.25500000000E-02 0.  1.
          2   -1    0    0  501    0  0.00000000000E+00 -0.00000000000E+00 -0.84001484898E+03  0.84001484898E+03  0.25500000000E-02 0. -1.
    8880023    1    1    2    0    0  0.18781543732E+03  0.18724838547E+03  0.15149292366E+03  0.72601439968E+03  0.65864270000E+03 0.  0.
    8880022    1    1    2    0    0 -0.18781543732E+03 -0.18724838547E+03 -0.51036263549E+03  0.59514558646E+03  0.15294330000E+03 0.  0.
<mgrwt>
<rscale>  0 0.57536401E+03</rscale>
<asrwt>0</asrwt>
<pdfrwt beam="1">  1        2 0.12923305E+00 0.71003296E+03</pdfrwt>
<pdfrwt beam="2">  1       -2 0.74022329E-01 0.71003296E+03</pdfrwt>
<totfact> 0.53935897E+01</totfact>
</mgrwt>
</event>
<event>
 4    5  0.1112901E-007  0.7533474E+03  0.7818608E-02  0.9822645E-01
          2   -1    0    0  501    0  0.00000000000E+00  0.00000000000E+00  0.23525346826E+04  0.23525346826E+04  0.25500000000E-02 0. -1.
         -2   -1    0    0    0  501 -0.00000000000E+00 -0.00000000000E+00 -0.17590815936E+03  0.17590815938E+03  0.25500000000E-02 0.  1.
    8880023    1    1    2    0    0 -0.31854662974E+03  0.17958321149E+03  0.81300968604E+03  0.11083848795E+04  0.65864270000E+03 0.  0.
    8880022    1    1    2    0    0  0.31854662974E+03 -0.17958321149E+03  0.13636168372E+04  0.14200579625E+04  0.15294330000E+03 0.  0.
<mgrwt>
<rscale>  0 0.64161312E+03</rscale>
<asrwt>0</asrwt>
<pdfrwt beam="1">  1        2 0.36192841E+00 0.75334739E+03</pdfrwt>
<pdfrwt beam="2">  1       -2 0.27062794E-01 0.75334739E+03</pdfrwt>
<totfact> 0.54403559E+01</totfact>
</mgrwt>
</event>
<event>
 4    5  0.1112901E-007  0.8456750E+03  0.7818608E-02  0.9619571E-01
          2   -1    0    0  501    0  0.00000000000E+00  0.00000000000E+00  0.74950202960E+03  0.74950202961E+03  0.25500000000E-02 0. -1.
         -2   -1    0    0    0  501 -0.00000000000E+00 -0.00000000000E+00 -0.17558042228E+04  0.17558042228E+04  0.25500000000E-02 0.  1.
    8880023    1    1    2    0    0 -0.89886291875E+02 -0.52275858091E+03 -0.15275808693E+04  0.17460439851E+04  0.65864270000E+03 0.  1.
    8880022    1    1    2    0    0  0.89886291875E+02  0.52275858091E+03  0.52127867611E+03  0.75926226731E+03  0.15294330000E+03 0.  0.
<mgrwt>
<rscale>  0 0.76014282E+03</rscale>
<asrwt>0</asrwt>
<pdfrwt beam="1">  1        2 0.11530801E+00 0.84567505E+03</pdfrwt>
<pdfrwt beam="2">  1       -2 0.27012373E+00 0.84567505E+03</pdfrwt>
<totfact> 0.18539593E+00</totfact>
</mgrwt>
</event>
<event>
 4    5  0.1112901E-007  0.8683144E+03  0.7818608E-02  0.9578942E-01
          2   -1    0    0  501    0  0.00000000000E+00  0.00000000000E+00  0.16206941402E+04  0.16206941402E+04  0.25500000000E-02 0. -1.
         -2   -1    0    0    0  501 -0.00000000000E+00 -0.00000000000E+00 -0.87776940007E+03  0.87776940007E+03  0.25500000000E-02 0.  1.
    8880023    1    1    2    0    0  0.22446247998E+03  0.51939984688E+03 -0.58496042418E+03  0.10469711123E+04  0.65864270000E+03 0.  1.
    8880022    1    1    2    0    0 -0.22446247998E+03 -0.51939984688E+03  0.13278851643E+04  0.14514924280E+04  0.15294330000E+03 0.  0.
<mgrwt>
<rscale>  0 0.78705789E+03</rscale>
<asrwt>0</asrwt>
<pdfrwt beam="1">  1        2 0.24933756E+00 0.86831435E+03</pdfrwt>
<pdfrwt beam="2">  1       -2 0.13504145E+00 0.86831435E+03</pdfrwt>
<totfact> 0.43257364E+00</totfact>
</mgrwt>
</event>
<event>
 4    5  0.1112901E-007  0.7603360E+03  0.7818608E-02  0.9804238E-01
         -2   -1    0    0    0  501 -0.00000000000E+00  0.00000000000E+00  0.17538225339E+03  0.17538225341E+03  0.25500000000E-02 0.  1.
          2   -1    0    0  501    0  0.00000000000E+00 -0.00000000000E+00 -0.43451400172E+04  0.43451400172E+04  0.25500000000E-02 0. -1.
    8880023    1    1    2    0    0 -0.28063441361E+03  0.25601738353E+03 -0.72196594853E+03  0.10484968345E+04  0.65864270000E+03 0.  1.
    8880022    1    1    2    0    0  0.28063441361E+03 -0.25601738353E+03 -0.34477918153E+04  0.34720254362E+04  0.15294330000E+03 0.  0.
<mgrwt>
<rscale>  0 0.65135577E+03</rscale>
<asrwt>0</asrwt>
<pdfrwt beam="1">  1        2 0.66848300E+00 0.76033597E+03</pdfrwt>
<pdfrwt beam="2">  1       -2 0.26981888E-01 0.76033597E+03</pdfrwt>
<totfact> 0.24157345E+00</totfact>
</mgrwt>
</event>
<event>
 4    5  0.1112901E-007  0.9878432E+03  0.7818608E-02  0.9397638E-01
         -2   -1    0    0    0  501 -0.00000000000E+00  0.00000000000E+00  0.36158598846E+03  0.36158598847E+03  0.25500000000E-02 0.  1.
          2   -1    0    0  501    0  0.00000000000E+00 -0.00000000000E+00 -0.21286949545E+04  0.21286949545E+04  0.25500000000E-02 0. -1.
    8880023    1    1    2    0    0 -0.72518127851E+03 -0.12702773468E+03 -0.11616466711E+04  0.15248793811E+04  0.65864270000E+03 0. -1.
    8880022    1    1    2    0    0  0.72518127851E+03  0.12702773468E+03 -0.60546229495E+03  0.96540156189E+03  0.15294330000E+03 0.  0.
<mgrwt>
<rscale>  0 0.92270309E+03</rscale>
<asrwt>0</asrwt>
<pdfrwt beam="1">  1        2 0.32749153E+00 0.98784317E+03</pdfrwt>
<pdfrwt beam="2">  1       -2 0.55628615E-01 0.98784317E+03</pdfrwt>
<totfact> 0.17312713E+01</totfact>
</mgrwt>
</event>
<event>
 4    5  0.1112901E-007  0.7883970E+03  0.7818608E-02  0.9736470E-01
         -2   -1    0    0    0  501 -0.00000000000E+00  0.00000000000E+00  0.35871952629E+03  0.35871952630E+03  0.25500000000E-02 0.  1.
          2   -1    0    0  501    0  0.00000000000E+00 -0.00000000000E+00 -0.13299191677E+04  0.13299191677E+04  0.25500000000E-02 0. -1.
    8880023    1    1    2    0    0 -0.41203490430E+03  0.13411525596E+03 -0.23834461557E+03  0.82363707194E+03  0.65864270000E+03 0.  1.
    8880022    1    1    2    0    0  0.41203490430E+03 -0.13411525596E+03 -0.73285502581E+03  0.86500162203E+03  0.15294330000E+03 0.  0.
<mgrwt>
<rscale>  0 0.68886316E+03</rscale>
<asrwt>0</asrwt>
<pdfrwt beam="1">  1        2 0.20460295E+00 0.78839703E+03</pdfrwt>
<pdfrwt beam="2">  1       -2 0.55187620E-01 0.78839703E+03</pdfrwt>
<totfact> 0.49791324E+01</totfact>
</mgrwt>
</event>
<event>
 4    5  0.1112901E-007  0.9080541E+03  0.7818608E-02  0.9513224E-01
          2   -1    0    0  501    0  0.00000000000E+00  0.00000000000E+00  0.32942290305E+04  0.32942290305E+04  0.25500000000E-02 0. -1.
         -2   -1    0    0    0  501 -0.00000000000E+00 -0.00000000000E+00 -0.23894070719E+03  0.23894070720E+03  0.25500000000E-02 0.  1.
    8880023    1    1    2    0    0 -0.61754133622E+03  0.96926395973E+02  0.25742562627E+04  0.27297174837E+04  0.65864270000E+03 0.  0.
    8880022    1    1    2    0    0  0.61754133622E+03 -0.96926395973E+02  0.48103206054E+03  0.80345225400E+03  0.15294330000E+03 0.  0.
<mgrwt>
<rscale>  0 0.83315858E+03</rscale>
<asrwt>0</asrwt>
<pdfrwt beam="1">  1        2 0.50680443E+00 0.90805409E+03</pdfrwt>
<pdfrwt beam="2">  1       -2 0.36760111E-01 0.90805409E+03</pdfrwt>
<totfact> 0.81845726E+00</totfact>
</mgrwt>
</event>
<event>
 4    5  0.1112901E-007  0.1833526E+04  0.7818608E-02  0.8704214E-01
         -2   -1    0    0    0  501 -0.00000000000E+00  0.00000000000E+00  0.17914863997E+04  0.17914863997E+04  0.25500000000E-02 0.  1.
          2   -1    0    0  501    0  0.00000000000E+00 -0.00000000000E+00 -0.28288026722E+04  0.28288026722E+04  0.25500000000E-02 0. -1.
    8880023    1    1    2    0    0  0.13507139003E+04  0.10505133338E+04  0.89027367019E+03  0.20382354425E+04  0.65864270000E+03 0.  0.
    8880022    1    1    2    0    0 -0.13507139003E+04 -0.10505133338E+04 -0.19275899427E+04  0.25820536294E+04  0.15294330000E+03 0.  0.
<mgrwt>
<rscale>  0 0.18039260E+04</rscale>
<asrwt>0</asrwt>
<pdfrwt beam="1">  1        2 0.43520041E+00 0.18335257E+04</pdfrwt>
<pdfrwt beam="2">  1       -2 0.27561329E+00 0.18335257E+04</pdfrwt>
<totfact> 0.89735310E-02</totfact>
</mgrwt>
</event>
<event>
 4    5  0.1112901E-007  0.1107125E+04  0.7818608E-02  0.9253164E-01
          2   -1    0    0  501    0  0.00000000000E+00  0.00000000000E+00  0.25133664431E+04  0.25133664431E+04  0.25500000000E-02 0. -1.
         -2   -1    0    0    0  501 -0.00000000000E+00 -0.00000000000E+00 -0.58451600311E+03  0.58451600311E+03  0.25500000000E-02 0.  1.
    8880023    1    1    2    0    0  0.19567717460E+03  0.86811667556E+03  0.16905590393E+03  0.11199581349E+04  0.65864270000E+03 0.  0.
    8880022    1    1    2    0    0 -0.19567717460E+03 -0.86811667556E+03  0.17597945360E+04  0.19779243113E+04  0.15294330000E+03 0.  0.
<mgrwt>
<rscale>  0 0.10521139E+04</rscale>
<asrwt>0</asrwt>
<pdfrwt beam="1">  1        2 0.38667176E+00 0.11071253E+04</pdfrwt>
<pdfrwt beam="2">  1       -2 0.89925540E-01 0.11071253E+04</pdfrwt>
<totfact> 0.36054072E+00</totfact>
</mgrwt>
</event>
<event>
 4    5  0.1112901E-007  0.7734916E+03  0.7818608E-02  0.9771354E-01
          2   -1    0    0  501    0  0.00000000000E+00  0.00000000000E+00  0.20492285268E+04  0.20492285268E+04  0.25500000000E-02 0. -1.
         -2   -1    0    0    0  501 -0.00000000000E+00 -0.00000000000E+00 -0.26097795420E+03  0.26097795422E+03  0.25500000000E-02 0.  1.
    8880023    1    1    2    0    0 -0.79570810160E+02  0.39767764977E+03  0.43108639343E+03  0.88550816587E+03  0.65864270000E+03 0.  1.
    8880022    1    1    2    0    0  0.79570810160E+02 -0.39767764977E+03  0.13571641792E+04  0.14246983152E+04  0.15294330000E+03 0.  0.
<mgrwt>
<rscale>  0 0.66922795E+03</rscale>
<asrwt>0</asrwt>
<pdfrwt beam="1">  1        2 0.31526594E+00 0.77349159E+03</pdfrwt>
<pdfrwt beam="2">  1       -2 0.40150453E-01 0.77349159E+03</pdfrwt>
<totfact> 0.37904298E+01</totfact>
</mgrwt>
</event>
<event>
 4    5  0.1112901E-007  0.1128503E+04  0.7818608E-02  0.9229966E-01
         -2   -1    0    0    0  501 -0.00000000000E+00  0.00000000000E+00  0.17276876342E+04  0.17276876342E+04  0.25500000000E-02 0.  1.
          2   -1    0    0  501    0  0.00000000000E+00 -0.00000000000E+00 -0.16998975160E+04  0.16998975160E+04  0.25500000000E-02 0. -1.
    8880023    1    1    2    0    0 -0.78970619269E+03  0.46483561080E+03  0.13826972407E+04  0.17847604549E+04  0.65864270000E+03 0.  0.
    8880022    1    1    2    0    0  0.78970619269E+03 -0.46483561080E+03 -0.13549071225E+04  0.16428246953E+04  0.15294330000E+03 0.  0.
<mgrwt>
<rscale>  0 0.10749408E+04</rscale>
<asrwt>0</asrwt>
<pdfrwt beam="1">  1        2 0.26152269E+00 0.11285026E+04</pdfrwt>
<pdfrwt beam="2">  1       -2 0.26579810E+00 0.11285026E+04</pdfrwt>
<totfact> 0.49552673E-01</totfact>
</mgrwt>
</event>
<event>
 4    5  0.1112901E-007  0.8788740E+03  0.7818608E-02  0.9560834E-01
         -2   -1    0    0    0  501 -0.00000000000E+00  0.00000000000E+00  0.26939695452E+03  0.26939695454E+03  0.25500000000E-02 0.  1.
          2   -1    0    0  501    0  0.00000000000E+00 -0.00000000000E+00 -0.31679362612E+04  0.31679362612E+04  0.25500000000E-02 0. -1.
    8880023    1    1    2    0    0 -0.27744197012E+03  0.51150300447E+03 -0.60697676349E+03  0.10681012911E+04  0.65864270000E+03 0.  0.
    8880022    1    1    2    0    0  0.27744197012E+03 -0.51150300447E+03 -0.22915625432E+04  0.23692319247E+04  0.15294330000E+03 0.  0.
<mgrwt>
<rscale>  0 0.79943600E+03</rscale>
<asrwt>0</asrwt>
<pdfrwt beam="1">  1        2 0.48737478E+00 0.87887404E+03</pdfrwt>
<pdfrwt beam="2">  1       -2 0.41445688E-01 0.87887404E+03</pdfrwt>
<totfact> 0.78497191E+00</totfact>
</mgrwt>
</event>
<event>
 4    5  0.1112901E-007  0.9731992E+03  0.7818608E-02  0.9417493E-01
         -2   -1    0    0    0  501 -0.00000000000E+00  0.00000000000E+00  0.68033571827E+03  0.68033571827E+03  0.25500000000E-02 0.  1.
          2   -1    0    0  501    0  0.00000000000E+00 -0.00000000000E+00 -0.19276577075E+04  0.19276577075E+04  0.25500000000E-02 0. -1.
    8880023    1    1    2    0    0  0.65659882375E+03  0.28667836639E+03  0.19291956234E+03  0.99213641446E+03  0.65864270000E+03 0.  0.
    8880022    1    1    2    0    0 -0.65659882375E+03 -0.28667836639E+03 -0.14402415516E+04  0.16158570113E+04  0.15294330000E+03 0.  0.
<mgrwt>
<rscale>  0 0.90649951E+03</rscale>
<asrwt>0</asrwt>
<pdfrwt beam="1">  1        2 0.29656272E+00 0.97319921E+03</pdfrwt>
<pdfrwt beam="2">  1       -2 0.10466703E+00 0.97319921E+03</pdfrwt>
<totfact> 0.54425448E+00</totfact>
</mgrwt>
</event>
<event>
 4    5  0.1112901E-007  0.1184817E+04  0.7818608E-02  0.9172025E-01
         -2   -1    0    0    0  501 -0.00000000000E+00  0.00000000000E+00  0.56761158033E+03  0.56761158034E+03  0.25500000000E-02 0.  1.
          2   -1    0    0  501    0  0.00000000000E+00 -0.00000000000E+00 -0.22927037938E+04  0.22927037938E+04  0.25500000000E-02 0. -1.
    8880023    1    1    2    0    0  0.53845134465E+03 -0.82465191122E+03 -0.51310873983E+03  0.12911511958E+04  0.65864270000E+03 0.  0.
    8880022    1    1    2    0    0 -0.53845134465E+03  0.82465191122E+03 -0.12119834736E+04  0.15691641783E+04  0.15294330000E+03 0.  0.
<mgrwt>
<rscale>  0 0.11346905E+04</rscale>
<asrwt>0</asrwt>
<pdfrwt beam="1">  1        2 0.35272366E+00 0.11848168E+04</pdfrwt>
<pdfrwt beam="2">  1       -2 0.87324860E-01 0.11848168E+04</pdfrwt>
<totfact> 0.51050004E+00</totfact>
</mgrwt>
</event>
<event>
 4    5  0.1112901E-007  0.7454368E+03  0.7818608E-02  0.9844384E-01
         -2   -1    0    0    0  501 -0.00000000000E+00  0.00000000000E+00  0.14121675332E+04  0.14121675332E+04  0.25500000000E-02 0.  1.
          2   -1    0    0  501    0  0.00000000000E+00 -0.00000000000E+00 -0.14506540129E+04  0.14506540129E+04  0.25500000000E-02 0. -1.
    8880023    1    1    2    0    0 -0.34656980058E+03  0.41894357286E+02  0.12849928303E+04  0.14855579908E+04  0.65864270000E+03 0.  1.
    8880022    1    1    2    0    0  0.34656980058E+03 -0.41894357286E+02 -0.13234793100E+04  0.13772635554E+04  0.15294330000E+03 0.  0.
<mgrwt>
<rscale>  0 0.63034077E+03</rscale>
<asrwt>0</asrwt>
<pdfrwt beam="1">  1        2 0.22317754E+00 0.74543676E+03</pdfrwt>
<pdfrwt beam="2">  1       -2 0.21725654E+00 0.74543676E+03</pdfrwt>
<totfact> 0.14420472E+00</totfact>
</mgrwt>
</event>
<event>
 4    5  0.1112901E-007  0.1231013E+04  0.7818608E-02  0.9127550E-01
         -2   -1    0    0    0  501 -0.00000000000E+00  0.00000000000E+00  0.15841518458E+04  0.15841518458E+04  0.25500000000E-02 0.  1.
          2   -1    0    0  501    0  0.00000000000E+00 -0.00000000000E+00 -0.19307504436E+04  0.19307504436E+04  0.25500000000E-02 0. -1.
    8880023    1    1    2    0    0  0.20739761596E+03 -0.10191018471E+04  0.11509481569E+04  0.16852519728E+04  0.65864270000E+03 0.  0.
    8880022    1    1    2    0    0 -0.20739761596E+03  0.10191018471E+04 -0.14975467547E+04  0.18296503167E+04  0.15294330000E+03 0.  0.
<mgrwt>
<rscale>  0 0.11833574E+04</rscale>
<asrwt>0</asrwt>
<pdfrwt beam="1">  1        2 0.29703853E+00 0.12310128E+04</pdfrwt>
<pdfrwt beam="2">  1       -2 0.24371567E+00 0.12310128E+04</pdfrwt>
<totfact> 0.49661430E-01</totfact>
</mgrwt>
</event>
<event>
 4    5  0.1112901E-007  0.1007075E+04  0.7818608E-02  0.9372360E-01
         -2   -1    0    0    0  501 -0.00000000000E+00  0.00000000000E+00  0.18465814535E+04  0.18465814535E+04  0.25500000000E-02 0.  1.
          2   -1    0    0  501    0  0.00000000000E+00 -0.00000000000E+00 -0.93755058107E+03  0.93755058108E+03  0.25500000000E-02 0. -1.
    8880023    1    1    2    0    0  0.41249929172E+03  0.64049450568E+03  0.15008305078E+04  0.18073990420E+04  0.65864270000E+03 0.  1.
    8880022    1    1    2    0    0 -0.41249929172E+03 -0.64049450568E+03 -0.59179963536E+03  0.97673299263E+03  0.15294330000E+03 0.  0.
<mgrwt>
<rscale>  0 0.94385677E+03</rscale>
<asrwt>0</asrwt>
<pdfrwt beam="1">  1        2 0.14423855E+00 0.10070745E+04</pdfrwt>
<pdfrwt beam="2">  1       -2 0.28408945E+00 0.10070745E+04</pdfrwt>
<totfact> 0.11009074E+00</totfact>
</mgrwt>
</event>
<event>
 4    5  0.1112901E-007  0.9178064E+03  0.7818608E-02  0.9498031E-01
         -2   -1    0    0    0  501 -0.00000000000E+00  0.00000000000E+00  0.32645036618E+03  0.32645036619E+03  0.25500000000E-02 0.  1.
          2   -1    0    0  501    0  0.00000000000E+00 -0.00000000000E+00 -0.27994730075E+04  0.27994730075E+04  0.25500000000E-02 0. -1.
    8880023    1    1    2    0    0 -0.10733662447E+03 -0.63010885093E+03 -0.49755727426E+03  0.10439979705E+04  0.65864270000E+03 0.  1.
    8880022    1    1    2    0    0  0.10733662447E+03  0.63010885093E+03 -0.19754653671E+04  0.20819254032E+04  0.15294330000E+03 0.  0.
<mgrwt>
<rscale>  0 0.84429162E+03</rscale>
<asrwt>0</asrwt>
<pdfrwt beam="1">  1        2 0.43068814E+00 0.91780636E+03</pdfrwt>
<pdfrwt beam="2">  1       -2 0.50223135E-01 0.91780636E+03</pdfrwt>
<totfact> 0.89368716E+00</totfact>
</mgrwt>
</event>
<event>
 4    5  0.1112901E-007  0.1138259E+04  0.7818608E-02  0.9219609E-01
          2   -1    0    0  501    0  0.00000000000E+00  0.00000000000E+00  0.21887823722E+04  0.21887823722E+04  0.25500000000E-02 0. -1.
         -2   -1    0    0    0  501 -0.00000000000E+00 -0.00000000000E+00 -0.10286239283E+04  0.10286239283E+04  0.25500000000E-02 0.  1.
    8880023    1    1    2    0    0 -0.62829142304E+03 -0.68342807325E+03 -0.55102720873E+03  0.12646205892E+04  0.65864270000E+03 0.  0.
    8880022    1    1    2    0    0  0.62829142304E+03  0.68342807325E+03  0.17111856527E+04  0.19527857113E+04  0.15294330000E+03 0.  0.
<mgrwt>
<rscale>  0 0.10853306E+04</rscale>
<asrwt>0</asrwt>
<pdfrwt beam="1">  1        2 0.33673575E+00 0.11382593E+04</pdfrwt>
<pdfrwt beam="2">  1       -2 0.15824984E+00 0.11382593E+04</pdfrwt>
<totfact> 0.13348206E+00</totfact>
</mgrwt>
</event>
<event>
 4    5  0.1112901E-007  0.1091424E+04  0.7818608E-02  0.9270665E-01
         -2   -1    0    0    0  501 -0.00000000000E+00  0.00000000000E+00  0.28344571358E+03  0.28344571359E+03  0.25500000000E-02 0.  1.
          2   -1    0    0  501    0  0.00000000000E+00 -0.00000000000E+00 -0.42167548240E+04  0.42167548240E+04  0.25500000000E-02 0. -1.
    8880023    1    1    2    0    0  0.18304634748E+03  0.85081755061E+03 -0.30965151887E+04  0.32832320950E+04  0.65864270000E+03 0. -1.
    8880022    1    1    2    0    0 -0.18304634748E+03 -0.85081755061E+03 -0.83679392175E+03  0.12169684426E+04  0.15294330000E+03 0.  0.
<mgrwt>
<rscale>  0 0.10352895E+04</rscale>
<asrwt>0</asrwt>
<pdfrwt beam="1">  1        2 0.64873147E+00 0.10914242E+04</pdfrwt>
<pdfrwt beam="2">  1       -2 0.43607036E-01 0.10914242E+04</pdfrwt>
<totfact> 0.11734617E+00</totfact>
</mgrwt>
</event>
<event>
 4    5  0.1112901E-007  0.1122976E+04  0.7818608E-02  0.9235897E-01
          2   -1    0    0  501    0  0.00000000000E+00  0.00000000000E+00  0.14559261108E+04  0.14559261108E+04  0.25500000000E-02 0. -1.
         -2   -1    0    0    0  501 -0.00000000000E+00 -0.00000000000E+00 -0.12962126303E+04  0.12962126303E+04  0.25500000000E-02 0.  1.
    8880023    1    1    2    0    0 -0.88422626146E+03  0.21309163755E+03 -0.83217006260E+03  0.13977057440E+04  0.65864270000E+03 0.  0.
    8880022    1    1    2    0    0  0.88422626146E+03 -0.21309163755E+03  0.99188354317E+03  0.13544329971E+04  0.15294330000E+03 0.  0.
<mgrwt>
<rscale>  0 0.10690475E+04</rscale>
<asrwt>0</asrwt>
<pdfrwt beam="1">  1        2 0.22398863E+00 0.11229757E+04</pdfrwt>
<pdfrwt beam="2">  1       -2 0.19941733E+00 0.11229757E+04</pdfrwt>
<totfact> 0.17652698E+00</totfact>
</mgrwt>
</event>
<event>
 4    5  0.1112901E-007  0.8830595E+03  0.7818608E-02  0.9553793E-01
          2   -1    0    0  501    0  0.00000000000E+00  0.00000000000E+00  0.91432517415E+03  0.91432517415E+03  0.25500000000E-02 0. -1.
         -2   -1    0    0    0  501 -0.00000000000E+00 -0.00000000000E+00 -0.10671362666E+04  0.10671362666E+04  0.25500000000E-02 0.  1.
    8880023    1    1    2    0    0 -0.49514833295E+03 -0.31750895174E+03 -0.72816316835E+03  0.11445591344E+04  0.65864270000E+03 0.  1.
    8880022    1    1    2    0    0  0.49514833295E+03  0.31750895174E+03  0.57535207594E+03  0.83690230634E+03  0.15294330000E+03 0.  0.
<mgrwt>
<rscale>  0 0.80431463E+03</rscale>
<asrwt>0</asrwt>
<pdfrwt beam="1">  1        2 0.14066541E+00 0.88305946E+03</pdfrwt>
<pdfrwt beam="2">  1       -2 0.16417481E+00 0.88305946E+03</pdfrwt>
<totfact> 0.67514146E+00</totfact>
</mgrwt>
</event>
<event>
 4    5  0.2224715E-007  0.1321668E+04  0.7818608E-02  0.9047071E-01
          2   -1    0    0  501    0  0.00000000000E+00  0.00000000000E+00  0.27732963896E+04  0.27732963896E+04  0.25500000000E-02 0. -1.
         -2   -1    0    0    0  501 -0.00000000000E+00 -0.00000000000E+00 -0.22006219342E+04  0.22006219342E+04  0.25500000000E-02 0.  1.
    8880023    1    1    2    0    0 -0.99280829281E+03 -0.57212491758E+03 -0.18592924089E+04  0.22811781377E+04  0.65864270000E+03 0.  0.
    8880022    1    1    2    0    0  0.99280829281E+03  0.57212491758E+03  0.24319668644E+04  0.26927401861E+04  0.15294330000E+03 0.  0.
<mgrwt>
<rscale>  0 0.12781541E+04</rscale>
<asrwt>0</asrwt>
<pdfrwt beam="1">  1        2 0.42666098E+00 0.13216677E+04</pdfrwt>
<pdfrwt beam="2">  1       -2 0.33855722E+00 0.13216677E+04</pdfrwt>
<totfact> 0.42623524E-02</totfact>
</mgrwt>
</event>
<event>
 4    5  0.1112901E-007  0.7770929E+03  0.7818608E-02  0.9762711E-01
         -2   -1    0    0    0  501 -0.00000000000E+00  0.00000000000E+00  0.30697725485E+03  0.30697725486E+03  0.25500000000E-02 0.  1.
          2   -1    0    0  501    0  0.00000000000E+00 -0.00000000000E+00 -0.15740320206E+04  0.15740320206E+04  0.25500000000E-02 0. -1.
    8880023    1    1    2    0    0  0.40044425009E+03  0.98527151901E+02 -0.32689157960E+03  0.84304893581E+03  0.65864270000E+03 0.  0.
    8880022    1    1    2    0    0 -0.40044425009E+03 -0.98527151901E+02 -0.94016318612E+03  0.10379603396E+04  0.15294330000E+03 0.  0.
<mgrwt>
<rscale>  0 0.67402680E+03</rscale>
<asrwt>0</asrwt>
<pdfrwt beam="1">  1        2 0.24215877E+00 0.77709292E+03</pdfrwt>
<pdfrwt beam="2">  1       -2 0.47227271E-01 0.77709292E+03</pdfrwt>
<totfact> 0.49979594E+01</totfact>
</mgrwt>
</event>
<event>
 4    5  0.1112901E-007  0.1581251E+04  0.7818608E-02  0.8854295E-01
          2   -1    0    0  501    0  0.00000000000E+00  0.00000000000E+00  0.17794135152E+04  0.17794135152E+04  0.25500000000E-02 0. -1.
         -2   -1    0    0    0  501 -0.00000000000E+00 -0.00000000000E+00 -0.16317997525E+04  0.16317997525E+04  0.25500000000E-02 0.  1.
    8880023    1    1    2    0    0  0.13418160162E+04 -0.51582277248E+03 -0.70670466001E+03  0.17319887519E+04  0.65864270000E+03 0.  0.
    8880022    1    1    2    0    0 -0.13418160162E+04  0.51582277248E+03  0.85431842266E+03  0.16792245158E+04  0.15294330000E+03 0.  0.
<mgrwt>
<rscale>  0 0.15462052E+04</rscale>
<asrwt>0</asrwt>
<pdfrwt beam="1">  1        2 0.27375593E+00 0.15812506E+04</pdfrwt>
<pdfrwt beam="2">  1       -2 0.25104612E+00 0.15812506E+04</pdfrwt>
<totfact> 0.52204892E-01</totfact>
</mgrwt>
</event>
<event>
 4    5  0.1112901E-007  0.6723967E+03  0.7818608E-02  0.1014000E+00
         -2   -1    0    0    0  501 -0.00000000000E+00  0.00000000000E+00  0.12790513637E+03  0.12790513639E+03  0.25500000000E-02 0.  1.
          2   -1    0    0  501    0  0.00000000000E+00 -0.00000000000E+00 -0.17015155020E+04  0.17015155020E+04  0.25500000000E-02 0. -1.
    8880023    1    1    2    0    0  0.70034608092E+02 -0.11576807999E+03 -0.88678199301E+03  0.11128789710E+04  0.65864270000E+03 0.  1.
    8880022    1    1    2    0    0 -0.70034608092E+02  0.11576807999E+03 -0.68682837260E+03  0.71654166738E+03  0.15294330000E+03 0.  0.
<mgrwt>
<rscale>  0 0.49915399E+03</rscale>
<asrwt>0</asrwt>
<pdfrwt beam="1">  1        2 0.26177160E+00 0.67239668E+03</pdfrwt>
<pdfrwt beam="2">  1       -2 0.19677714E-01 0.67239668E+03</pdfrwt>
<totfact> 0.22011926E+02</totfact>
</mgrwt>
</event>
<event>
 4    5  0.1112901E-007  0.9542099E+03  0.7818608E-02  0.9444083E-01
         -2   -1    0    0    0  501 -0.00000000000E+00  0.00000000000E+00  0.13226248122E+04  0.13226248122E+04  0.25500000000E-02 0.  1.
          2   -1    0    0  501    0  0.00000000000E+00 -0.00000000000E+00 -0.58995529520E+03  0.58995529520E+03  0.25500000000E-02 0. -1.
    8880023    1    1    2    0    0  0.68995953858E+03  0.25733105178E+02  0.73651685054E+03  0.12053935602E+04  0.65864270000E+03 0.  1.
    8880022    1    1    2    0    0 -0.68995953858E+03 -0.25733105178E+02 -0.38473335144E+01  0.70718654723E+03  0.15294330000E+03 0.  0.
<mgrwt>
<rscale>  0 0.88534968E+03</rscale>
<asrwt>0</asrwt>
<pdfrwt beam="1">  1        2 0.90762355E-01 0.95420992E+03</pdfrwt>
<pdfrwt beam="2">  1       -2 0.20348074E+00 0.95420992E+03</pdfrwt>
<totfact> 0.63808499E+00</totfact>
</mgrwt>
</event>
<event>
 4    5  0.1886254E-007  0.7945136E+03  0.7818608E-02  0.9722787E-01
          2   -1    0    0  501    0  0.00000000000E+00  0.00000000000E+00  0.30361226735E+04  0.30361226735E+04  0.25500000000E-02 0. -1.
         -2   -1    0    0    0  501 -0.00000000000E+00 -0.00000000000E+00 -0.19436114851E+04  0.19436114851E+04  0.25500000000E-02 0.  1.
    8880023    1    1    2    0    0 -0.26805810030E+02 -0.44353482378E+03 -0.18429389687E+04  0.20069070582E+04  0.65864270000E+03 0.  1.
    8880022    1    1    2    0    0  0.26805810030E+02  0.44353482378E+03  0.29354501571E+04  0.29728271005E+04  0.15294330000E+03 0.  0.
<mgrwt>
<rscale>  0 0.69676141E+03</rscale>
<asrwt>0</asrwt>
<pdfrwt beam="1">  1        2 0.46709580E+00 0.79451362E+03</pdfrwt>
<pdfrwt beam="2">  1       -2 0.29901715E+00 0.79451362E+03</pdfrwt>
<totfact> 0.57826623E-02</totfact>
</mgrwt>
</event>
<event>
 4    5  0.1112901E-007  0.1736463E+04  0.7818608E-02  0.8758521E-01
         -2   -1    0    0    0  501 -0.00000000000E+00  0.00000000000E+00  0.16634605347E+04  0.16634605347E+04  0.25500000000E-02 0.  1.
          2   -1    0    0  501    0  0.00000000000E+00 -0.00000000000E+00 -0.21641946487E+04  0.21641946487E+04  0.25500000000E-02 0. -1.
    8880023    1    1    2    0    0  0.11031249678E+04  0.11681649589E+04  0.64065497276E+03  0.18508762969E+04  0.65864270000E+03 0.  1.
    8880022    1    1    2    0    0 -0.11031249678E+04 -0.11681649589E+04 -0.11413890867E+04  0.19767788865E+04  0.15294330000E+03 0.  0.
<mgrwt>
<rscale>  0 0.17049936E+04</rscale>
<asrwt>0</asrwt>
<pdfrwt beam="1">  1        2 0.33295302E+00 0.17364632E+04</pdfrwt>
<pdfrwt beam="2">  1       -2 0.25591701E+00 0.17364632E+04</pdfrwt>
<totfact> 0.29218185E-01</totfact>
</mgrwt>
</event>
<event>
 4    5  0.1112901E-007  0.7844814E+03  0.7818608E-02  0.9745413E-01
         -2   -1    0    0    0  501 -0.00000000000E+00  0.00000000000E+00  0.86717057435E+03  0.86717057436E+03  0.25500000000E-02 0.  1.
          2   -1    0    0  501    0  0.00000000000E+00 -0.00000000000E+00 -0.83217278702E+03  0.83217278702E+03  0.25500000000E-02 0. -1.
    8880023    1    1    2    0    0 -0.12663256102E+03 -0.40689694747E+03  0.59109193817E+03  0.98224274851E+03  0.65864270000E+03 0.  1.
    8880022    1    1    2    0    0  0.12663256102E+03  0.40689694747E+03 -0.55609415084E+03  0.71710061287E+03  0.15294330000E+03 0.  0.
<mgrwt>
<rscale>  0 0.68376092E+03</rscale>
<asrwt>0</asrwt>
<pdfrwt beam="1">  1        2 0.12802658E+00 0.78448145E+03</pdfrwt>
<pdfrwt beam="2">  1       -2 0.13341086E+00 0.78448145E+03</pdfrwt>
<totfact> 0.13441393E+01</totfact>
</mgrwt>
</event>
<event>
 4    5  0.1112901E-007  0.1078594E+04  0.7818608E-02  0.9285272E-01
          2   -1    0    0  501    0  0.00000000000E+00  0.00000000000E+00  0.25381549721E+04  0.25381549721E+04  0.25500000000E-02 0. -1.
         -2   -1    0    0    0  501 -0.00000000000E+00 -0.00000000000E+00 -0.39416412041E+03  0.39416412042E+03  0.25500000000E-02 0.  1.
    8880023    1    1    2    0    0 -0.79964837993E+02 -0.85038815885E+03  0.84506049285E+03  0.13702159826E+04  0.65864270000E+03 0.  1.
    8880022    1    1    2    0    0  0.79964837993E+02  0.85038815885E+03  0.12989303588E+04  0.15621031099E+04  0.15294330000E+03 0.  0.
<mgrwt>
<rscale>  0 0.10215013E+04</rscale>
<asrwt>0</asrwt>
<pdfrwt beam="1">  1        2 0.39048538E+00 0.10785938E+04</pdfrwt>
<pdfrwt beam="2">  1       -2 0.60640633E-01 0.10785938E+04</pdfrwt>
<totfact> 0.84004451E+00</totfact>
</mgrwt>
</event>
<event>
 4    5  0.1112901E-007  0.8829603E+03  0.7818608E-02  0.9553959E-01
         -2   -1    0    0    0  501 -0.00000000000E+00  0.00000000000E+00  0.41223239329E+03  0.41223239330E+03  0.25500000000E-02 0.  1.
          2   -1    0    0  501    0  0.00000000000E+00 -0.00000000000E+00 -0.15845644480E+04  0.15845644480E+04  0.25500000000E-02 0. -1.
    8880023    1    1    2    0    0 -0.55508233671E+03 -0.19414503536E+03 -0.29765813312E+03  0.93178284260E+03  0.65864270000E+03 0.  1.
    8880022    1    1    2    0    0  0.55508233671E+03  0.19414503536E+03 -0.87467392155E+03  0.10650139987E+04  0.15294330000E+03 0.  0.
<mgrwt>
<rscale>  0 0.80419922E+03</rscale>
<asrwt>0</asrwt>
<pdfrwt beam="1">  1        2 0.24377914E+00 0.88296031E+03</pdfrwt>
<pdfrwt beam="2">  1       -2 0.63420369E-01 0.88296031E+03</pdfrwt>
<totfact> 0.26447950E+01</totfact>
</mgrwt>
</event>
<event>
 4    5  0.1112901E-007  0.1231090E+04  0.7818608E-02  0.9127477E-01
         -2   -1    0    0    0  501 -0.00000000000E+00  0.00000000000E+00  0.13551466691E+04  0.13551466691E+04  0.25500000000E-02 0.  1.
          2   -1    0    0  501    0  0.00000000000E+00 -0.00000000000E+00 -0.20861621047E+04  0.20861621047E+04  0.25500000000E-02 0. -1.
    8880023    1    1    2    0    0  0.55065572065E+03 -0.88235571878E+03  0.88307202362E+03  0.15150576696E+04  0.65864270000E+03 0.  0.
    8880022    1    1    2    0    0 -0.55065572065E+03  0.88235571878E+03 -0.16140874592E+04  0.19262511041E+04  0.15294330000E+03 0.  0.
<mgrwt>
<rscale>  0 0.11834389E+04</rscale>
<asrwt>0</asrwt>
<pdfrwt beam="1">  1        2 0.32094802E+00 0.12310904E+04</pdfrwt>
<pdfrwt beam="2">  1       -2 0.20848410E+00 0.12310904E+04</pdfrwt>
<totfact> 0.67813689E-01</totfact>
</mgrwt>
</event>
<event>
 4    5  0.1112901E-007  0.6741559E+03  0.7818608E-02  0.1012844E+00
         -2   -1    0    0    0  501 -0.00000000000E+00  0.00000000000E+00  0.14630800415E+04  0.14630800415E+04  0.25500000000E-02 0.  1.
          2   -1    0    0  501    0  0.00000000000E+00 -0.00000000000E+00 -0.41611116186E+03  0.41611116187E+03  0.25500000000E-02 0. -1.
    8880023    1    1    2    0    0 -0.21213540111E+02  0.14221795386E+03  0.13509216447E+04  0.15097931835E+04  0.65864270000E+03 0.  0.
    8880022    1    1    2    0    0  0.21213540111E+02 -0.14221795386E+03 -0.30395276503E+03  0.36939801985E+03  0.15294330000E+03 0.  0.
<mgrwt>
<rscale>  0 0.50359939E+03</rscale>
<asrwt>0</asrwt>
<pdfrwt beam="1">  1        2 0.64017104E-01 0.67415589E+03</pdfrwt>
<pdfrwt beam="2">  1       -2 0.22508923E+00 0.67415589E+03</pdfrwt>
<totfact> 0.72070181E+00</totfact>
</mgrwt>
</event>
<event>
 4    5  0.1112901E-007  0.7051861E+03  0.7818608E-02  0.9976331E-01
          2   -1    0    0  501    0  0.00000000000E+00  0.00000000000E+00  0.14904903035E+04  0.14904903035E+04  0.25500000000E-02 0. -1.
         -2   -1    0    0    0  501 -0.00000000000E+00 -0.00000000000E+00 -0.33090911209E+03  0.33090911210E+03  0.25500000000E-02 0.  1.
    8880023    1    1    2    0    0  0.19143822767E+03 -0.16379468997E+03  0.88752104486E+02  0.71074920879E+03  0.65864270000E+03 0.  1.
    8880022    1    1    2    0    0 -0.19143822767E+03  0.16379468997E+03  0.10708290869E+04  0.11106502068E+04  0.15294330000E+03 0.  0.
<mgrwt>
<rscale>  0 0.56700371E+03</rscale>
<asrwt>0</asrwt>
<pdfrwt beam="1">  1        2 0.22930620E+00 0.70518615E+03</pdfrwt>
<pdfrwt beam="2">  1       -2 0.50909094E-01 0.70518615E+03</pdfrwt>
<totfact> 0.48125943E+01</totfact>
</mgrwt>
</event>
<event>
 4    5  0.1182758E-007  0.1118806E+04  0.7818608E-02  0.9240402E-01
         -2   -1    0    0    0  501 -0.00000000000E+00  0.00000000000E+00  0.31739315836E+04  0.31739315836E+04  0.25500000000E-02 0.  1.
          2   -1    0    0  501    0  0.00000000000E+00 -0.00000000000E+00 -0.14856285356E+04  0.14856285356E+04  0.25500000000E-02 0. -1.
    8880023    1    1    2    0    0 -0.35096570125E+03  0.83351026591E+03  0.29181890907E+04  0.31253086347E+04  0.65864270000E+03 0.  1.
    8880022    1    1    2    0    0  0.35096570125E+03 -0.83351026591E+03 -0.12298860426E+04  0.15342514845E+04  0.15294330000E+03 0.  0.
<mgrwt>
<rscale>  0 0.10645974E+04</rscale>
<asrwt>0</asrwt>
<pdfrwt beam="1">  1        2 0.22855824E+00 0.11188058E+04</pdfrwt>
<pdfrwt beam="2">  1       -2 0.48829716E+00 0.11188058E+04</pdfrwt>
<totfact> 0.25051539E-02</totfact>
</mgrwt>
</event>
<event>
 4    5  0.1112901E-007  0.9363384E+03  0.7818608E-02  0.9470049E-01
         -2   -1    0    0    0  501 -0.00000000000E+00  0.00000000000E+00  0.41801576932E+03  0.41801576933E+03  0.25500000000E-02 0.  1.
          2   -1    0    0  501    0  0.00000000000E+00 -0.00000000000E+00 -0.23680405381E+04  0.23680405381E+04  0.25500000000E-02 0. -1.
    8880023    1    1    2    0    0  0.43604296608E+03 -0.50277816697E+03 -0.27298917473E+03  0.97532181829E+03  0.65864270000E+03 0.  0.
    8880022    1    1    2    0    0 -0.43604296608E+03  0.50277816697E+03 -0.16770355941E+04  0.18107344892E+04  0.15294330000E+03 0.  0.
<mgrwt>
<rscale>  0 0.86528480E+03</rscale>
<asrwt>0</asrwt>
<pdfrwt beam="1">  1        2 0.36431392E+00 0.93633838E+03</pdfrwt>
<pdfrwt beam="2">  1       -2 0.64310120E-01 0.93633838E+03</pdfrwt>
<totfact> 0.94213326E+00</totfact>
</mgrwt>
</event>
<event>
 4    5  0.1112901E-007  0.9541383E+03  0.7818608E-02  0.9444185E-01
         -2   -1    0    0    0  501 -0.00000000000E+00  0.00000000000E+00  0.27897553663E+04  0.27897553663E+04  0.25500000000E-02 0.  1.
          2   -1    0    0  501    0  0.00000000000E+00 -0.00000000000E+00 -0.12387442600E+04  0.12387442600E+04  0.25500000000E-02 0. -1.
    8880023    1    1    2    0    0  0.23193085518E+03  0.65021357520E+03  0.25965541719E+04  0.27663104289E+04  0.65864270000E+03 0.  1.
    8880022    1    1    2    0    0 -0.23193085518E+03 -0.65021357520E+03 -0.10455430656E+04  0.12621891974E+04  0.15294330000E+03 0.  0.
<mgrwt>
<rscale>  0 0.88526955E+03</rscale>
<asrwt>0</asrwt>
<pdfrwt beam="1">  1        2 0.19057604E+00 0.95413826E+03</pdfrwt>
<pdfrwt beam="2">  1       -2 0.42919313E+00 0.95413826E+03</pdfrwt>
<totfact> 0.87957854E-02</totfact>
</mgrwt>
</event>
<event>
 4    5  0.1112901E-007  0.1044741E+04  0.7818608E-02  0.9325230E-01
         -2   -1    0    0    0  501 -0.00000000000E+00  0.00000000000E+00  0.21591971202E+04  0.21591971202E+04  0.25500000000E-02 0.  1.
          2   -1    0    0  501    0  0.00000000000E+00 -0.00000000000E+00 -0.42583083615E+03  0.42583083616E+03  0.25500000000E-02 0. -1.
    8880023    1    1    2    0    0  0.30553194768E+03  0.75121475628E+03  0.12481571741E+04  0.16276915920E+04  0.65864270000E+03 0.  0.
    8880022    1    1    2    0    0 -0.30553194768E+03 -0.75121475628E+03  0.48520910988E+03  0.95733636431E+03  0.15294330000E+03 0.  0.
<mgrwt>
<rscale>  0 0.98492923E+03</rscale>
<asrwt>0</asrwt>
<pdfrwt beam="1">  1        2 0.65512439E-01 0.10447409E+04</pdfrwt>
<pdfrwt beam="2">  1       -2 0.33218416E+00 0.10447409E+04</pdfrwt>
<totfact> 0.15014847E+00</totfact>
</mgrwt>
</event>
<event>
 4    5  0.1112901E-007  0.8146754E+03  0.7818608E-02  0.9679919E-01
         -2   -1    0    0    0  501 -0.00000000000E+00  0.00000000000E+00  0.34745262657E+03  0.34745262658E+03  0.25500000000E-02 0.  1.
          2   -1    0    0  501    0  0.00000000000E+00 -0.00000000000E+00 -0.50532932028E+04  0.50532932028E+04  0.25500000000E-02 0. -1.
    8880023    1    1    2    0    0 -0.21359112081E+03 -0.42926065439E+03 -0.16388838030E+03  0.83099668096E+03  0.65864270000E+03 0.  0.
    8880022    1    1    2    0    0  0.21359112081E+03  0.42926065439E+03 -0.45419521959E+04  0.45697491484E+04  0.15294330000E+03 0.  0.
<mgrwt>
<rscale>  0 0.72225084E+03</rscale>
<asrwt>0</asrwt>
<pdfrwt beam="1">  1        2 0.77742967E+00 0.81467545E+03</pdfrwt>
<pdfrwt beam="2">  1       -2 0.53454254E-01 0.81467545E+03</pdfrwt>
<totfact> 0.11262277E-01</totfact>
</mgrwt>
</event>
<event>
 4    5  0.1112901E-007  0.6936117E+03  0.7818608E-02  0.1002481E+00
          2   -1    0    0  501    0  0.00000000000E+00  0.00000000000E+00  0.16266798132E+04  0.16266798132E+04  0.25500000000E-02 0. -1.
         -2   -1    0    0    0  501 -0.00000000000E+00 -0.00000000000E+00 -0.98848058284E+03  0.98848058284E+03  0.25500000000E-02 0.  1.
    8880023    1    1    2    0    0  0.15733839416E+03 -0.15010539742E+03 -0.85358859303E+03  0.10998684890E+04  0.65864270000E+03 0.  1.
    8880022    1    1    2    0    0 -0.15733839416E+03  0.15010539742E+03  0.14917878234E+04  0.15152919071E+04  0.15294330000E+03 0.  0.
<mgrwt>
<rscale>  0 0.54575578E+03</rscale>
<asrwt>0</asrwt>
<pdfrwt beam="1">  1        2 0.25025843E+00 0.69361171E+03</pdfrwt>
<pdfrwt beam="2">  1       -2 0.15207394E+00 0.69361171E+03</pdfrwt>
<totfact> 0.32351752E+00</totfact>
</mgrwt>
</event>
<event>
 4    5  0.1112901E-007  0.1739935E+04  0.7818608E-02  0.8756510E-01
         -2   -1    0    0    0  501 -0.00000000000E+00  0.00000000000E+00  0.29329379444E+04  0.29329379444E+04  0.25500000000E-02 0.  1.
          2   -1    0    0  501    0  0.00000000000E+00 -0.00000000000E+00 -0.14221802550E+04  0.14221802550E+04  0.25500000000E-02 0. -1.
    8880023    1    1    2    0    0 -0.79970253914E+03 -0.13978696718E+04  0.20134794974E+04  0.26611038430E+04  0.65864270000E+03 0.  0.
    8880022    1    1    2    0    0  0.79970253914E+03  0.13978696718E+04 -0.50272180800E+03  0.16940143564E+04  0.15294330000E+03 0.  0.
<mgrwt>
<rscale>  0 0.17085367E+04</rscale>
<asrwt>0</asrwt>
<pdfrwt beam="1">  1        2 0.21879696E+00 0.17399350E+04</pdfrwt>
<pdfrwt beam="2">  1       -2 0.45122122E+00 0.17399350E+04</pdfrwt>
<totfact> 0.43824213E-02</totfact>
</mgrwt>
</event>
<event>
 4    5  0.1112901E-007  0.1626685E+04  0.7818608E-02  0.8825000E-01
         -2   -1    0    0    0  501 -0.00000000000E+00  0.00000000000E+00  0.19374207814E+04  0.19374207814E+04  0.25500000000E-02 0.  1.
          2   -1    0    0  501    0  0.00000000000E+00 -0.00000000000E+00 -0.22146934245E+04  0.22146934245E+04  0.25500000000E-02 0. -1.
    8880023    1    1    2    0    0  0.14668812495E+04  0.24607692359E+03  0.12221044406E+04  0.20346114917E+04  0.65864270000E+03 0.  0.
    8880022    1    1    2    0    0 -0.14668812495E+04 -0.24607692359E+03 -0.14993770837E+04  0.21175027142E+04  0.15294330000E+03 0.  0.
<mgrwt>
<rscale>  0 0.15927734E+04</rscale>
<asrwt>0</asrwt>
<pdfrwt beam="1">  1        2 0.34072207E+00 0.16266852E+04</pdfrwt>
<pdfrwt beam="2">  1       -2 0.29806473E+00 0.16266852E+04</pdfrwt>
<totfact> 0.15284108E-01</totfact>
</mgrwt>
</event>
<event>
 4    5  0.1112901E-007  0.7212890E+03  0.7818608E-02  0.9918248E-01
         -2   -1    0    0    0  501 -0.00000000000E+00  0.00000000000E+00  0.57469147296E+03  0.57469147296E+03  0.25500000000E-02 0.  1.
          2   -1    0    0  501    0  0.00000000000E+00 -0.00000000000E+00 -0.15834000387E+04  0.15834000388E+04  0.25500000000E-02 0. -1.
    8880023    1    1    2    0    0  0.28584236518E+03  0.68860893151E+02  0.31969957457E+03  0.78896495776E+03  0.65864270000E+03 0.  1.
    8880022    1    1    2    0    0 -0.28584236518E+03 -0.68860893151E+02 -0.13284081404E+04  0.13691265539E+04  0.15294330000E+03 0.  0.
<mgrwt>
<rscale>  0 0.59384997E+03</rscale>
<asrwt>0</asrwt>
<pdfrwt beam="1">  1        2 0.24360000E+00 0.72128905E+03</pdfrwt>
<pdfrwt beam="2">  1       -2 0.88414073E-01 0.72128905E+03</pdfrwt>
<totfact> 0.12920692E+01</totfact>
</mgrwt>
</event>
<event>
 4    5  0.1112901E-007  0.8008520E+03  0.7818608E-02  0.9708957E-01
         -2   -1    0    0    0  501 -0.00000000000E+00  0.00000000000E+00  0.89317837830E+03  0.89317837830E+03  0.25500000000E-02 0.  1.
          2   -1    0    0  501    0  0.00000000000E+00 -0.00000000000E+00 -0.91001886786E+03  0.91001886786E+03  0.25500000000E-02 0. -1.
    8880023    1    1    2    0    0 -0.26681593257E+03  0.36927357207E+03  0.61472895176E+03  0.10095818953E+04  0.65864270000E+03 0.  1.
    8880022    1    1    2    0    0  0.26681593257E+03 -0.36927357207E+03 -0.63156944132E+03  0.79361535087E+03  0.15294330000E+03 0.  0.
<mgrwt>
<rscale>  0 0.70485998E+03</rscale>
<asrwt>0</asrwt>
<pdfrwt beam="1">  1        2 0.14000290E+00 0.80085200E+03</pdfrwt>
<pdfrwt beam="2">  1       -2 0.13741206E+00 0.80085200E+03</pdfrwt>
<totfact> 0.11000701E+01</totfact>
</mgrwt>
</event>
<event>
 4    5  0.1112901E-007  0.7892370E+03  0.7818608E-02  0.9734570E-01
          2   -1    0    0  501    0  0.00000000000E+00  0.00000000000E+00  0.11672060728E+04  0.11672060728E+04  0.25500000000E-02 0. -1.
         -2   -1    0    0    0  501 -0.00000000000E+00 -0.00000000000E+00 -0.93815015009E+03  0.93815015009E+03  0.25500000000E-02 0.  1.
    8880023    1    1    2    0    0  0.17431965429E+03 -0.39836845976E+03 -0.70851011566E+03  0.10606043380E+04  0.65864270000E+03 0.  1.
    8880022    1    1    2    0    0 -0.17431965429E+03  0.39836845976E+03  0.93756603839E+03  0.10447518849E+04  0.15294330000E+03 0.  0.
<mgrwt>
<rscale>  0 0.68995284E+03</rscale>
<asrwt>0</asrwt>
<pdfrwt beam="1">  1        2 0.17957016E+00 0.78923696E+03</pdfrwt>
<pdfrwt beam="2">  1       -2 0.14433079E+00 0.78923696E+03</pdfrwt>
<totfact> 0.66742299E+00</totfact>
</mgrwt>
</event>
<event>
 4    5  0.1112901E-007  0.1442854E+04  0.7818608E-02  0.8951080E-01
         -2   -1    0    0    0  501 -0.00000000000E+00  0.00000000000E+00  0.72123148423E+03  0.72123148424E+03  0.25500000000E-02 0.  1.
          2   -1    0    0  501    0  0.00000000000E+00 -0.00000000000E+00 -0.40024859809E+04  0.40024859809E+04  0.25500000000E-02 0. -1.
    8880023    1    1    2    0    0  0.12836561411E+04  0.15640781493E+02 -0.29930068333E+03  0.14735700961E+04  0.65864270000E+03 0.  0.
    8880022    1    1    2    0    0 -0.12836561411E+04 -0.15640781493E+02 -0.29819538133E+04  0.32501473691E+04  0.15294330000E+03 0.  0.
<mgrwt>
<rscale>  0 0.14037901E+04</rscale>
<asrwt>0</asrwt>
<pdfrwt beam="1">  1        2 0.61576706E+00 0.14428541E+04</pdfrwt>
<pdfrwt beam="2">  1       -2 0.11095869E+00 0.14428541E+04</pdfrwt>
<totfact> 0.21369638E-01</totfact>
</mgrwt>
</event>
<event>
 4    5  0.1112901E-007  0.8656733E+03  0.7818608E-02  0.9583550E-01
         -2   -1    0    0    0  501 -0.00000000000E+00  0.00000000000E+00  0.24725226757E+03  0.24725226758E+03  0.25500000000E-02 0.  1.
          2   -1    0    0  501    0  0.00000000000E+00 -0.00000000000E+00 -0.24891048662E+04  0.24891048662E+04  0.25500000000E-02 0. -1.
    8880023    1    1    2    0    0  0.15342550991E+03 -0.54040784830E+03 -0.78938303143E+03  0.11715441973E+04  0.65864270000E+03 0.  1.
    8880022    1    1    2    0    0 -0.15342550991E+03  0.54040784830E+03 -0.14524695672E+04  0.15648129365E+04  0.15294330000E+03 0.  0.
<mgrwt>
<rscale>  0 0.78394562E+03</rscale>
<asrwt>0</asrwt>
<pdfrwt beam="1">  1        2 0.38293919E+00 0.86567328E+03</pdfrwt>
<pdfrwt beam="2">  1       -2 0.38038812E-01 0.86567328E+03</pdfrwt>
<totfact> 0.23686905E+01</totfact>
</mgrwt>
</event>
<event>
 4    5  0.1112901E-007  0.8504288E+03  0.7818608E-02  0.9610821E-01
          2   -1    0    0  501    0  0.00000000000E+00  0.00000000000E+00  0.82964119866E+03  0.82964119866E+03  0.25500000000E-02 0. -1.
         -2   -1    0    0    0  501 -0.00000000000E+00 -0.00000000000E+00 -0.82153973276E+03  0.82153973276E+03  0.25500000000E-02 0.  1.
    8880023    1    1    2    0    0  0.52000624819E+03 -0.13788587009E+03 -0.41843939731E+03  0.94779784069E+03  0.65864270000E+03 0.  1.
    8880022    1    1    2    0    0 -0.52000624819E+03  0.13788587009E+03  0.42654086321E+03  0.70338309074E+03  0.15294330000E+03 0.  0.
<mgrwt>
<rscale>  0 0.76584112E+03</rscale>
<asrwt>0</asrwt>
<pdfrwt beam="1">  1        2 0.12763711E+00 0.85042884E+03</pdfrwt>
<pdfrwt beam="2">  1       -2 0.12639073E+00 0.85042884E+03</pdfrwt>
<totfact> 0.15378184E+01</totfact>
</mgrwt>
</event>
<event>
 4    5  0.1112901E-007  0.1430575E+04  0.7818608E-02  0.8960282E-01
         -2   -1    0    0    0  501 -0.00000000000E+00  0.00000000000E+00  0.20889190287E+04  0.20889190287E+04  0.25500000000E-02 0.  1.
          2   -1    0    0  501    0  0.00000000000E+00 -0.00000000000E+00 -0.23981648852E+04  0.23981648852E+04  0.25500000000E-02 0. -1.
    8880023    1    1    2    0    0  0.10866174491E+04 -0.65726577543E+03 -0.19425776870E+04  0.24124995454E+04  0.65864270000E+03 0.  0.
    8880022    1    1    2    0    0 -0.10866174491E+04  0.65726577543E+03  0.16333318305E+04  0.20745843685E+04  0.15294330000E+03 0.  0.
<mgrwt>
<rscale>  0 0.13911059E+04</rscale>
<asrwt>0</asrwt>
<pdfrwt beam="1">  1        2 0.36894844E+00 0.14305754E+04</pdfrwt>
<pdfrwt beam="2">  1       -2 0.32137216E+00 0.14305754E+04</pdfrwt>
<totfact> 0.88675010E-02</totfact>
</mgrwt>
</event>
<event>
 4    5  0.1112901E-007  0.8576784E+03  0.7818608E-02  0.9597707E-01
         -2   -1    0    0    0  501 -0.00000000000E+00  0.00000000000E+00  0.54447404960E+03  0.54447404961E+03  0.25500000000E-02 0.  1.
          2   -1    0    0  501    0  0.00000000000E+00 -0.00000000000E+00 -0.16886232148E+04  0.16886232148E+04  0.25500000000E-02 0. -1.
    8880023    1    1    2    0    0 -0.28699959950E+03  0.46843696092E+03  0.10097142781E+03  0.86360140804E+03  0.65864270000E+03 0.  1.
    8880022    1    1    2    0    0  0.28699959950E+03 -0.46843696092E+03 -0.12451205930E+04  0.13694958564E+04  0.15294330000E+03 0.  0.
<mgrwt>
<rscale>  0 0.77448157E+03</rscale>
<asrwt>0</asrwt>
<pdfrwt beam="1">  1        2 0.25978818E+00 0.85767836E+03</pdfrwt>
<pdfrwt beam="2">  1       -2 0.83765239E-01 0.85767836E+03</pdfrwt>
<totfact> 0.12570295E+01</totfact>
</mgrwt>
</event>
<event>
 4    5  0.1112901E-007  0.1247293E+04  0.7818608E-02  0.9112467E-01
          2   -1    0    0  501    0  0.00000000000E+00  0.00000000000E+00  0.42071449343E+04  0.42071449343E+04  0.25500000000E-02 0. -1.
         -2   -1    0    0    0  501 -0.00000000000E+00 -0.00000000000E+00 -0.34180112338E+03  0.34180112339E+03  0.25500000000E-02 0.  1.
    8880023    1    1    2    0    0 -0.71111853349E+03  0.78500950081E+03  0.26545529056E+04  0.29329832628E+04  0.65864270000E+03 0.  0.
    8880022    1    1    2    0    0  0.71111853349E+03 -0.78500950081E+03  0.12107909053E+04  0.16159627949E+04  0.15294330000E+03 0.  0.
<mgrwt>
<rscale>  0 0.12004450E+04</rscale>
<asrwt>0</asrwt>
<pdfrwt beam="1">  1        2 0.64725309E+00 0.12472929E+04</pdfrwt>
<pdfrwt beam="2">  1       -2 0.52584786E-01 0.12472929E+04</pdfrwt>
<totfact> 0.79750730E-01</totfact>
</mgrwt>
</event>
<event>
 4    5  0.1112901E-007  0.8637152E+03  0.7818608E-02  0.9586989E-01
         -2   -1    0    0    0  501 -0.00000000000E+00  0.00000000000E+00  0.54233195924E+03  0.54233195925E+03  0.25500000000E-02 0.  1.
          2   -1    0    0  501    0  0.00000000000E+00 -0.00000000000E+00 -0.15831270581E+04  0.15831270581E+04  0.25500000000E-02 0. -1.
    8880023    1    1    2    0    0 -0.54434328150E+03  0.12603209924E+03  0.76313859379E+02  0.86707999028E+03  0.65864270000E+03 0.  1.
    8880022    1    1    2    0    0  0.54434328150E+03 -0.12603209924E+03 -0.11171089582E+04  0.12583790270E+04  0.15294330000E+03 0.  0.
<mgrwt>
<rscale>  0 0.78163372E+03</rscale>
<asrwt>0</asrwt>
<pdfrwt beam="1">  1        2 0.24355801E+00 0.86371518E+03</pdfrwt>
<pdfrwt beam="2">  1       -2 0.83435687E-01 0.86371518E+03</pdfrwt>
<totfact> 0.14493878E+01</totfact>
</mgrwt>
</event>
<event>
 4    5  0.1112901E-007  0.8153569E+03  0.7818608E-02  0.9678525E-01
         -2   -1    0    0    0  501 -0.00000000000E+00  0.00000000000E+00  0.17127164552E+04  0.17127164552E+04  0.25500000000E-02 0.  1.
          2   -1    0    0  501    0  0.00000000000E+00 -0.00000000000E+00 -0.99803335787E+03  0.99803335787E+03  0.25500000000E-02 0. -1.
    8880023    1    1    2    0    0  0.13645784082E+03  0.46084266101E+03  0.15405696940E+04  0.17430323832E+04  0.65864270000E+03 0.  1.
    8880022    1    1    2    0    0 -0.13645784082E+03 -0.46084266101E+03 -0.82588659667E+03  0.96771742988E+03  0.15294330000E+03 0.  0.
<mgrwt>
<rscale>  0 0.72309935E+03</rscale>
<asrwt>0</asrwt>
<pdfrwt beam="1">  1        2 0.15354359E+00 0.81535692E+03</pdfrwt>
<pdfrwt beam="2">  1       -2 0.26349484E+00 0.81535692E+03</pdfrwt>
<totfact> 0.13763248E+00</totfact>
</mgrwt>
</event>
<event>
 4    5  0.1112901E-007  0.1122471E+04  0.7818608E-02  0.9236441E-01
          2   -1    0    0  501    0  0.00000000000E+00  0.00000000000E+00  0.33679256084E+03  0.33679256084E+03  0.25500000000E-02 0. -1.
         -2   -1    0    0    0  501 -0.00000000000E+00 -0.00000000000E+00 -0.32386676536E+04  0.32386676536E+04  0.25500000000E-02 0.  1.
    8880023    1    1    2    0    0  0.89053698368E+03  0.18186320106E+03 -0.19532695605E+04  0.22528210150E+04  0.65864270000E+03 0.  0.
    8880022    1    1    2    0    0 -0.89053698368E+03 -0.18186320106E+03 -0.94860553232E+03  0.13226391995E+04  0.15294330000E+03 0.  0.
<mgrwt>
<rscale>  0 0.10685088E+04</rscale>
<asrwt>0</asrwt>
<pdfrwt beam="1">  1        2 0.51814242E-01 0.11224707E+04</pdfrwt>
<pdfrwt beam="2">  1       -2 0.49825654E+00 0.11224707E+04</pdfrwt>
<totfact> 0.16303054E-01</totfact>
</mgrwt>
</event>
<event>
 4    5  0.1112901E-007  0.8683661E+03  0.7818608E-02  0.9578852E-01
          2   -1    0    0  501    0  0.00000000000E+00  0.00000000000E+00  0.37607820732E+03  0.37607820732E+03  0.25500000000E-02 0. -1.
         -2   -1    0    0    0  501 -0.00000000000E+00 -0.00000000000E+00 -0.15771214366E+04  0.15771214366E+04  0.25500000000E-02 0.  1.
    8880023    1    1    2    0    0 -0.23599653885E+03  0.51434917235E+03 -0.10202063996E+04  0.13397315931E+04  0.65864270000E+03 0.  1.
    8880022    1    1    2    0    0  0.23599653885E+03 -0.51434917235E+03 -0.18083682973E+03  0.61346805088E+03  0.15294330000E+03 0. -1.
<mgrwt>
<rscale>  0 0.78711878E+03</rscale>
<asrwt>0</asrwt>
<pdfrwt beam="1">  1        2 0.57858186E-01 0.86836608E+03</pdfrwt>
<pdfrwt beam="2">  1       -2 0.24263406E+00 0.86836608E+03</pdfrwt>
<totfact> 0.61621075E+00</totfact>
</mgrwt>
</event>
<event>
 4    5  0.1112901E-007  0.7002755E+03  0.7818608E-02  0.9996060E-01
          2   -1    0    0  501    0  0.00000000000E+00  0.00000000000E+00  0.39025890803E+04  0.39025890803E+04  0.25500000000E-02 0. -1.
         -2   -1    0    0    0  501 -0.00000000000E+00 -0.00000000000E+00 -0.86048303188E+03  0.86048303189E+03  0.25500000000E-02 0.  1.
    8880023    1    1    2    0    0 -0.12137422759E+03 -0.20455772815E+03 -0.71180498030E+03  0.99852496389E+03  0.65864270000E+03 0.  1.
    8880022    1    1    2    0    0  0.12137422759E+03  0.20455772815E+03  0.37539110287E+04  0.37645471483E+04  0.15294330000E+03 0.  0.
<mgrwt>
<rscale>  0 0.55823325E+03</rscale>
<asrwt>0</asrwt>
<pdfrwt beam="1">  1        2 0.60039832E+00 0.70027550E+03</pdfrwt>
<pdfrwt beam="2">  1       -2 0.13238200E+00 0.70027550E+03</pdfrwt>
<totfact> 0.19110007E-01</totfact>
</mgrwt>
</event>
<event>
 4    5  0.1112901E-007  0.6899373E+03  0.7818608E-02  0.1004182E+00
          2   -1    0    0  501    0  0.00000000000E+00  0.00000000000E+00  0.76889082555E+03  0.76889082555E+03  0.25500000000E-02 0. -1.
         -2   -1    0    0    0  501 -0.00000000000E+00 -0.00000000000E+00 -0.75733014673E+03  0.75733014674E+03  0.25500000000E-02 0.  1.
    8880023    1    1    2    0    0 -0.17953583898E+03 -0.99850426648E+02 -0.56730771417E+03  0.89322532096E+03  0.65864270000E+03 0.  1.
    8880022    1    1    2    0    0  0.17953583898E+03  0.99850426648E+02  0.57886839299E+03  0.63299565133E+03  0.15294330000E+03 0.  0.
<mgrwt>
<rscale>  0 0.53853749E+03</rscale>
<asrwt>0</asrwt>
<pdfrwt beam="1">  1        2 0.11829090E+00 0.68993727E+03</pdfrwt>
<pdfrwt beam="2">  1       -2 0.11651233E+00 0.68993727E+03</pdfrwt>
<totfact> 0.21153207E+01</totfact>
</mgrwt>
</event>
<event>
 4    5  0.1112901E-007  0.1067545E+04  0.7818608E-02  0.9298081E-01
         -2   -1    0    0    0  501 -0.00000000000E+00  0.00000000000E+00  0.83450572594E+03  0.83450572594E+03  0.25500000000E-02 0.  1.
          2   -1    0    0  501    0  0.00000000000E+00 -0.00000000000E+00 -0.28392267936E+04  0.28392267936E+04  0.25500000000E-02 0. -1.
    8880023    1    1    2    0    0 -0.76043826125E+03  0.35717797005E+03  0.38591301916E+03  0.11351570447E+04  0.65864270000E+03 0.  0.
    8880022    1    1    2    0    0  0.76043826125E+03 -0.35717797005E+03 -0.23906340868E+04  0.25385754749E+04  0.15294330000E+03 0.  0.
<mgrwt>
<rscale>  0 0.10095970E+04</rscale>
<asrwt>0</asrwt>
<pdfrwt beam="1">  1        2 0.43680412E+00 0.10675452E+04</pdfrwt>
<pdfrwt beam="2">  1       -2 0.12838550E+00 0.10675452E+04</pdfrwt>
<totfact> 0.98417223E-01</totfact>
</mgrwt>
</event>
<event>
 4    5  0.1112901E-007  0.1654557E+04  0.7818608E-02  0.8807567E-01
         -2   -1    0    0    0  501 -0.00000000000E+00  0.00000000000E+00  0.10452562346E+04  0.10452562346E+04  0.25500000000E-02 0.  1.
          2   -1    0    0  501    0  0.00000000000E+00 -0.00000000000E+00 -0.31586593424E+04  0.31586593424E+04  0.25500000000E-02 0. -1.
    8880023    1    1    2    0    0 -0.10905663083E+04 -0.10556575209E+04 -0.21062481852E+04  0.26784023780E+04  0.65864270000E+03 0.  0.
    8880022    1    1    2    0    0  0.10905663083E+04  0.10556575209E+04 -0.71549225806E+01  0.15255131990E+04  0.15294330000E+03 0.  0.
<mgrwt>
<rscale>  0 0.16213025E+04</rscale>
<asrwt>0</asrwt>
<pdfrwt beam="1">  1        2 0.48594759E+00 0.16545567E+04</pdfrwt>
<pdfrwt beam="2">  1       -2 0.16080865E+00 0.16545567E+04</pdfrwt>
<totfact> 0.31920815E-01</totfact>
</mgrwt>
</event>
<event>
 4    5  0.1112901E-007  0.1163344E+04  0.7818608E-02  0.9193605E-01
          2   -1    0    0  501    0  0.00000000000E+00  0.00000000000E+00  0.20038599284E+04  0.20038599284E+04  0.25500000000E-02 0. -1.
         -2   -1    0    0    0  501 -0.00000000000E+00 -0.00000000000E+00 -0.12669869425E+04  0.12669869425E+04  0.25500000000E-02 0.  1.
    8880023    1    1    2    0    0  0.23820813772E+03 -0.92887879738E+03 -0.82887398439E+03  0.14284261358E+04  0.65864270000E+03 0.  1.
    8880022    1    1    2    0    0 -0.23820813772E+03  0.92887879738E+03  0.15657469703E+04  0.18424207351E+04  0.15294330000E+03 0.  0.
<mgrwt>
<rscale>  0 0.11119678E+04</rscale>
<asrwt>0</asrwt>
<pdfrwt beam="1">  1        2 0.30828614E+00 0.11633439E+04</pdfrwt>
<pdfrwt beam="2">  1       -2 0.19492107E+00 0.11633439E+04</pdfrwt>
<totfact> 0.93233902E-01</totfact>
</mgrwt>
</event>
<event>
 4    5  0.1112901E-007  0.8383627E+03  0.7818608E-02  0.9633275E-01
         -2   -1    0    0    0  501 -0.00000000000E+00  0.00000000000E+00  0.30712841982E+03  0.30712841983E+03  0.25500000000E-02 0.  1.
          2   -1    0    0  501    0  0.00000000000E+00 -0.00000000000E+00 -0.19804355637E+04  0.19804355637E+04  0.25500000000E-02 0. -1.
    8880023    1    1    2    0    0 -0.50550121090E+03  0.11623418401E+03 -0.45326881468E+03  0.95305020035E+03  0.65864270000E+03 0.  0.
    8880022    1    1    2    0    0  0.50550121090E+03 -0.11623418401E+03 -0.12200383292E+04  0.13345137832E+04  0.15294330000E+03 0.  0.
<mgrwt>
<rscale>  0 0.75132418E+03</rscale>
<asrwt>0</asrwt>
<pdfrwt beam="1">  1        2 0.30468239E+00 0.83836273E+03</pdfrwt>
<pdfrwt beam="2">  1       -2 0.47250528E-01 0.83836273E+03</pdfrwt>
<totfact> 0.29694755E+01</totfact>
</mgrwt>
</event>
<event>
 4    5  0.1112901E-007  0.6678366E+03  0.7818608E-02  0.1017264E+00
         -2   -1    0    0    0  501 -0.00000000000E+00  0.00000000000E+00  0.89260108089E+02  0.89260108126E+02  0.25500000000E-02 0.  1.
          2   -1    0    0  501    0  0.00000000000E+00 -0.00000000000E+00 -0.29948829899E+04  0.29948829899E+04  0.25500000000E-02 0. -1.
    8880023    1    1    2    0    0  0.10819277176E+03  0.22132493556E+02 -0.12447327695E+04  0.14125740323E+04  0.65864270000E+03 0.  1.
    8880022    1    1    2    0    0 -0.10819277176E+03 -0.22132493556E+02 -0.16608901124E+04  0.16715690657E+04  0.15294330000E+03 0.  0.
<mgrwt>
<rscale>  0 0.48687150E+03</rscale>
<asrwt>0</asrwt>
<pdfrwt beam="1">  1        2 0.46075115E+00 0.66783660E+03</pdfrwt>
<pdfrwt beam="2">  1       -2 0.13732327E-01 0.66783660E+03</pdfrwt>
<totfact> 0.76118387E+01</totfact>
</mgrwt>
</event>
<event>
 4    5  0.1112901E-007  0.1003634E+04  0.7818608E-02  0.9376818E-01
         -2   -1    0    0    0  501 -0.00000000000E+00  0.00000000000E+00  0.86875648850E+03  0.86875648851E+03  0.25500000000E-02 0.  1.
          2   -1    0    0  501    0  0.00000000000E+00 -0.00000000000E+00 -0.15101399857E+04  0.15101399857E+04  0.25500000000E-02 0. -1.
    8880023    1    1    2    0    0  0.74140757302E+03  0.15422904639E+03  0.40155179831E+03  0.10809837377E+04  0.65864270000E+03 0.  1.
    8880022    1    1    2    0    0 -0.74140757302E+03 -0.15422904639E+03 -0.10429352955E+04  0.12979127366E+04  0.15294330000E+03 0.  0.
<mgrwt>
<rscale>  0 0.94008262E+03</rscale>
<asrwt>0</asrwt>
<pdfrwt beam="1">  1        2 0.23232923E+00 0.10036344E+04</pdfrwt>
<pdfrwt beam="2">  1       -2 0.13365484E+00 0.10036344E+04</pdfrwt>
<totfact> 0.50345107E+00</totfact>
</mgrwt>
</event>
<event>
 4    5  0.1112901E-007  0.7544369E+03  0.7818608E-02  0.9819729E-01
         -2   -1    0    0    0  501 -0.00000000000E+00  0.00000000000E+00  0.10898101256E+04  0.10898101256E+04  0.25500000000E-02 0.  1.
          2   -1    0    0  501    0  0.00000000000E+00 -0.00000000000E+00 -0.58252041527E+03  0.58252041528E+03  0.25500000000E-02 0. -1.
    8880023    1    1    2    0    0  0.33415390316E+03  0.15396733258E+03  0.85729920246E+03  0.11419881345E+04  0.65864270000E+03 0.  1.
    8880022    1    1    2    0    0 -0.33415390316E+03 -0.15396733258E+03 -0.35000949209E+03  0.53034240644E+03  0.15294330000E+03 0.  0.
<mgrwt>
<rscale>  0 0.64314454E+03</rscale>
<asrwt>0</asrwt>
<pdfrwt beam="1">  1        2 0.89618526E-01 0.75443686E+03</pdfrwt>
<pdfrwt beam="2">  1       -2 0.16766310E+00 0.75443686E+03</pdfrwt>
<totfact> 0.11559491E+01</totfact>
</mgrwt>
</event>
<event>
 4    5  0.1112901E-007  0.1098468E+04  0.7818608E-02  0.9262764E-01
         -2   -1    0    0    0  501 -0.00000000000E+00  0.00000000000E+00  0.10582229982E+04  0.10582229982E+04  0.25500000000E-02 0.  1.
          2   -1    0    0  501    0  0.00000000000E+00 -0.00000000000E+00 -0.14701277794E+04  0.14701277794E+04  0.25500000000E-02 0. -1.
    8880023    1    1    2    0    0  0.41553135227E+03 -0.77469696956E+03  0.53965138887E+03  0.12238690809E+04  0.65864270000E+03 0.  1.
    8880022    1    1    2    0    0 -0.41553135227E+03  0.77469696956E+03 -0.95155617003E+03  0.13044816967E+04  0.15294330000E+03 0.  0.
<mgrwt>
<rscale>  0 0.10428437E+04</rscale>
<asrwt>0</asrwt>
<pdfrwt beam="1">  1        2 0.22617350E+00 0.10984680E+04</pdfrwt>
<pdfrwt beam="2">  1       -2 0.16280354E+00 0.10984680E+04</pdfrwt>
<totfact> 0.31112664E+00</totfact>
</mgrwt>
</event>
<event>
 4    5  0.1112901E-007  0.1103210E+04  0.7818608E-02  0.9257491E-01
         -2   -1    0    0    0  501 -0.00000000000E+00  0.00000000000E+00  0.11520038119E+04  0.11520038119E+04  0.25500000000E-02 0.  1.
          2   -1    0    0  501    0  0.00000000000E+00 -0.00000000000E+00 -0.14606578541E+04  0.14606578541E+04  0.25500000000E-02 0. -1.
    8880023    1    1    2    0    0 -0.66878436968E+03  0.57964584854E+03  0.66491244570E+03  0.12880918483E+04  0.65864270000E+03 0.  1.
    8880022    1    1    2    0    0  0.66878436968E+03 -0.57964584854E+03 -0.97356648783E+03  0.13245698178E+04  0.15294330000E+03 0.  0.
<mgrwt>
<rscale>  0 0.10479233E+04</rscale>
<asrwt>0</asrwt>
<pdfrwt beam="1">  1        2 0.22471659E+00 0.11032099E+04</pdfrwt>
<pdfrwt beam="2">  1       -2 0.17723136E+00 0.11032099E+04</pdfrwt>
<totfact> 0.24834529E+00</totfact>
</mgrwt>
</event>
<event>
 4    5  0.1112901E-007  0.9198242E+03  0.7818608E-02  0.9494929E-01
          2   -1    0    0  501    0  0.00000000000E+00  0.00000000000E+00  0.15339168931E+04  0.15339168931E+04  0.25500000000E-02 0. -1.
         -2   -1    0    0    0  501 -0.00000000000E+00 -0.00000000000E+00 -0.18563110236E+04  0.18563110236E+04  0.25500000000E-02 0.  1.
    8880023    1    1    2    0    0 -0.38566811478E+03  0.51334832438E+03 -0.16604669865E+04  0.18982168518E+04  0.65864270000E+03 0.  1.
    8880022    1    1    2    0    0  0.38566811478E+03 -0.51334832438E+03  0.13380728560E+04  0.14920110649E+04  0.15294330000E+03 0.  0.
<mgrwt>
<rscale>  0 0.84658750E+03</rscale>
<asrwt>0</asrwt>
<pdfrwt beam="1">  1        2 0.23598721E+00 0.91982422E+03</pdfrwt>
<pdfrwt beam="2">  1       -2 0.28558631E+00 0.91982422E+03</pdfrwt>
<totfact> 0.48100092E-01</totfact>
</mgrwt>
</event>
<event>
 4    5  0.1112901E-007  0.8146739E+03  0.7818608E-02  0.9679922E-01
         -2   -1    0    0    0  501 -0.00000000000E+00  0.00000000000E+00  0.37280861195E+03  0.37280861196E+03  0.25500000000E-02 0.  1.
          2   -1    0    0  501    0  0.00000000000E+00 -0.00000000000E+00 -0.32572627796E+04  0.32572627796E+04  0.25500000000E-02 0. -1.
    8880023    1    1    2    0    0 -0.47826224346E+03  0.33890935917E+02 -0.12392820413E+03  0.82404597875E+03  0.65864270000E+03 0.  0.
    8880022    1    1    2    0    0  0.47826224346E+03 -0.33890935917E+02 -0.27605259635E+04  0.28060254128E+04  0.15294330000E+03 0.  0.
<mgrwt>
<rscale>  0 0.72224892E+03</rscale>
<asrwt>0</asrwt>
<pdfrwt beam="1">  1        2 0.50111733E+00 0.81467391E+03</pdfrwt>
<pdfrwt beam="2">  1       -2 0.57355173E-01 0.81467391E+03</pdfrwt>
<totfact> 0.35984149E+00</totfact>
</mgrwt>
</event>
<event>
 4    5  0.1112901E-007  0.8322229E+03  0.7818608E-02  0.9645023E-01
          2   -1    0    0  501    0  0.00000000000E+00  0.00000000000E+00  0.17155015099E+04  0.17155015099E+04  0.25500000000E-02 0. -1.
         -2   -1    0    0    0  501 -0.00000000000E+00 -0.00000000000E+00 -0.13421749394E+04  0.13421749394E+04  0.25500000000E-02 0.  1.
    8880023    1    1    2    0    0  0.50317285786E+03  0.74845591283E+02 -0.11641457317E+04  0.14310242060E+04  0.65864270000E+03 0.  1.
    8880022    1    1    2    0    0 -0.50317285786E+03 -0.74845591283E+02  0.15374723022E+04  0.16266522432E+04  0.15294330000E+03 0.  0.
<mgrwt>
<rscale>  0 0.74386624E+03</rscale>
<asrwt>0</asrwt>
<pdfrwt beam="1">  1        2 0.26392331E+00 0.83222292E+03</pdfrwt>
<pdfrwt beam="2">  1       -2 0.20648845E+00 0.83222292E+03</pdfrwt>
<totfact> 0.11859460E+00</totfact>
</mgrwt>
</event>
<event>
 4    5  0.1112901E-007  0.9921308E+03  0.7818608E-02  0.9391926E-01
         -2   -1    0    0    0  501 -0.00000000000E+00  0.00000000000E+00  0.11079968919E+04  0.11079968919E+04  0.25500000000E-02 0.  1.
          2   -1    0    0  501    0  0.00000000000E+00 -0.00000000000E+00 -0.10141010165E+04  0.10141010165E+04  0.25500000000E-02 0. -1.
    8880023    1    1    2    0    0 -0.13154715390E+03  0.73021141368E+03  0.64669293239E+03  0.11842868392E+04  0.65864270000E+03 0.  0.
    8880022    1    1    2    0    0  0.13154715390E+03 -0.73021141368E+03 -0.55279705702E+03  0.93781106926E+03  0.15294330000E+03 0.  0.
<mgrwt>
<rscale>  0 0.92743121E+03</rscale>
<asrwt>0</asrwt>
<pdfrwt beam="1">  1        2 0.15601554E+00 0.99213082E+03</pdfrwt>
<pdfrwt beam="2">  1       -2 0.17046106E+00 0.99213082E+03</pdfrwt>
<totfact> 0.51762738E+00</totfact>
</mgrwt>
</event>
<event>
 4    5  0.1112901E-007  0.8125305E+03  0.7818608E-02  0.9684330E-01
          2   -1    0    0  501    0  0.00000000000E+00  0.00000000000E+00  0.13319094023E+04  0.13319094023E+04  0.25500000000E-02 0. -1.
         -2   -1    0    0    0  501 -0.00000000000E+00 -0.00000000000E+00 -0.63188612234E+03  0.63188612234E+03  0.25500000000E-02 0.  1.
    8880023    1    1    2    0    0 -0.25426286806E+03  0.40217651912E+03 -0.28350177382E+03  0.86056900980E+03  0.65864270000E+03 0.  1.
    8880022    1    1    2    0    0  0.25426286806E+03 -0.40217651912E+03  0.98352505375E+03  0.11032265148E+04  0.15294330000E+03 0.  0.
<mgrwt>
<rscale>  0 0.71957492E+03</rscale>
<asrwt>0</asrwt>
<pdfrwt beam="1">  1        2 0.20490914E+00 0.81253047E+03</pdfrwt>
<pdfrwt beam="2">  1       -2 0.97213250E-01 0.81253047E+03</pdfrwt>
<totfact> 0.14180926E+01</totfact>
</mgrwt>
</event>
<event>
 4    5  0.1112901E-007  0.1018220E+04  0.7818608E-02  0.9358100E-01
          2   -1    0    0  501    0  0.00000000000E+00  0.00000000000E+00  0.23642846615E+04  0.23642846615E+04  0.25500000000E-02 0. -1.
         -2   -1    0    0    0  501 -0.00000000000E+00 -0.00000000000E+00 -0.73529603823E+03  0.73529603824E+03  0.25500000000E-02 0.  1.
    8880023    1    1    2    0    0  0.28724907003E+03 -0.72142136651E+03 -0.26052172281E+03  0.10510197860E+04  0.65864270000E+03 0.  0.
    8880022    1    1    2    0    0 -0.28724907003E+03  0.72142136651E+03  0.18895103461E+04  0.20485609137E+04  0.15294330000E+03 0.  0.
<mgrwt>
<rscale>  0 0.95605619E+03</rscale>
<asrwt>0</asrwt>
<pdfrwt beam="1">  1        2 0.36373610E+00 0.10182195E+04</pdfrwt>
<pdfrwt beam="2">  1       -2 0.11312247E+00 0.10182195E+04</pdfrwt>
<totfact> 0.25644564E+00</totfact>
</mgrwt>
</event>
<event>
 4    5  0.1112901E-007  0.8212782E+03  0.7818608E-02  0.9666547E-01
         -2   -1    0    0    0  501 -0.00000000000E+00  0.00000000000E+00  0.21720905546E+04  0.21720905546E+04  0.25500000000E-02 0.  1.
          2   -1    0    0  501    0  0.00000000000E+00 -0.00000000000E+00 -0.32156212352E+03  0.32156212353E+03  0.25500000000E-02 0. -1.
    8880023    1    1    2    0    0  0.66287840175E+02 -0.48610042546E+03  0.17984933493E+04  0.19771383955E+04  0.65864270000E+03 0.  1.
    8880022    1    1    2    0    0 -0.66287840175E+02  0.48610042546E+03  0.52035081806E+02  0.51651428261E+03  0.15294330000E+03 0.  0.
<mgrwt>
<rscale>  0 0.73043998E+03</rscale>
<asrwt>0</asrwt>
<pdfrwt beam="1">  1        2 0.49471096E-01 0.82127822E+03</pdfrwt>
<pdfrwt beam="2">  1       -2 0.33416777E+00 0.82127822E+03</pdfrwt>
<totfact> 0.20616057E+00</totfact>
</mgrwt>
</event>
<event>
 4    5  0.1112901E-007  0.9855228E+03  0.7818608E-02  0.9400748E-01
          2   -1    0    0  501    0  0.00000000000E+00  0.00000000000E+00  0.23886129948E+04  0.23886129948E+04  0.25500000000E-02 0. -1.
         -2   -1    0    0    0  501 -0.00000000000E+00 -0.00000000000E+00 -0.69214458261E+03  0.69214458262E+03  0.25500000000E-02 0.  1.
    8880023    1    1    2    0    0  0.72904303485E+03  0.77079491304E+02 -0.23158775643E+03  0.10123675666E+04  0.65864270000E+03 0.  0.
    8880022    1    1    2    0    0 -0.72904303485E+03 -0.77079491304E+02  0.19280561686E+04  0.20683900108E+04  0.15294330000E+03 0.  0.
<mgrwt>
<rscale>  0 0.92014137E+03</rscale>
<asrwt>0</asrwt>
<pdfrwt beam="1">  1        2 0.36747893E+00 0.98552281E+03</pdfrwt>
<pdfrwt beam="2">  1       -2 0.10648378E+00 0.98552281E+03</pdfrwt>
<totfact> 0.28912839E+00</totfact>
</mgrwt>
</event>
<event>
 4    5  0.1112901E-007  0.8830287E+03  0.7818608E-02  0.9553844E-01
          2   -1    0    0  501    0  0.00000000000E+00  0.00000000000E+00  0.58436772425E+03  0.58436772426E+03  0.25500000000E-02 0. -1.
         -2   -1    0    0    0  501 -0.00000000000E+00 -0.00000000000E+00 -0.15683995889E+04  0.15683995889E+04  0.25500000000E-02 0.  1.
    8880023    1    1    2    0    0  0.54230892712E+03  0.22766315688E+03 -0.12155595133E+04  0.15024395569E+04  0.65864270000E+03 0.  0.
    8880022    1    1    2    0    0 -0.54230892712E+03 -0.22766315688E+03  0.23152764868E+03  0.65032775625E+03  0.15294330000E+03 0.  0.
<mgrwt>
<rscale>  0 0.80427883E+03</rscale>
<asrwt>0</asrwt>
<pdfrwt beam="1">  1        2 0.89902728E-01 0.88302870E+03</pdfrwt>
<pdfrwt beam="2">  1       -2 0.24129224E+00 0.88302870E+03</pdfrwt>
<totfact> 0.37639994E+00</totfact>
</mgrwt>
</event>
<event>
 4    5  0.1112901E-007  0.1274013E+04  0.7818608E-02  0.9088332E-01
         -2   -1    0    0    0  501 -0.00000000000E+00  0.00000000000E+00  0.17279020109E+04  0.17279020109E+04  0.25500000000E-02 0.  1.
          2   -1    0    0  501    0  0.00000000000E+00 -0.00000000000E+00 -0.16645982015E+04  0.16645982015E+04  0.25500000000E-02 0. -1.
    8880023    1    1    2    0    0  0.39723093036E+03  0.10156311184E+04 -0.11765709212E+04  0.17341938530E+04  0.65864270000E+03 0. -1.
    8880022    1    1    2    0    0 -0.39723093036E+03 -0.10156311184E+04  0.12398747306E+04  0.16583063593E+04  0.15294330000E+03 0.  0.
<mgrwt>
<rscale>  0 0.12284264E+04</rscale>
<asrwt>0</asrwt>
<pdfrwt beam="1">  1        2 0.25609203E+00 0.12740130E+04</pdfrwt>
<pdfrwt beam="2">  1       -2 0.26583108E+00 0.12740130E+04</pdfrwt>
<totfact> 0.50821860E-01</totfact>
</mgrwt>
</event>
<event>
 4    5  0.1112901E-007  0.1081744E+04  0.7818608E-02  0.9281659E-01
         -2   -1    0    0    0  501 -0.00000000000E+00  0.00000000000E+00  0.12113474126E+04  0.12113474126E+04  0.25500000000E-02 0.  1.
          2   -1    0    0  501    0  0.00000000000E+00 -0.00000000000E+00 -0.20103280923E+04  0.20103280923E+04  0.25500000000E-02 0. -1.
    8880023    1    1    2    0    0  0.83345142944E+03  0.20425253694E+03  0.83715440566E+03  0.13678443220E+04  0.65864270000E+03 0.  1.
    8880022    1    1    2    0    0 -0.83345142944E+03 -0.20425253694E+03 -0.16361350854E+04  0.18538311829E+04  0.15294330000E+03 0.  0.
<mgrwt>
<rscale>  0 0.10248904E+04</rscale>
<asrwt>0</asrwt>
<pdfrwt beam="1">  1        2 0.30928125E+00 0.10817442E+04</pdfrwt>
<pdfrwt beam="2">  1       -2 0.18636114E+00 0.10817442E+04</pdfrwt>
<totfact> 0.10668950E+00</totfact>
</mgrwt>
</event>
<event>
 4    5  0.1112901E-007  0.1421315E+04  0.7818608E-02  0.8967295E-01
         -2   -1    0    0    0  501 -0.00000000000E+00  0.00000000000E+00  0.78796336745E+03  0.78796336746E+03  0.25500000000E-02 0.  1.
          2   -1    0    0  501    0  0.00000000000E+00 -0.00000000000E+00 -0.26151663988E+04  0.26151663988E+04  0.25500000000E-02 0. -1.
    8880023    1    1    2    0    0  0.36495372139E+03 -0.12054601777E+04 -0.36542551543E+03  0.14675392575E+04  0.65864270000E+03 0.  0.
    8880022    1    1    2    0    0 -0.36495372139E+03  0.12054601777E+04 -0.14617775160E+04  0.19355905088E+04  0.15294330000E+03 0.  0.
<mgrwt>
<rscale>  0 0.13815334E+04</rscale>
<asrwt>0</asrwt>
<pdfrwt beam="1">  1        2 0.40233329E+00 0.14213148E+04</pdfrwt>
<pdfrwt beam="2">  1       -2 0.12122513E+00 0.14213148E+04</pdfrwt>
<totfact> 0.14781177E+00</totfact>
</mgrwt>
</event>
<event>
 4    5  0.1112901E-007  0.6940888E+03  0.7818608E-02  0.1002267E+00
          2   -1    0    0  501    0  0.00000000000E+00  0.00000000000E+00  0.18085624891E+04  0.18085624891E+04  0.25500000000E-02 0. -1.
         -2   -1    0    0    0  501 -0.00000000000E+00 -0.00000000000E+00 -0.31502213478E+03  0.31502213479E+03  0.25500000000E-02 0.  1.
    8880023    1    1    2    0    0 -0.14872348535E+03  0.16071818477E+03  0.95936950826E+02  0.70068760144E+03  0.65864270000E+03 0.  1.
    8880022    1    1    2    0    0  0.14872348535E+03 -0.16071818477E+03  0.13976034035E+04  0.14228970224E+04  0.15294330000E+03 0.  0.
<mgrwt>
<rscale>  0 0.54667398E+03</rscale>
<asrwt>0</asrwt>
<pdfrwt beam="1">  1        2 0.27824038E+00 0.69408877E+03</pdfrwt>
<pdfrwt beam="2">  1       -2 0.48464944E-01 0.69408877E+03</pdfrwt>
<totfact> 0.35635773E+01</totfact>
</mgrwt>
</event>
<event>
 4    5  0.1112901E-007  0.7128117E+03  0.7818608E-02  0.9947705E-01
          2   -1    0    0  501    0  0.00000000000E+00  0.00000000000E+00  0.32295309171E+03  0.32295309172E+03  0.25500000000E-02 0. -1.
         -2   -1    0    0    0  501 -0.00000000000E+00 -0.00000000000E+00 -0.10316886134E+04  0.10316886134E+04  0.25500000000E-02 0.  1.
    8880023    1    1    2    0    0 -0.24519418153E+03 -0.11903814546E+03 -0.75541951819E+03  0.10386332950E+04  0.65864270000E+03 0.  1.
    8880022    1    1    2    0    0  0.24519418153E+03  0.11903814546E+03  0.46683996493E+02  0.31600841014E+03  0.15294330000E+03 0.  0.
<mgrwt>
<rscale>  0 0.58003991E+03</rscale>
<asrwt>0</asrwt>
<pdfrwt beam="1">  1        2 0.49685091E-01 0.71281167E+03</pdfrwt>
<pdfrwt beam="2">  1       -2 0.15872132E+00 0.71281167E+03</pdfrwt>
<totfact> 0.26439182E+01</totfact>
</mgrwt>
</event>
<event>
 4    5  0.1112901E-007  0.1105015E+04  0.7818608E-02  0.9255493E-01
          2   -1    0    0  501    0  0.00000000000E+00  0.00000000000E+00  0.44519098962E+04  0.44519098962E+04  0.25500000000E-02 0. -1.
         -2   -1    0    0    0  501 -0.00000000000E+00 -0.00000000000E+00 -0.29500619624E+03  0.29500619625E+03  0.25500000000E-02 0.  1.
    8880023    1    1    2    0    0 -0.76231597086E+03 -0.45400701888E+03  0.33855635051E+04  0.35613338044E+04  0.65864270000E+03 0.  0.
    8880022    1    1    2    0    0  0.76231597086E+03  0.45400701888E+03  0.77134019479E+03  0.11855822880E+04  0.15294330000E+03 0.  0.
<mgrwt>
<rscale>  0 0.10498557E+04</rscale>
<asrwt>0</asrwt>
<pdfrwt beam="1">  1        2 0.68490918E+00 0.11050150E+04</pdfrwt>
<pdfrwt beam="2">  1       -2 0.45385571E-01 0.11050150E+04</pdfrwt>
<totfact> 0.66436786E-01</totfact>
</mgrwt>
</event>
<event>
 4    5  0.1112901E-007  0.1087912E+04  0.7818608E-02  0.9274635E-01
          2   -1    0    0  501    0  0.00000000000E+00  0.00000000000E+00  0.16999307654E+04  0.16999307654E+04  0.25500000000E-02 0. -1.
         -2   -1    0    0    0  501 -0.00000000000E+00 -0.00000000000E+00 -0.69273433389E+03  0.69273433389E+03  0.25500000000E-02 0.  1.
    8880023    1    1    2    0    0  0.59058718396E+03 -0.63320623617E+03  0.44452259872E+02  0.10888202648E+04  0.65864270000E+03 0.  1.
    8880022    1    1    2    0    0 -0.59058718396E+03  0.63320623617E+03  0.96274417166E+03  0.13038448345E+04  0.15294330000E+03 0.  0.
<mgrwt>
<rscale>  0 0.10315194E+04</rscale>
<asrwt>0</asrwt>
<pdfrwt beam="1">  1        2 0.26152781E+00 0.10879125E+04</pdfrwt>
<pdfrwt beam="2">  1       -2 0.10657451E+00 0.10879125E+04</pdfrwt>
<totfact> 0.68682000E+00</totfact>
</mgrwt>
</event>
<event>
 4    5  0.1112901E-007  0.1672431E+04  0.7818608E-02  0.8796592E-01
          2   -1    0    0  501    0  0.00000000000E+00  0.00000000000E+00  0.30959672922E+04  0.30959672922E+04  0.25500000000E-02 0. -1.
         -2   -1    0    0    0  501 -0.00000000000E+00 -0.00000000000E+00 -0.13624799119E+04  0.13624799119E+04  0.25500000000E-02 0.  1.
    8880023    1    1    2    0    0 -0.11195205997E+04  0.10535122515E+04 -0.49744231020E+03  0.17448419686E+04  0.65864270000E+03 0.  0.
    8880022    1    1    2    0    0  0.11195205997E+04 -0.10535122515E+04  0.22309296905E+04  0.27136052355E+04  0.15294330000E+03 0.  0.
<mgrwt>
<rscale>  0 0.16395841E+04</rscale>
<asrwt>0</asrwt>
<pdfrwt beam="1">  1        2 0.47630265E+00 0.16724308E+04</pdfrwt>
<pdfrwt beam="2">  1       -2 0.20961230E+00 0.16724308E+04</pdfrwt>
<totfact> 0.16098276E-01</totfact>
</mgrwt>
</event>
<event>
 4    5  0.1112901E-007  0.6840288E+03  0.7818608E-02  0.1007131E+00
          2   -1    0    0  501    0  0.00000000000E+00  0.00000000000E+00  0.14416655032E+04  0.14416655032E+04  0.25500000000E-02 0. -1.
         -2   -1    0    0    0  501 -0.00000000000E+00 -0.00000000000E+00 -0.24386784234E+03  0.24386784235E+03  0.25500000000E-02 0.  1.
    8880023    1    1    2    0    0 -0.92563512865E+02  0.15974103225E+03  0.28371403142E+03  0.74053295618E+03  0.65864270000E+03 0.  0.
    8880022    1    1    2    0    0  0.92563512865E+02 -0.15974103225E+03  0.91408362949E+03  0.94500038943E+03  0.15294330000E+03 0.  0.
<mgrwt>
<rscale>  0 0.52631096E+03</rscale>
<asrwt>0</asrwt>
<pdfrwt beam="1">  1        2 0.22179469E+00 0.68402881E+03</pdfrwt>
<pdfrwt beam="2">  1       -2 0.37518130E-01 0.68402881E+03</pdfrwt>
<totfact> 0.94022654E+01</totfact>
</mgrwt>
</event>
<event>
 4    5  0.1112901E-007  0.1190358E+04  0.7818608E-02  0.9166553E-01
         -2   -1    0    0    0  501 -0.00000000000E+00  0.00000000000E+00  0.96437633585E+03  0.96437633585E+03  0.25500000000E-02 0.  1.
          2   -1    0    0  501    0  0.00000000000E+00 -0.00000000000E+00 -0.23389361793E+04  0.23389361793E+04  0.25500000000E-02 0. -1.
    8880023    1    1    2    0    0 -0.99068789718E+03 -0.40972845867E+02 -0.18446503285E+04  0.21953784012E+04  0.65864270000E+03 0.  0.
    8880022    1    1    2    0    0  0.99068789718E+03  0.40972845867E+02  0.47009048505E+03  0.11079341140E+04  0.15294330000E+03 0.  0.
<mgrwt>
<rscale>  0 0.11405429E+04</rscale>
<asrwt>0</asrwt>
<pdfrwt beam="1">  1        2 0.35983633E+00 0.11903577E+04</pdfrwt>
<pdfrwt beam="2">  1       -2 0.14836559E+00 0.11903577E+04</pdfrwt>
<totfact> 0.12987079E+00</totfact>
</mgrwt>
</event>
<event>
 4    5  0.1112901E-007  0.1140916E+04  0.7818608E-02  0.9216812E-01
         -2   -1    0    0    0  501 -0.00000000000E+00  0.00000000000E+00  0.71912673566E+03  0.71912673567E+03  0.25500000000E-02 0.  1.
          2   -1    0    0  501    0  0.00000000000E+00 -0.00000000000E+00 -0.25260122021E+04  0.25260122021E+04  0.25500000000E-02 0. -1.
    8880023    1    1    2    0    0  0.67013816941E+03  0.64714350992E+03  0.71185188493E+02  0.11431349115E+04  0.65864270000E+03 0.  1.
    8880022    1    1    2    0    0 -0.67013816941E+03 -0.64714350992E+03 -0.18780706549E+04  0.21020040262E+04  0.15294330000E+03 0.  0.
<mgrwt>
<rscale>  0 0.10881571E+04</rscale>
<asrwt>0</asrwt>
<pdfrwt beam="1">  1        2 0.38861726E+00 0.11409163E+04</pdfrwt>
<pdfrwt beam="2">  1       -2 0.11063488E+00 0.11409163E+04</pdfrwt>
<totfact> 0.21551928E+00</totfact>
</mgrwt>
</event>
<event>
 4    5  0.1121628E-007  0.1650394E+04  0.7818608E-02  0.8810146E-01
          2   -1    0    0  501    0  0.00000000000E+00  0.00000000000E+00  0.41288155142E+04  0.41288155142E+04  0.25500000000E-02 0. -1.
         -2   -1    0    0    0  501 -0.00000000000E+00 -0.00000000000E+00 -0.16053777147E+04  0.16053777147E+04  0.25500000000E-02 0.  1.
    8880023    1    1    2    0    0  0.11604235116E+04 -0.97129169515E+03 -0.97678592288E+03  0.19177881084E+04  0.65864270000E+03 0.  0.
    8880022    1    1    2    0    0 -0.11604235116E+04  0.97129169515E+03  0.35002237224E+04  0.38164051204E+04  0.15294330000E+03 0.  0.
<mgrwt>
<rscale>  0 0.16170433E+04</rscale>
<asrwt>0</asrwt>
<pdfrwt beam="1">  1        2 0.63520237E+00 0.16503940E+04</pdfrwt>
<pdfrwt beam="2">  1       -2 0.24698119E+00 0.16503940E+04</pdfrwt>
<totfact> 0.16770605E-02</totfact>
</mgrwt>
</event>
<event>
 4    5  0.1112901E-007  0.8948910E+03  0.7818608E-02  0.9534283E-01
          2   -1    0    0  501    0  0.00000000000E+00  0.00000000000E+00  0.27144800507E+04  0.27144800507E+04  0.25500000000E-02 0. -1.
         -2   -1    0    0    0  501 -0.00000000000E+00 -0.00000000000E+00 -0.30414006017E+03  0.30414006018E+03  0.25500000000E-02 0.  1.
    8880023    1    1    2    0    0 -0.24430493634E+03  0.55437784758E+03  0.21733118653E+04  0.23503434579E+04  0.65864270000E+03 0.  0.
    8880022    1    1    2    0    0  0.24430493634E+03 -0.55437784758E+03  0.23702812524E+03  0.66827665303E+03  0.15294330000E+03 0.  0.
<mgrwt>
<rscale>  0 0.81802751E+03</rscale>
<asrwt>0</asrwt>
<pdfrwt beam="1">  1        2 0.41761233E+00 0.89489100E+03</pdfrwt>
<pdfrwt beam="2">  1       -2 0.46790777E-01 0.89489100E+03</pdfrwt>
<totfact> 0.11618038E+01</totfact>
</mgrwt>
</event>
<event>
 4    5  0.1112901E-007  0.1673589E+04  0.7818608E-02  0.8795887E-01
         -2   -1    0    0    0  501 -0.00000000000E+00  0.00000000000E+00  0.23515047016E+04  0.23515047016E+04  0.25500000000E-02 0.  1.
          2   -1    0    0  501    0  0.00000000000E+00 -0.00000000000E+00 -0.14488708729E+04  0.14488708730E+04  0.25500000000E-02 0. -1.
    8880023    1    1    2    0    0 -0.97679130356E+03 -0.11886829738E+04  0.13939496580E+04  0.21780712381E+04  0.65864270000E+03 0.  0.
    8880022    1    1    2    0    0  0.97679130356E+03  0.11886829738E+04 -0.49131582931E+03  0.16223043365E+04  0.15294330000E+03 0.  0.
<mgrwt>
<rscale>  0 0.16407680E+04</rscale>
<asrwt>0</asrwt>
<pdfrwt beam="1">  1        2 0.22290321E+00 0.16735886E+04</pdfrwt>
<pdfrwt beam="2">  1       -2 0.36176995E+00 0.16735886E+04</pdfrwt>
<totfact> 0.16448992E-01</totfact>
</mgrwt>
</event>
<event>
 4    5  0.1112901E-007  0.7538888E+03  0.7818608E-02  0.9821194E-01
         -2   -1    0    0    0  501 -0.00000000000E+00  0.00000000000E+00  0.86820384950E+03  0.86820384951E+03  0.25500000000E-02 0.  1.
          2   -1    0    0  501    0  0.00000000000E+00 -0.00000000000E+00 -0.13052964409E+04  0.13052964409E+04  0.25500000000E-02 0. -1.
    8880023    1    1    2    0    0 -0.16688409596E+03  0.32663096976E+03  0.66292321426E+03  0.10039001375E+04  0.65864270000E+03 0.  1.
    8880022    1    1    2    0    0  0.16688409596E+03 -0.32663096976E+03 -0.11000158056E+04  0.11696001528E+04  0.15294330000E+03 0.  0.
<mgrwt>
<rscale>  0 0.64237474E+03</rscale>
<asrwt>0</asrwt>
<pdfrwt beam="1">  1        2 0.20081484E+00 0.75388878E+03</pdfrwt>
<pdfrwt beam="2">  1       -2 0.13356982E+00 0.75388878E+03</pdfrwt>
<totfact> 0.67972956E+00</totfact>
</mgrwt>
</event>
<event>
 4    5  0.1112901E-007  0.9146295E+03  0.7818608E-02  0.9502943E-01
          2   -1    0    0  501    0  0.00000000000E+00  0.00000000000E+00  0.42556543095E+04  0.42556543095E+04  0.25500000000E-02 0. -1.
         -2   -1    0    0    0  501 -0.00000000000E+00 -0.00000000000E+00 -0.29883894227E+03  0.29883894228E+03  0.25500000000E-02 0.  1.
    8880023    1    1    2    0    0 -0.43946993203E+03  0.45782435819E+03  0.51161964538E+03  0.10479989656E+04  0.65864270000E+03 0.  1.
    8880022    1    1    2    0    0  0.43946993203E+03 -0.45782435819E+03  0.34451957219E+04  0.35064942862E+04  0.15294330000E+03 0. -1.
<mgrwt>
<rscale>  0 0.84067184E+03</rscale>
<asrwt>0</asrwt>
<pdfrwt beam="1">  1        2 0.65471604E+00 0.91462953E+03</pdfrwt>
<pdfrwt beam="2">  1       -2 0.45975223E-01 0.91462953E+03</pdfrwt>
<totfact> 0.10100353E+00</totfact>
</mgrwt>
</event>
<event>
 4    5  0.1112901E-007  0.6944205E+03  0.7818608E-02  0.1002118E+00
          2   -1    0    0  501    0  0.00000000000E+00  0.00000000000E+00  0.29080649288E+04  0.29080649288E+04  0.25500000000E-02 0. -1.
         -2   -1    0    0    0  501 -0.00000000000E+00 -0.00000000000E+00 -0.44863896820E+03  0.44863896821E+03  0.25500000000E-02 0.  1.
    8880023    1    1    2    0    0 -0.97955777571E+02  0.19701325537E+03 -0.16897187447E+03  0.71468262731E+03  0.65864270000E+03 0.  1.
    8880022    1    1    2    0    0  0.97955777571E+02 -0.19701325537E+03  0.26283978350E+04  0.26420212697E+04  0.15294330000E+03 0.  0.
<mgrwt>
<rscale>  0 0.54730996E+03</rscale>
<asrwt>0</asrwt>
<pdfrwt beam="1">  1        2 0.44739461E+00 0.69442045E+03</pdfrwt>
<pdfrwt beam="2">  1       -2 0.69021378E-01 0.69442045E+03</pdfrwt>
<totfact> 0.40945589E+00</totfact>
</mgrwt>
</event>
<event>
 4    5  0.1112901E-007  0.9597104E+03  0.7818608E-02  0.9436278E-01
         -2   -1    0    0    0  501 -0.00000000000E+00  0.00000000000E+00  0.16911560608E+04  0.16911560608E+04  0.25500000000E-02 0.  1.
          2   -1    0    0  501    0  0.00000000000E+00 -0.00000000000E+00 -0.84290022446E+03  0.84290022447E+03  0.25500000000E-02 0. -1.
    8880023    1    1    2    0    0 -0.13687642950E+01 -0.69802003254E+03  0.13532718525E+04  0.16590324748E+04  0.65864270000E+03 0.  1.
    8880022    1    1    2    0    0  0.13687642950E+01  0.69802003254E+03 -0.50501601616E+03  0.87502381050E+03  0.15294330000E+03 0.  0.
<mgrwt>
<rscale>  0 0.89149305E+03</rscale>
<asrwt>0</asrwt>
<pdfrwt beam="1">  1        2 0.12967696E+00 0.95971040E+03</pdfrwt>
<pdfrwt beam="2">  1       -2 0.26017786E+00 0.95971040E+03</pdfrwt>
<totfact> 0.17932175E+00</totfact>
</mgrwt>
</event>
<event>
 4    5  0.1112901E-007  0.9588641E+03  0.7818608E-02  0.9437474E-01
          2   -1    0    0  501    0  0.00000000000E+00  0.00000000000E+00  0.30745567602E+04  0.30745567602E+04  0.25500000000E-02 0. -1.
         -2   -1    0    0    0  501 -0.00000000000E+00 -0.00000000000E+00 -0.57790795964E+03  0.57790795965E+03  0.25500000000E-02 0.  1.
    8880023    1    1    2    0    0 -0.68520059127E+03  0.12692608908E+03 -0.95799537340E+02  0.96363781577E+03  0.65864270000E+03 0.  0.
    8880022    1    1    2    0    0  0.68520059127E+03 -0.12692608908E+03  0.25924483379E+04  0.26888269041E+04  0.15294330000E+03 0.  0.
<mgrwt>
<rscale>  0 0.89054873E+03</rscale>
<asrwt>0</asrwt>
<pdfrwt beam="1">  1        2 0.47300873E+00 0.95886406E+03</pdfrwt>
<pdfrwt beam="2">  1       -2 0.88908917E-01 0.95886406E+03</pdfrwt>
<totfact> 0.17476287E+00</totfact>
</mgrwt>
</event>
<event>
 4    5  0.1112901E-007  0.9995680E+03  0.7818608E-02  0.9382123E-01
          2   -1    0    0  501    0  0.00000000000E+00  0.00000000000E+00  0.85001310450E+03  0.85001310450E+03  0.25500000000E-02 0. -1.
         -2   -1    0    0    0  501 -0.00000000000E+00 -0.00000000000E+00 -0.14385863388E+04  0.14385863388E+04  0.25500000000E-02 0.  1.
    8880023    1    1    2    0    0  0.74712247318E+03 -0.84462827546E+02 -0.10034394898E+04  0.14163428170E+04  0.65864270000E+03 0.  0.
    8880022    1    1    2    0    0 -0.74712247318E+03  0.84462827546E+02  0.41486625553E+03  0.87225662633E+03  0.15294330000E+03 0.  0.
<mgrwt>
<rscale>  0 0.93561599E+03</rscale>
<asrwt>0</asrwt>
<pdfrwt beam="1">  1        2 0.13077125E+00 0.99956799E+03</pdfrwt>
<pdfrwt beam="2">  1       -2 0.22132098E+00 0.99956799E+03</pdfrwt>
<totfact> 0.30592847E+00</totfact>
</mgrwt>
</event>
<event>
 4    5  0.1112901E-007  0.8262852E+03  0.7818608E-02  0.9656604E-01
          2   -1    0    0  501    0  0.00000000000E+00  0.00000000000E+00  0.12185238397E+04  0.12185238397E+04  0.25500000000E-02 0. -1.
         -2   -1    0    0    0  501 -0.00000000000E+00 -0.00000000000E+00 -0.56511498078E+03  0.56511498079E+03  0.25500000000E-02 0.  1.
    8880023    1    1    2    0    0 -0.39975792137E+03  0.29854753612E+03 -0.13592991822E+03  0.83739129202E+03  0.65864270000E+03 0.  0.
    8880022    1    1    2    0    0  0.39975792137E+03 -0.29854753612E+03  0.78933877709E+03  0.94624752842E+03  0.15294330000E+03 0.  0.
<mgrwt>
<rscale>  0 0.73660414E+03</rscale>
<asrwt>0</asrwt>
<pdfrwt beam="1">  1        2 0.18746521E+00 0.82628520E+03</pdfrwt>
<pdfrwt beam="2">  1       -2 0.86940767E-01 0.82628520E+03</pdfrwt>
<totfact> 0.21364442E+01</totfact>
</mgrwt>
</event>
<event>
 4    5  0.1112901E-007  0.1037354E+04  0.7818608E-02  0.9334240E-01
         -2   -1    0    0    0  501 -0.00000000000E+00  0.00000000000E+00  0.28553945474E+04  0.28553945474E+04  0.25500000000E-02 0.  1.
          2   -1    0    0  501    0  0.00000000000E+00 -0.00000000000E+00 -0.48738264638E+03  0.48738264639E+03  0.25500000000E-02 0. -1.
    8880023    1    1    2    0    0 -0.76383570175E+03 -0.24258751265E+03  0.23011312575E+04  0.25241451922E+04  0.65864270000E+03 0.  1.
    8880022    1    1    2    0    0  0.76383570175E+03  0.24258751265E+03  0.66880643473E+02  0.81863200160E+03  0.15294330000E+03 0.  0.
<mgrwt>
<rscale>  0 0.97690864E+03</rscale>
<asrwt>0</asrwt>
<pdfrwt beam="1">  1        2 0.74981944E-01 0.10373543E+04</pdfrwt>
<pdfrwt beam="2">  1       -2 0.43929148E+00 0.10373543E+04</pdfrwt>
<totfact> 0.26331186E-01</totfact>
</mgrwt>
</event>
<event>
 4    5  0.1112901E-007  0.7051273E+03  0.7818608E-02  0.9976561E-01
          2   -1    0    0  501    0  0.00000000000E+00  0.00000000000E+00  0.21773393713E+04  0.21773393713E+04  0.25500000000E-02 0. -1.
         -2   -1    0    0    0  501 -0.00000000000E+00 -0.00000000000E+00 -0.73394957553E+03  0.73394957553E+03  0.25500000000E-02 0.  1.
    8880023    1    1    2    0    0 -0.25054347020E+03  0.24944363648E+02 -0.55123781001E+03  0.89502378806E+03  0.65864270000E+03 0.  1.
    8880022    1    1    2    0    0  0.25054347020E+03 -0.24944363648E+02  0.19946276058E+04  0.20162651588E+04  0.15294330000E+03 0.  0.
<mgrwt>
<rscale>  0 0.56690042E+03</rscale>
<asrwt>0</asrwt>
<pdfrwt beam="1">  1        2 0.33497528E+00 0.70512726E+03</pdfrwt>
<pdfrwt beam="2">  1       -2 0.11291532E+00 0.70512726E+03</pdfrwt>
<totfact> 0.34413741E+00</totfact>
</mgrwt>
</event>
<event>
 4    5  0.1112901E-007  0.7670178E+03  0.7818608E-02  0.9787267E-01
          2   -1    0    0  501    0  0.00000000000E+00  0.00000000000E+00  0.87852643484E+03  0.87852643484E+03  0.25500000000E-02 0. -1.
         -2   -1    0    0    0  501 -0.00000000000E+00 -0.00000000000E+00 -0.82756924890E+03  0.82756924890E+03  0.25500000000E-02 0.  1.
    8880023    1    1    2    0    0  0.57132922450E+01 -0.39303107432E+03 -0.56987035854E+03  0.95554617832E+03  0.65864270000E+03 0.  0.
    8880022    1    1    2    0    0 -0.57132922450E+01  0.39303107432E+03  0.62082754448E+03  0.75054950543E+03  0.15294330000E+03 0.  0.
<mgrwt>
<rscale>  0 0.66050388E+03</rscale>
<asrwt>0</asrwt>
<pdfrwt beam="1">  1        2 0.13515791E+00 0.76701778E+03</pdfrwt>
<pdfrwt beam="2">  1       -2 0.12731835E+00 0.76701778E+03</pdfrwt>
<totfact> 0.14077359E+01</totfact>
</mgrwt>
</event>
<event>
 4    5  0.1112901E-007  0.1018378E+04  0.7818608E-02  0.9357899E-01
         -2   -1    0    0    0  501 -0.00000000000E+00  0.00000000000E+00  0.41934428099E+03  0.41934428099E+03  0.25500000000E-02 0.  1.
          2   -1    0    0  501    0  0.00000000000E+00 -0.00000000000E+00 -0.30212405228E+04  0.30212405228E+04  0.25500000000E-02 0. -1.
    8880023    1    1    2    0    0 -0.34868032542E+03 -0.69405012139E+03 -0.38864163713E+03  0.10900165452E+04  0.65864270000E+03 0.  0.
    8880022    1    1    2    0    0  0.34868032542E+03  0.69405012139E+03 -0.22132546047E+04  0.23505682586E+04  0.15294330000E+03 0.  0.
<mgrwt>
<rscale>  0 0.95622935E+03</rscale>
<asrwt>0</asrwt>
<pdfrwt beam="1">  1        2 0.46480622E+00 0.10183780E+04</pdfrwt>
<pdfrwt beam="2">  1       -2 0.64514507E-01 0.10183780E+04</pdfrwt>
<totfact> 0.38218566E+00</totfact>
</mgrwt>
</event>
<event>
 4    5  0.1112901E-007  0.1956564E+04  0.7818608E-02  0.8640542E-01
         -2   -1    0    0    0  501 -0.00000000000E+00  0.00000000000E+00  0.24037722949E+04  0.24037722949E+04  0.25500000000E-02 0.  1.
          2   -1    0    0  501    0  0.00000000000E+00 -0.00000000000E+00 -0.20826639653E+04  0.20826639653E+04  0.25500000000E-02 0. -1.
    8880023    1    1    2    0    0 -0.18389589599E+04 -0.11208726179E+03  0.13439091596E+04  0.23736544917E+04  0.65864270000E+03 0.  0.
    8880022    1    1    2    0    0  0.18389589599E+04  0.11208726179E+03 -0.10228008300E+04  0.21127817685E+04  0.15294330000E+03 0.  0.
<mgrwt>
<rscale>  0 0.19290245E+04</rscale>
<asrwt>0</asrwt>
<pdfrwt beam="1">  1        2 0.32040984E+00 0.19565643E+04</pdfrwt>
<pdfrwt beam="2">  1       -2 0.36981112E+00 0.19565643E+04</pdfrwt>
<totfact> 0.62304176E-02</totfact>
</mgrwt>
</event>
<event>
 4    5  0.1112901E-007  0.1011561E+04  0.7818608E-02  0.9366586E-01
         -2   -1    0    0    0  501 -0.00000000000E+00  0.00000000000E+00  0.13242318832E+04  0.13242318832E+04  0.25500000000E-02 0.  1.
          2   -1    0    0  501    0  0.00000000000E+00 -0.00000000000E+00 -0.78893561917E+03  0.78893561918E+03  0.25500000000E-02 0. -1.
    8880023    1    1    2    0    0  0.76272546546E+03  0.87722630177E+02  0.79692407371E+03  0.12877668970E+04  0.65864270000E+03 0.  1.
    8880022    1    1    2    0    0 -0.76272546546E+03 -0.87722630177E+02 -0.26162780970E+03  0.82540060536E+03  0.15294330000E+03 0.  0.
<mgrwt>
<rscale>  0 0.94877269E+03</rscale>
<asrwt>0</asrwt>
<pdfrwt beam="1">  1        2 0.12137471E+00 0.10115610E+04</pdfrwt>
<pdfrwt beam="2">  1       -2 0.20372798E+00 0.10115610E+04</pdfrwt>
<totfact> 0.43767075E+00</totfact>
</mgrwt>
</event>
<event>
 4    5  0.1112901E-007  0.8121857E+03  0.7818608E-02  0.9685042E-01
          2   -1    0    0  501    0  0.00000000000E+00  0.00000000000E+00  0.36970850936E+04  0.36970850936E+04  0.25500000000E-02 0. -1.
         -2   -1    0    0    0  501 -0.00000000000E+00 -0.00000000000E+00 -0.43708865200E+03  0.43708865200E+03  0.25500000000E-02 0.  1.
    8880023    1    1    2    0    0 -0.32170952073E+03 -0.34976899538E+03 -0.23909781244E+02  0.81253753745E+03  0.65864270000E+03 0.  1.
    8880022    1    1    2    0    0  0.32170952073E+03  0.34976899538E+03  0.32839062229E+04  0.33216362082E+04  0.15294330000E+03 0.  0.
<mgrwt>
<rscale>  0 0.71914404E+03</rscale>
<asrwt>0</asrwt>
<pdfrwt beam="1">  1        2 0.56878234E+00 0.81218568E+03</pdfrwt>
<pdfrwt beam="2">  1       -2 0.67244406E-01 0.81218568E+03</pdfrwt>
<totfact> 0.12873012E+00</totfact>
</mgrwt>
</event>
<event>
 4    5  0.1112901E-007  0.6696885E+03  0.7818608E-02  0.1015887E+00
         -2   -1    0    0    0  501 -0.00000000000E+00  0.00000000000E+00  0.55746901162E+03  0.55746901162E+03  0.25500000000E-02 0.  1.
          2   -1    0    0  501    0  0.00000000000E+00 -0.00000000000E+00 -0.47926277138E+03  0.47926277138E+03  0.25500000000E-02 0. -1.
    8880023    1    1    2    0    0  0.11638401862E+03 -0.33574055840E+02  0.30644332448E+03  0.73647143488E+03  0.65864270000E+03 0.  1.
    8880022    1    1    2    0    0 -0.11638401862E+03  0.33574055840E+02 -0.22823708425E+03  0.30026034812E+03  0.15294330000E+03 0.  0.
<mgrwt>
<rscale>  0 0.49200451E+03</rscale>
<asrwt>0</asrwt>
<pdfrwt beam="1">  1        2 0.73732734E-01 0.66968848E+03</pdfrwt>
<pdfrwt beam="2">  1       -2 0.85764464E-01 0.66968848E+03</pdfrwt>
<totfact> 0.77592640E+01</totfact>
</mgrwt>
</event>
<event>
 4    5  0.1112901E-007  0.1049890E+04  0.7818608E-02  0.9319013E-01
         -2   -1    0    0    0  501 -0.00000000000E+00  0.00000000000E+00  0.10356511436E+04  0.10356511437E+04  0.25500000000E-02 0.  1.
          2   -1    0    0  501    0  0.00000000000E+00 -0.00000000000E+00 -0.14221215494E+04  0.14221215494E+04  0.25500000000E-02 0. -1.
    8880023    1    1    2    0    0  0.26148458250E+03  0.77465178886E+03 -0.97979954448E+03  0.14360629981E+04  0.65864270000E+03 0. -1.
    8880022    1    1    2    0    0 -0.26148458250E+03 -0.77465178886E+03  0.59332913874E+03  0.10217096950E+04  0.15294330000E+03 0.  0.
<mgrwt>
<rscale>  0 0.99051157E+03</rscale>
<asrwt>0</asrwt>
<pdfrwt beam="1">  1        2 0.21878793E+00 0.10498904E+04</pdfrwt>
<pdfrwt beam="2">  1       -2 0.15933095E+00 0.10498904E+04</pdfrwt>
<totfact> 0.35326585E+00</totfact>
</mgrwt>
</event>
<event>
 4    5  0.1112901E-007  0.6843086E+03  0.7818608E-02  0.1006984E+00
         -2   -1    0    0    0  501 -0.00000000000E+00  0.00000000000E+00  0.19781371126E+03  0.19781371127E+03  0.25500000000E-02 0.  1.
          2   -1    0    0  501    0  0.00000000000E+00 -0.00000000000E+00 -0.18148325575E+04  0.18148325575E+04  0.25500000000E-02 0. -1.
    8880023    1    1    2    0    0 -0.13358474648E+03 -0.12893065187E+03 -0.44517431167E+03  0.81636901675E+03  0.65864270000E+03 0.  0.
    8880022    1    1    2    0    0  0.13358474648E+03  0.12893065187E+03 -0.11718445346E+04  0.11962772520E+04  0.15294330000E+03 0.  0.
<mgrwt>
<rscale>  0 0.52690941E+03</rscale>
<asrwt>0</asrwt>
<pdfrwt beam="1">  1        2 0.27920500E+00 0.68430856E+03</pdfrwt>
<pdfrwt beam="2">  1       -2 0.30432880E-01 0.68430856E+03</pdfrwt>
<totfact> 0.87114157E+01</totfact>
</mgrwt>
</event>
<event>
 4    5  0.1112901E-007  0.1057694E+04  0.7818608E-02  0.9309689E-01
         -2   -1    0    0    0  501 -0.00000000000E+00  0.00000000000E+00  0.71579622428E+03  0.71579622428E+03  0.25500000000E-02 0.  1.
          2   -1    0    0  501    0  0.00000000000E+00 -0.00000000000E+00 -0.16153280227E+04  0.16153280227E+04  0.25500000000E-02 0. -1.
    8880023    1    1    2    0    0 -0.60050244718E+03 -0.56947681633E+03  0.54292357424E+02  0.10590868235E+04  0.65864270000E+03 0. -1.
    8880022    1    1    2    0    0  0.60050244718E+03  0.56947681633E+03 -0.95382415584E+03  0.12720374235E+04  0.15294330000E+03 0.  0.
<mgrwt>
<rscale>  0 0.99895788E+03</rscale>
<asrwt>0</asrwt>
<pdfrwt beam="1">  1        2 0.24851200E+00 0.10576943E+04</pdfrwt>
<pdfrwt beam="2">  1       -2 0.11012250E+00 0.10576943E+04</pdfrwt>
<totfact> 0.70894982E+00</totfact>
</mgrwt>
</event>
<event>
 4    5  0.1112901E-007  0.1007527E+04  0.7818608E-02  0.9371775E-01
         -2   -1    0    0    0  501 -0.00000000000E+00  0.00000000000E+00  0.12931440594E+04  0.12931440594E+04  0.25500000000E-02 0.  1.
          2   -1    0    0  501    0  0.00000000000E+00 -0.00000000000E+00 -0.66190305769E+03  0.66190305770E+03  0.25500000000E-02 0. -1.
    8880023    1    1    2    0    0 -0.75691151219E+03  0.91576046024E+02  0.98264072712E+02  0.10123078799E+04  0.65864270000E+03 0.  0.
    8880022    1    1    2    0    0  0.75691151219E+03 -0.91576046024E+02  0.53297692903E+03  0.94273923722E+03  0.15294330000E+03 0.  0.
<mgrwt>
<rscale>  0 0.94435329E+03</rscale>
<asrwt>0</asrwt>
<pdfrwt beam="1">  1        2 0.10183124E+00 0.10075274E+04</pdfrwt>
<pdfrwt beam="2">  1       -2 0.19894524E+00 0.10075274E+04</pdfrwt>
<totfact> 0.58995799E+00</totfact>
</mgrwt>
</event>
<event>
 4    5  0.1112901E-007  0.1787298E+04  0.7818608E-02  0.8729595E-01
         -2   -1    0    0    0  501 -0.00000000000E+00  0.00000000000E+00  0.17361468225E+04  0.17361468225E+04  0.25500000000E-02 0.  1.
          2   -1    0    0  501    0  0.00000000000E+00 -0.00000000000E+00 -0.25209206060E+04  0.25209206060E+04  0.25500000000E-02 0. -1.
    8880023    1    1    2    0    0  0.11566334577E+04  0.11928215170E+04  0.79789860825E+03  0.19573135984E+04  0.65864270000E+03 0.  1.
    8880022    1    1    2    0    0 -0.11566334577E+04 -0.11928215170E+04 -0.15826723917E+04  0.22997538302E+04  0.15294330000E+03 0.  0.
<mgrwt>
<rscale>  0 0.17568379E+04</rscale>
<asrwt>0</asrwt>
<pdfrwt beam="1">  1        2 0.38783394E+00 0.17872981E+04</pdfrwt>
<pdfrwt beam="2">  1       -2 0.26709951E+00 0.17872981E+04</pdfrwt>
<totfact> 0.15506906E-01</totfact>
</mgrwt>
</event>
<event>
 4    5  0.1112901E-007  0.9604421E+03  0.7818608E-02  0.9435247E-01
          2   -1    0    0  501    0  0.00000000000E+00  0.00000000000E+00  0.23187476621E+04  0.23187476621E+04  0.25500000000E-02 0. -1.
         -2   -1    0    0    0  501 -0.00000000000E+00 -0.00000000000E+00 -0.10788594607E+04  0.10788594607E+04  0.25500000000E-02 0.  1.
    8880023    1    1    2    0    0  0.63777579002E+03  0.28614824848E+03 -0.79106738032E+03  0.12442815537E+04  0.65864270000E+03 0.  0.
    8880022    1    1    2    0    0 -0.63777579002E+03 -0.28614824848E+03  0.20309555817E+04  0.21533255690E+04  0.15294330000E+03 0.  0.
<mgrwt>
<rscale>  0 0.89230917E+03</rscale>
<asrwt>0</asrwt>
<pdfrwt beam="1">  1        2 0.35673041E+00 0.96044208E+03</pdfrwt>
<pdfrwt beam="2">  1       -2 0.16597838E+00 0.96044208E+03</pdfrwt>
<totfact> 0.10163464E+00</totfact>
</mgrwt>
</event>
<event>
 4    5  0.1112901E-007  0.9646134E+03  0.7818608E-02  0.9429393E-01
         -2   -1    0    0    0  501 -0.00000000000E+00  0.00000000000E+00  0.11328139282E+04  0.11328139282E+04  0.25500000000E-02 0.  1.
          2   -1    0    0  501    0  0.00000000000E+00 -0.00000000000E+00 -0.71554157509E+03  0.71554157510E+03  0.25500000000E-02 0. -1.
    8880023    1    1    2    0    0  0.67137692404E+03  0.21429366083E+03  0.55687228065E+03  0.11138158243E+04  0.65864270000E+03 0.  0.
    8880022    1    1    2    0    0 -0.67137692404E+03 -0.21429366083E+03 -0.13959992758E+03  0.73453967898E+03  0.15294330000E+03 0.  0.
<mgrwt>
<rscale>  0 0.89695712E+03</rscale>
<asrwt>0</asrwt>
<pdfrwt beam="1">  1        2 0.11008332E+00 0.96461337E+03</pdfrwt>
<pdfrwt beam="2">  1       -2 0.17427907E+00 0.96461337E+03</pdfrwt>
<totfact> 0.78850305E+00</totfact>
</mgrwt>
</event>
<event>
 4    5  0.1112901E-007  0.1275901E+04  0.7818608E-02  0.9086655E-01
          2   -1    0    0  501    0  0.00000000000E+00  0.00000000000E+00  0.29420190660E+04  0.29420190660E+04  0.25500000000E-02 0. -1.
         -2   -1    0    0    0  501 -0.00000000000E+00 -0.00000000000E+00 -0.55290697440E+03  0.55290697441E+03  0.25500000000E-02 0.  1.
    8880023    1    1    2    0    0  0.10920239713E+04  0.39952308841E+02  0.64140645063E+03  0.14280493626E+04  0.65864270000E+03 0.  1.
    8880022    1    1    2    0    0 -0.10920239713E+04 -0.39952308841E+02  0.17477056410E+04  0.20668766779E+04  0.15294330000E+03 0.  0.
<mgrwt>
<rscale>  0 0.12304004E+04</rscale>
<asrwt>0</asrwt>
<pdfrwt beam="1">  1        2 0.45261832E+00 0.12759008E+04</pdfrwt>
<pdfrwt beam="2">  1       -2 0.85062611E-01 0.12759008E+04</pdfrwt>
<totfact> 0.22368403E+00</totfact>
</mgrwt>
</event>
<event>
 4    5  0.1112901E-007  0.1415850E+04  0.7818608E-02  0.8971464E-01
          2   -1    0    0  501    0  0.00000000000E+00  0.00000000000E+00  0.20364709369E+04  0.20364709369E+04  0.25500000000E-02 0. -1.
         -2   -1    0    0    0  501 -0.00000000000E+00 -0.00000000000E+00 -0.13461619629E+04  0.13461619629E+04  0.25500000000E-02 0.  1.
    8880023    1    1    2    0    0  0.86524063179E+03 -0.90674053514E+03 -0.63537668692E+03  0.15518806299E+04  0.65864270000E+03 0.  0.
    8880022    1    1    2    0    0 -0.86524063179E+03  0.90674053514E+03  0.13256856609E+04  0.18307522699E+04  0.15294330000E+03 0. -1.
<mgrwt>
<rscale>  0 0.13758816E+04</rscale>
<asrwt>0</asrwt>
<pdfrwt beam="1">  1        2 0.31330322E+00 0.14158496E+04</pdfrwt>
<pdfrwt beam="2">  1       -2 0.20710184E+00 0.14158496E+04</pdfrwt>
<totfact> 0.72201181E-01</totfact>
</mgrwt>
</event>
<event>
 4    5  0.1112901E-007  0.9079976E+03  0.7818608E-02  0.9513313E-01
          2   -1    0    0  501    0  0.00000000000E+00  0.00000000000E+00  0.23961433068E+04  0.23961433068E+04  0.25500000000E-02 0. -1.
         -2   -1    0    0    0  501 -0.00000000000E+00 -0.00000000000E+00 -0.42719259963E+03  0.42719259964E+03  0.25500000000E-02 0.  1.
    8880023    1    1    2    0    0  0.34336040175E+02 -0.62407567862E+03  0.18468442990E+03  0.92658942429E+03  0.65864270000E+03 0.  0.
    8880022    1    1    2    0    0 -0.34336040175E+02  0.62407567862E+03  0.17842662773E+04  0.18967464821E+04  0.15294330000E+03 0.  0.
<mgrwt>
<rscale>  0 0.83309389E+03</rscale>
<asrwt>0</asrwt>
<pdfrwt beam="1">  1        2 0.36863744E+00 0.90799759E+03</pdfrwt>
<pdfrwt beam="2">  1       -2 0.65721937E-01 0.90799759E+03</pdfrwt>
<totfact> 0.87012657E+00</totfact>
</mgrwt>
</event>
<event>
 4    5  0.1112901E-007  0.1021521E+04  0.7818608E-02  0.9353928E-01
         -2   -1    0    0    0  501 -0.00000000000E+00  0.00000000000E+00  0.86522978298E+03  0.86522978298E+03  0.25500000000E-02 0.  1.
          2   -1    0    0  501    0  0.00000000000E+00 -0.00000000000E+00 -0.12016695911E+04  0.12016695911E+04  0.25500000000E-02 0. -1.
    8880023    1    1    2    0    0  0.14894179653E+03  0.76649299877E+03  0.28134182231E+03  0.10595558518E+04  0.65864270000E+03 0.  0.
    8880022    1    1    2    0    0 -0.14894179653E+03 -0.76649299877E+03 -0.61778163044E+03  0.10073435223E+04  0.15294330000E+03 0.  0.
<mgrwt>
<rscale>  0 0.95966227E+03</rscale>
<asrwt>0</asrwt>
<pdfrwt beam="1">  1        2 0.18487225E+00 0.10215211E+04</pdfrwt>
<pdfrwt beam="2">  1       -2 0.13311227E+00 0.10215211E+04</pdfrwt>
<totfact> 0.76501357E+00</totfact>
</mgrwt>
</event>
<event>
 4    5  0.1112901E-007  0.9621370E+03  0.7818608E-02  0.9432862E-01
          2   -1    0    0  501    0  0.00000000000E+00  0.00000000000E+00  0.36404434519E+04  0.36404434519E+04  0.25500000000E-02 0. -1.
         -2   -1    0    0    0  501 -0.00000000000E+00 -0.00000000000E+00 -0.23369218082E+03  0.23369218084E+03  0.25500000000E-02 0.  1.
    8880023    1    1    2    0    0  0.65700475280E+03  0.24544281199E+03  0.11156996917E+04  0.14732594570E+04  0.65864270000E+03 0.  0.
    8880022    1    1    2    0    0 -0.65700475280E+03 -0.24544281199E+03  0.22910515794E+04  0.24008761758E+04  0.15294330000E+03 0.  0.
<mgrwt>
<rscale>  0 0.89419875E+03</rscale>
<asrwt>0</asrwt>
<pdfrwt beam="1">  1        2 0.56006819E+00 0.96213701E+03</pdfrwt>
<pdfrwt beam="2">  1       -2 0.35952645E-01 0.96213701E+03</pdfrwt>
<totfact> 0.49196913E+00</totfact>
</mgrwt>
</event>
<event>
 4    5  0.1112901E-007  0.7432819E+03  0.7818608E-02  0.9850488E-01
         -2   -1    0    0    0  501 -0.00000000000E+00  0.00000000000E+00  0.41007647495E+03  0.41007647496E+03  0.25500000000E-02 0.  1.
          2   -1    0    0  501    0  0.00000000000E+00 -0.00000000000E+00 -0.12786146168E+04  0.12786146168E+04  0.25500000000E-02 0. -1.
    8880023    1    1    2    0    0  0.29305295293E+03 -0.18104626917E+03 -0.15051493376E+01  0.74328342948E+03  0.65864270000E+03 0.  1.
    8880022    1    1    2    0    0 -0.29305295293E+03  0.18104626917E+03 -0.86703299253E+03  0.94540766231E+03  0.15294330000E+03 0.  0.
<mgrwt>
<rscale>  0 0.62722031E+03</rscale>
<asrwt>0</asrwt>
<pdfrwt beam="1">  1        2 0.19670994E+00 0.74328191E+03</pdfrwt>
<pdfrwt beam="2">  1       -2 0.63088689E-01 0.74328191E+03</pdfrwt>
<totfact> 0.40391983E+01</totfact>
</mgrwt>
</event>
<event>
 4    5  0.1112901E-007  0.8464530E+03  0.7818608E-02  0.9618131E-01
         -2   -1    0    0    0  501 -0.00000000000E+00  0.00000000000E+00  0.16838812945E+04  0.16838812945E+04  0.25500000000E-02 0.  1.
          2   -1    0    0  501    0  0.00000000000E+00 -0.00000000000E+00 -0.37827756518E+03  0.37827756519E+03  0.25500000000E-02 0. -1.
    8880023    1    1    2    0    0  0.52970799139E+03 -0.45627600129E+02  0.12451757796E+04  0.15056378590E+04  0.65864270000E+03 0.  0.
    8880022    1    1    2    0    0 -0.52970799139E+03  0.45627600129E+02  0.60427949635E+02  0.55652100064E+03  0.15294330000E+03 0.  0.
<mgrwt>
<rscale>  0 0.76107713E+03</rscale>
<asrwt>0</asrwt>
<pdfrwt beam="1">  1        2 0.58196550E-01 0.84645298E+03</pdfrwt>
<pdfrwt beam="2">  1       -2 0.25905866E+00 0.84645298E+03</pdfrwt>
<totfact> 0.48767042E+00</totfact>
</mgrwt>
</event>
<event>
 4    5  0.1112901E-007  0.6682418E+03  0.7818608E-02  0.1016956E+00
          2   -1    0    0  501    0  0.00000000000E+00  0.00000000000E+00  0.23508151070E+04  0.23508151070E+04  0.25500000000E-02 0. -1.
         -2   -1    0    0    0  501 -0.00000000000E+00 -0.00000000000E+00 -0.15033175516E+03  0.15033175518E+03  0.25500000000E-02 0.  1.
    8880023    1    1    2    0    0  0.64470786790E+02 -0.92630809613E+02  0.62736901066E+03  0.91659098351E+03  0.65864270000E+03 0.  0.
    8880022    1    1    2    0    0 -0.64470786790E+02  0.92630809613E+02  0.15731143412E+04  0.15845558787E+04  0.15294330000E+03 0. -1.
<mgrwt>
<rscale>  0 0.48801328E+03</rscale>
<asrwt>0</asrwt>
<pdfrwt beam="1">  1        2 0.36166386E+00 0.66824184E+03</pdfrwt>
<pdfrwt beam="2">  1       -2 0.23127963E-01 0.66824184E+03</pdfrwt>
<totfact> 0.73194808E+01</totfact>
</mgrwt>
</event>
<event>
 4    5  0.1112901E-007  0.1800318E+04  0.7818608E-02  0.8722360E-01
         -2   -1    0    0    0  501 -0.00000000000E+00  0.00000000000E+00  0.25929751823E+04  0.25929751823E+04  0.25500000000E-02 0.  1.
          2   -1    0    0  501    0  0.00000000000E+00 -0.00000000000E+00 -0.13473086953E+04  0.13473086953E+04  0.25500000000E-02 0. -1.
    8880023    1    1    2    0    0  0.85395242686E+03 -0.14415620040E+04 -0.74249190528E+02  0.18018487471E+04  0.65864270000E+03 0.  0.
    8880022    1    1    2    0    0 -0.85395242686E+03  0.14415620040E+04  0.13199156775E+04  0.21384351305E+04  0.15294330000E+03 0.  0.
<mgrwt>
<rscale>  0 0.17701058E+04</rscale>
<asrwt>0</asrwt>
<pdfrwt beam="1">  1        2 0.20727826E+00 0.18003183E+04</pdfrwt>
<pdfrwt beam="2">  1       -2 0.39891925E+00 0.18003183E+04</pdfrwt>
<totfact> 0.10699440E-01</totfact>
</mgrwt>
</event>
<event>
 4    5  0.1112901E-007  0.6736072E+03  0.7818608E-02  0.1013199E+00
         -2   -1    0    0    0  501 -0.00000000000E+00  0.00000000000E+00  0.10681274698E+03  0.10681274701E+03  0.25500000000E-02 0.  1.
          2   -1    0    0  501    0  0.00000000000E+00 -0.00000000000E+00 -0.18703848199E+04  0.18703848199E+04  0.25500000000E-02 0. -1.
    8880023    1    1    2    0    0  0.13601899705E+03  0.37884759240E+02 -0.14734888869E+04  0.16201592912E+04  0.65864270000E+03 0. -1.
    8880022    1    1    2    0    0 -0.13601899705E+03 -0.37884759240E+02 -0.29008318598E+03  0.35703827574E+03  0.15294330000E+03 0.  1.
<mgrwt>
<rscale>  0 0.50222833E+03</rscale>
<asrwt>0</asrwt>
<pdfrwt beam="1">  1        2 0.28775149E+00 0.67360718E+03</pdfrwt>
<pdfrwt beam="2">  1       -2 0.16432732E-01 0.67360718E+03</pdfrwt>
<totfact> 0.24305045E+02</totfact>
</mgrwt>
</event>
<event>
 4    5  0.1112901E-007  0.1285887E+04  0.7818608E-02  0.9077844E-01
          2   -1    0    0  501    0  0.00000000000E+00  0.00000000000E+00  0.10631983034E+04  0.10631983034E+04  0.25500000000E-02 0. -1.
         -2   -1    0    0    0  501 -0.00000000000E+00 -0.00000000000E+00 -0.21949489420E+04  0.21949489420E+04  0.25500000000E-02 0.  1.
    8880023    1    1    2    0    0  0.10098067311E+04  0.44719759206E+03 -0.15967305584E+04  0.20501351182E+04  0.65864270000E+03 0.  0.
    8880022    1    1    2    0    0 -0.10098067311E+04 -0.44719759206E+03  0.46497991977E+03  0.12080121272E+04  0.15294330000E+03 0.  0.
<mgrwt>
<rscale>  0 0.12408372E+04</rscale>
<asrwt>0</asrwt>
<pdfrwt beam="1">  1        2 0.16356897E+00 0.12858871E+04</pdfrwt>
<pdfrwt beam="2">  1       -2 0.33768445E+00 0.12858871E+04</pdfrwt>
<totfact> 0.41438216E-01</totfact>
</mgrwt>
</event>
<event>
 4    5  0.1112901E-007  0.1010060E+04  0.7818608E-02  0.9368513E-01
          2   -1    0    0  501    0  0.00000000000E+00  0.00000000000E+00  0.38198420591E+04  0.38198420591E+04  0.25500000000E-02 0. -1.
         -2   -1    0    0    0  501 -0.00000000000E+00 -0.00000000000E+00 -0.28082773398E+03  0.28082773400E+03  0.25500000000E-02 0.  1.
    8880023    1    1    2    0    0  0.73618404118E+03 -0.21081809453E+03  0.91485381453E+03  0.13627835190E+04  0.65864270000E+03 0.  1.
    8880022    1    1    2    0    0 -0.73618404118E+03  0.21081809453E+03  0.26241605106E+04  0.27378862740E+04  0.15294330000E+03 0.  0.
<mgrwt>
<rscale>  0 0.94712892E+03</rscale>
<asrwt>0</asrwt>
<pdfrwt beam="1">  1        2 0.58766802E+00 0.10100601E+04</pdfrwt>
<pdfrwt beam="2">  1       -2 0.43204266E-01 0.10100601E+04</pdfrwt>
<totfact> 0.25205582E+00</totfact>
</mgrwt>
</event>
<event>
 4    5  0.1112901E-007  0.1125686E+04  0.7818608E-02  0.9232983E-01
          2   -1    0    0  501    0  0.00000000000E+00  0.00000000000E+00  0.14756653145E+04  0.14756653145E+04  0.25500000000E-02 0. -1.
         -2   -1    0    0    0  501 -0.00000000000E+00 -0.00000000000E+00 -0.15195994728E+04  0.15195994728E+04  0.25500000000E-02 0.  1.
    8880023    1    1    2    0    0 -0.61859543900E+03  0.67134051576E+03 -0.11117379026E+04  0.15821282425E+04  0.65864270000E+03 0.  0.
    8880022    1    1    2    0    0  0.61859543900E+03 -0.67134051576E+03  0.10678037442E+04  0.14131365449E+04  0.15294330000E+03 0.  0.
<mgrwt>
<rscale>  0 0.10719380E+04</rscale>
<asrwt>0</asrwt>
<pdfrwt beam="1">  1        2 0.22702543E+00 0.11256858E+04</pdfrwt>
<pdfrwt beam="2">  1       -2 0.23378453E+00 0.11256858E+04</pdfrwt>
<totfact> 0.10393333E+00</totfact>
</mgrwt>
</event>
<event>
 4    5  0.1112901E-007  0.7240258E+03  0.7818608E-02  0.9909192E-01
          2   -1    0    0  501    0  0.00000000000E+00  0.00000000000E+00  0.10745012881E+04  0.10745012881E+04  0.25500000000E-02 0. -1.
         -2   -1    0    0    0  501 -0.00000000000E+00 -0.00000000000E+00 -0.28322368785E+03  0.28322368786E+03  0.25500000000E-02 0.  1.
    8880023    1    1    2    0    0 -0.17870632645E+03 -0.24179985471E+03  0.70268745238E+03  0.10089514274E+04  0.65864270000E+03 0. -1.
    8880022    1    1    2    0    0  0.17870632645E+03  0.24179985471E+03  0.88590147839E+02  0.34877354854E+03  0.15294330000E+03 0.  0.
<mgrwt>
<rscale>  0 0.59817852E+03</rscale>
<asrwt>0</asrwt>
<pdfrwt beam="1">  1        2 0.16530789E+00 0.72402578E+03</pdfrwt>
<pdfrwt beam="2">  1       -2 0.43572874E-01 0.72402578E+03</pdfrwt>
<totfact> 0.11459253E+02</totfact>
</mgrwt>
</event>
<event>
 4    5  0.1112901E-007  0.8844795E+03  0.7818608E-02  0.9551421E-01
          2   -1    0    0  501    0  0.00000000000E+00  0.00000000000E+00  0.16317631876E+04  0.16317631876E+04  0.25500000000E-02 0. -1.
         -2   -1    0    0    0  501 -0.00000000000E+00 -0.00000000000E+00 -0.77089477385E+03  0.77089477385E+03  0.25500000000E-02 0.  1.
    8880023    1    1    2    0    0  0.27465215620E+03  0.52255138278E+03 -0.42366996832E+03  0.98071412903E+03  0.65864270000E+03 0.  0.
    8880022    1    1    2    0    0 -0.27465215620E+03 -0.52255138278E+03  0.12845383821E+04  0.14219438325E+04  0.15294330000E+03 0.  0.
<mgrwt>
<rscale>  0 0.80596645E+03</rscale>
<asrwt>0</asrwt>
<pdfrwt beam="1">  1        2 0.25104049E+00 0.88447949E+03</pdfrwt>
<pdfrwt beam="2">  1       -2 0.11859920E+00 0.88447949E+03</pdfrwt>
<totfact> 0.59042430E+00</totfact>
</mgrwt>
</event>
<event>
 4    5  0.1112901E-007  0.7241116E+03  0.7818608E-02  0.9908912E-01
         -2   -1    0    0    0  501 -0.00000000000E+00  0.00000000000E+00  0.62624018670E+03  0.62624018671E+03  0.25500000000E-02 0.  1.
          2   -1    0    0  501    0  0.00000000000E+00 -0.00000000000E+00 -0.33421112828E+04  0.33421112828E+04  0.25500000000E-02 0. -1.
    8880023    1    1    2    0    0 -0.22081470796E+03  0.20437272260E+03  0.40473425332E+03  0.82954648276E+03  0.65864270000E+03 0.  1.
    8880022    1    1    2    0    0  0.22081470796E+03 -0.20437272260E+03 -0.31206053494E+04  0.31388049867E+04  0.15294330000E+03 0.  0.
<mgrwt>
<rscale>  0 0.59831326E+03</rscale>
<asrwt>0</asrwt>
<pdfrwt beam="1">  1        2 0.51417096E+00 0.72411156E+03</pdfrwt>
<pdfrwt beam="2">  1       -2 0.96344646E-01 0.72411156E+03</pdfrwt>
<totfact> 0.10242554E+00</totfact>
</mgrwt>
</event>
<event>
 4    5  0.1112901E-007  0.7959095E+03  0.7818608E-02  0.9719711E-01
          2   -1    0    0  501    0  0.00000000000E+00  0.00000000000E+00  0.15745209387E+04  0.15745209387E+04  0.25500000000E-02 0. -1.
         -2   -1    0    0    0  501 -0.00000000000E+00 -0.00000000000E+00 -0.83850977692E+03  0.83850977692E+03  0.25500000000E-02 0.  1.
    8880023    1    1    2    0    0 -0.32833683826E+03 -0.30307854989E+03 -0.59952629096E+03  0.99644551612E+03  0.65864270000E+03 0.  0.
    8880022    1    1    2    0    0  0.32833683826E+03  0.30307854989E+03  0.13355374527E+04  0.14165851995E+04  0.15294330000E+03 0.  0.
<mgrwt>
<rscale>  0 0.69855217E+03</rscale>
<asrwt>0</asrwt>
<pdfrwt beam="1">  1        2 0.24223399E+00 0.79590948E+03</pdfrwt>
<pdfrwt beam="2">  1       -2 0.12900151E+00 0.79590948E+03</pdfrwt>
<totfact> 0.52060989E+00</totfact>
</mgrwt>
</event>
<event>
 4    5  0.1112901E-007  0.1264400E+04  0.7818608E-02  0.9096929E-01
          2   -1    0    0  501    0  0.00000000000E+00  0.00000000000E+00  0.13123261979E+04  0.13123261979E+04  0.25500000000E-02 0. -1.
         -2   -1    0    0    0  501 -0.00000000000E+00 -0.00000000000E+00 -0.11785289859E+04  0.11785289859E+04  0.25500000000E-02 0.  1.
    8880023    1    1    2    0    0  0.19894635663E+03 -0.10608101045E+04 -0.32914484119E+03  0.13065390401E+04  0.65864270000E+03 0.  0.
    8880022    1    1    2    0    0 -0.19894635663E+03  0.10608101045E+04  0.46294205314E+03  0.11843161437E+04  0.15294330000E+03 0.  0.
<mgrwt>
<rscale>  0 0.12183686E+04</rscale>
<asrwt>0</asrwt>
<pdfrwt beam="1">  1        2 0.20189634E+00 0.12644002E+04</pdfrwt>
<pdfrwt beam="2">  1       -2 0.18131215E+00 0.12644002E+04</pdfrwt>
<totfact> 0.27861225E+00</totfact>
</mgrwt>
</event>
<event>
 4    5  0.1112901E-007  0.1052677E+04  0.7818608E-02  0.9315671E-01
          2   -1    0    0  501    0  0.00000000000E+00  0.00000000000E+00  0.14273629240E+04  0.14273629240E+04  0.25500000000E-02 0. -1.
         -2   -1    0    0    0  501 -0.00000000000E+00 -0.00000000000E+00 -0.10909436805E+04  0.10909436805E+04  0.25500000000E-02 0.  1.
    8880023    1    1    2    0    0 -0.12372756991E+03 -0.81179380449E+03 -0.64108817143E+03  0.12325266498E+04  0.65864270000E+03 0.  0.
    8880022    1    1    2    0    0  0.12372756991E+03  0.81179380449E+03  0.97750741500E+03  0.12857799547E+04  0.15294330000E+03 0.  0.
<mgrwt>
<rscale>  0 0.99352895E+03</rscale>
<asrwt>0</asrwt>
<pdfrwt beam="1">  1        2 0.21959429E+00 0.10526765E+04</pdfrwt>
<pdfrwt beam="2">  1       -2 0.16783749E+00 0.10526765E+04</pdfrwt>
<totfact> 0.30399310E+00</totfact>
</mgrwt>
</event>
<event>
 4    5  0.1112901E-007  0.6786895E+03  0.7818608E-02  0.1010075E+00
         -2   -1    0    0    0  501 -0.00000000000E+00  0.00000000000E+00  0.36853001947E+03  0.36853001948E+03  0.25500000000E-02 0.  1.
          2   -1    0    0  501    0  0.00000000000E+00 -0.00000000000E+00 -0.81046889579E+03  0.81046889579E+03  0.25500000000E-02 0. -1.
    8880023    1    1    2    0    0 -0.78286838976E+02  0.14380659704E+03  0.53724945073E+01  0.67871071634E+03  0.65864270000E+03 0.  1.
    8880022    1    1    2    0    0  0.78286838976E+02 -0.14380659704E+03 -0.44731137083E+03  0.50028819894E+03  0.15294330000E+03 0.  0.
<mgrwt>
<rscale>  0 0.51444882E+03</rscale>
<asrwt>0</asrwt>
<pdfrwt beam="1">  1        2 0.12468752E+00 0.67868945E+03</pdfrwt>
<pdfrwt beam="2">  1       -2 0.56696926E-01 0.67868945E+03</pdfrwt>
<totfact> 0.10049629E+02</totfact>
</mgrwt>
</event>
<event>
 4    5  0.1112901E-007  0.8130419E+03  0.7818608E-02  0.9683275E-01
          2   -1    0    0  501    0  0.00000000000E+00  0.00000000000E+00  0.67922895913E+03  0.67922895913E+03  0.25500000000E-02 0. -1.
         -2   -1    0    0    0  501 -0.00000000000E+00 -0.00000000000E+00 -0.97790190310E+03  0.97790190311E+03  0.25500000000E-02 0.  1.
    8880023    1    1    2    0    0 -0.13895200998E+03 -0.45598159224E+03 -0.65383027225E+03  0.10433269405E+04  0.65864270000E+03 0.  0.
    8880022    1    1    2    0    0  0.13895200998E+03  0.45598159224E+03  0.35515732827E+03  0.61380392177E+03  0.15294330000E+03 0. -1.
<mgrwt>
<rscale>  0 0.72021362E+03</rscale>
<asrwt>0</asrwt>
<pdfrwt beam="1">  1        2 0.10449676E+00 0.81304187E+03</pdfrwt>
<pdfrwt beam="2">  1       -2 0.15044645E+00 0.81304187E+03</pdfrwt>
<totfact> 0.12762985E+01</totfact>
</mgrwt>
</event>
<event>
 4    5  0.1112901E-007  0.9103741E+03  0.7818608E-02  0.9509579E-01
          2   -1    0    0  501    0  0.00000000000E+00  0.00000000000E+00  0.12626824830E+04  0.12626824830E+04  0.25500000000E-02 0. -1.
         -2   -1    0    0    0  501 -0.00000000000E+00 -0.00000000000E+00 -0.74679756942E+03  0.74679756942E+03  0.25500000000E-02 0.  1.
    8880023    1    1    2    0    0  0.57236448671E+03 -0.25955686438E+03 -0.30887282912E+03  0.96134463244E+03  0.65864270000E+03 0.  1.
    8880022    1    1    2    0    0 -0.57236448671E+03  0.25955686438E+03  0.82475774273E+03  0.10481354200E+04  0.15294330000E+03 0.  0.
<mgrwt>
<rscale>  0 0.83581283E+03</rscale>
<asrwt>0</asrwt>
<pdfrwt beam="1">  1        2 0.19425884E+00 0.91037414E+03</pdfrwt>
<pdfrwt beam="2">  1       -2 0.11489194E+00 0.91037414E+03</pdfrwt>
<totfact> 0.10296133E+01</totfact>
</mgrwt>
</event>
<event>
 4    5  0.1112901E-007  0.1276002E+04  0.7818608E-02  0.9086566E-01
         -2   -1    0    0    0  501 -0.00000000000E+00  0.00000000000E+00  0.17436284146E+04  0.17436284146E+04  0.25500000000E-02 0.  1.
          2   -1    0    0  501    0  0.00000000000E+00 -0.00000000000E+00 -0.19315293882E+04  0.19315293882E+04  0.25500000000E-02 0. -1.
    8880023    1    1    2    0    0  0.97253895653E+03 -0.49853694385E+03  0.13007311233E+04  0.18221094280E+04  0.65864270000E+03 0.  0.
    8880022    1    1    2    0    0 -0.97253895653E+03  0.49853694385E+03 -0.14886320969E+04  0.18530483748E+04  0.15294330000E+03 0.  0.
<mgrwt>
<rscale>  0 0.12305064E+04</rscale>
<asrwt>0</asrwt>
<pdfrwt beam="1">  1        2 0.29715837E+00 0.12760021E+04</pdfrwt>
<pdfrwt beam="2">  1       -2 0.26825053E+00 0.12760021E+04</pdfrwt>
<totfact> 0.34913425E-01</totfact>
</mgrwt>
</event>
<event>
 4    5  0.1112901E-007  0.1103412E+04  0.7818608E-02  0.9257267E-01
          2   -1    0    0  501    0  0.00000000000E+00  0.00000000000E+00  0.23959299144E+04  0.23959299144E+04  0.25500000000E-02 0. -1.
         -2   -1    0    0    0  501 -0.00000000000E+00 -0.00000000000E+00 -0.55390967991E+03  0.55390967992E+03  0.25500000000E-02 0.  1.
    8880023    1    1    2    0    0 -0.14232334796E+03 -0.87375741424E+03  0.26486088436E+03  0.11347552373E+04  0.65864270000E+03 0.  0.
    8880022    1    1    2    0    0  0.14232334796E+03  0.87375741424E+03  0.15771593502E+04  0.18150843570E+04  0.15294330000E+03 0.  0.
<mgrwt>
<rscale>  0 0.10481397E+04</rscale>
<asrwt>0</asrwt>
<pdfrwt beam="1">  1        2 0.36860460E+00 0.11034121E+04</pdfrwt>
<pdfrwt beam="2">  1       -2 0.85216874E-01 0.11034121E+04</pdfrwt>
<totfact> 0.47645101E+00</totfact>
</mgrwt>
</event>
<event>
 4    5  0.1112901E-007  0.7378333E+03  0.7818608E-02  0.9866304E-01
          2   -1    0    0  501    0  0.00000000000E+00  0.00000000000E+00  0.42026237700E+03  0.42026237701E+03  0.25500000000E-02 0. -1.
         -2   -1    0    0    0  501 -0.00000000000E+00 -0.00000000000E+00 -0.10231965023E+04  0.10231965023E+04  0.25500000000E-02 0.  1.
    8880023    1    1    2    0    0 -0.28905655392E+02  0.33128883355E+03 -0.74713001510E+03  0.10500482341E+04  0.65864270000E+03 0.  1.
    8880022    1    1    2    0    0  0.28905655392E+02 -0.33128883355E+03  0.14419588979E+03  0.39341064525E+03  0.15294330000E+03 0.  0.
<mgrwt>
<rscale>  0 0.61922501E+03</rscale>
<asrwt>0</asrwt>
<pdfrwt beam="1">  1        2 0.64655751E-01 0.73783334E+03</pdfrwt>
<pdfrwt beam="2">  1       -2 0.15741485E+00 0.73783334E+03</pdfrwt>
<totfact> 0.20087127E+01</totfact>
</mgrwt>
</event>
<event>
 4    5  0.1112901E-007  0.9037580E+03  0.7818608E-02  0.9520026E-01
         -2   -1    0    0    0  501 -0.00000000000E+00  0.00000000000E+00  0.57979389411E+03  0.57979389411E+03  0.25500000000E-02 0.  1.
          2   -1    0    0  501    0  0.00000000000E+00 -0.00000000000E+00 -0.16766495469E+04  0.16766495469E+04  0.25500000000E-02 0. -1.
    8880023    1    1    2    0    0  0.60562828075E+03  0.12721109118E+03  0.91020661042E+02  0.90832991978E+03  0.65864270000E+03 0.  0.
    8880022    1    1    2    0    0 -0.60562828075E+03 -0.12721109118E+03 -0.11878763138E+04  0.13481135212E+04  0.15294330000E+03 0.  0.
<mgrwt>
<rscale>  0 0.82823383E+03</rscale>
<asrwt>0</asrwt>
<pdfrwt beam="1">  1        2 0.25794608E+00 0.90375798E+03</pdfrwt>
<pdfrwt beam="2">  1       -2 0.89199061E-01 0.90375798E+03</pdfrwt>
<totfact> 0.10991664E+01</totfact>
</mgrwt>
</event>
<event>
 4    5  0.1112901E-007  0.9143296E+03  0.7818608E-02  0.9503409E-01
          2   -1    0    0  501    0  0.00000000000E+00  0.00000000000E+00  0.13247383954E+04  0.13247383954E+04  0.25500000000E-02 0. -1.
         -2   -1    0    0    0  501 -0.00000000000E+00 -0.00000000000E+00 -0.61300742830E+03  0.61300742831E+03  0.25500000000E-02 0.  1.
    8880023    1    1    2    0    0  0.89823296911E+02 -0.62778996497E+03 -0.73029474320E+02  0.91724150318E+03  0.65864270000E+03 0.  1.
    8880022    1    1    2    0    0 -0.89823296911E+02  0.62778996497E+03  0.78476044140E+03  0.10205043205E+04  0.15294330000E+03 0.  0.
<mgrwt>
<rscale>  0 0.84032979E+03</rscale>
<asrwt>0</asrwt>
<pdfrwt beam="1">  1        2 0.20380591E+00 0.91432963E+03</pdfrwt>
<pdfrwt beam="2">  1       -2 0.94308836E-01 0.91432963E+03</pdfrwt>
<totfact> 0.15207711E+01</totfact>
</mgrwt>
</event>
<event>
 4    5  0.1112901E-007  0.9022418E+03  0.7818608E-02  0.9522442E-01
         -2   -1    0    0    0  501 -0.00000000000E+00  0.00000000000E+00  0.51785213488E+03  0.51785213488E+03  0.25500000000E-02 0.  1.
          2   -1    0    0  501    0  0.00000000000E+00 -0.00000000000E+00 -0.30185239020E+04  0.30185239020E+04  0.25500000000E-02 0. -1.
    8880023    1    1    2    0    0  0.26479823096E+03 -0.55687691502E+03  0.54035155013E+02  0.90385839922E+03  0.65864270000E+03 0.  1.
    8880022    1    1    2    0    0 -0.26479823096E+03  0.55687691502E+03 -0.25547069221E+04  0.26325176377E+04  0.15294330000E+03 0.  0.
<mgrwt>
<rscale>  0 0.82649266E+03</rscale>
<asrwt>0</asrwt>
<pdfrwt beam="1">  1        2 0.46438828E+00 0.90224177E+03</pdfrwt>
<pdfrwt beam="2">  1       -2 0.79669561E-01 0.90224177E+03</pdfrwt>
<totfact> 0.24547327E+00</totfact>
</mgrwt>
</event>
<event>
 4    5  0.1112901E-007  0.8870346E+03  0.7818608E-02  0.9547174E-01
         -2   -1    0    0    0  501 -0.00000000000E+00  0.00000000000E+00  0.31667593221E+03  0.31667593222E+03  0.25500000000E-02 0.  1.
          2   -1    0    0  501    0  0.00000000000E+00 -0.00000000000E+00 -0.44886692790E+04  0.44886692790E+04  0.25500000000E-02 0. -1.
    8880023    1    1    2    0    0  0.14123557746E+03 -0.57712452585E+03 -0.38162446204E+03  0.96564364181E+03  0.65864270000E+03 0.  0.
    8880022    1    1    2    0    0 -0.14123557746E+03  0.57712452585E+03 -0.37903688848E+04  0.38397015694E+04  0.15294330000E+03 0.  0.
<mgrwt>
<rscale>  0 0.80893446E+03</rscale>
<asrwt>0</asrwt>
<pdfrwt beam="1">  1        2 0.69056446E+00 0.88703462E+03</pdfrwt>
<pdfrwt beam="2">  1       -2 0.48719377E-01 0.88703462E+03</pdfrwt>
<totfact> 0.55526972E-01</totfact>
</mgrwt>
</event>
<event>
 4    5  0.1112901E-007  0.9958042E+03  0.7818608E-02  0.9387068E-01
         -2   -1    0    0    0  501 -0.00000000000E+00  0.00000000000E+00  0.15998866356E+04  0.15998866356E+04  0.25500000000E-02 0.  1.
          2   -1    0    0  501    0  0.00000000000E+00 -0.00000000000E+00 -0.89537663383E+03  0.89537663384E+03  0.25500000000E-02 0. -1.
    8880023    1    1    2    0    0 -0.19901331942E+03 -0.71986766735E+03  0.12201209520E+04  0.15749035220E+04  0.65864270000E+03 0.  0.
    8880022    1    1    2    0    0  0.19901331942E+03  0.71986766735E+03 -0.51561095021E+03  0.92035974748E+03  0.15294330000E+03 0.  0.
<mgrwt>
<rscale>  0 0.93147639E+03</rscale>
<asrwt>0</asrwt>
<pdfrwt beam="1">  1        2 0.13775025E+00 0.99580418E+03</pdfrwt>
<pdfrwt beam="2">  1       -2 0.24613640E+00 0.99580418E+03</pdfrwt>
<totfact> 0.19990981E+00</totfact>
</mgrwt>
</event>
<event>
 4    5  0.1112901E-007  0.8644474E+03  0.7818608E-02  0.9585701E-01
          2   -1    0    0  501    0  0.00000000000E+00  0.00000000000E+00  0.14560341073E+04  0.14560341073E+04  0.25500000000E-02 0. -1.
         -2   -1    0    0    0  501 -0.00000000000E+00 -0.00000000000E+00 -0.64563257391E+03  0.64563257392E+03  0.25500000000E-02 0.  1.
    8880023    1    1    2    0    0  0.35866528759E+03  0.42990492147E+03 -0.24387782490E+03  0.89819019688E+03  0.65864270000E+03 0.  1.
    8880022    1    1    2    0    0 -0.35866528759E+03 -0.42990492147E+03  0.10542793582E+04  0.12034764843E+04  0.15294330000E+03 0.  0.
<mgrwt>
<rscale>  0 0.78249864E+03</rscale>
<asrwt>0</asrwt>
<pdfrwt beam="1">  1        2 0.22400525E+00 0.86444736E+03</pdfrwt>
<pdfrwt beam="2">  1       -2 0.99328089E-01 0.86444736E+03</pdfrwt>
<totfact> 0.11390438E+01</totfact>
</mgrwt>
</event>
<event>
 4    5  0.1112901E-007  0.9994130E+03  0.7818608E-02  0.9382326E-01
         -2   -1    0    0    0  501 -0.00000000000E+00  0.00000000000E+00  0.59611974116E+03  0.59611974117E+03  0.25500000000E-02 0.  1.
          2   -1    0    0  501    0  0.00000000000E+00 -0.00000000000E+00 -0.22189419917E+04  0.22189419917E+04  0.25500000000E-02 0. -1.
    8880023    1    1    2    0    0  0.69292559699E+03  0.29132493972E+03  0.22549751881E+02  0.99966734519E+03  0.65864270000E+03 0.  1.
    8880022    1    1    2    0    0 -0.69292559699E+03 -0.29132493972E+03 -0.16453720024E+04  0.18153943877E+04  0.15294330000E+03 0.  0.
<mgrwt>
<rscale>  0 0.93544560E+03</rscale>
<asrwt>0</asrwt>
<pdfrwt beam="1">  1        2 0.34137569E+00 0.99941298E+03</pdfrwt>
<pdfrwt beam="2">  1       -2 0.91710731E-01 0.99941298E+03</pdfrwt>
<totfact> 0.51202550E+00</totfact>
</mgrwt>
</event>
<event>
 4    5  0.1112901E-007  0.9594632E+03  0.7818608E-02  0.9436627E-01
         -2   -1    0    0    0  501 -0.00000000000E+00  0.00000000000E+00  0.17079061456E+04  0.17079061456E+04  0.25500000000E-02 0.  1.
          2   -1    0    0  501    0  0.00000000000E+00 -0.00000000000E+00 -0.66514454728E+03  0.66514454729E+03  0.25500000000E-02 0. -1.
    8880023    1    1    2    0    0 -0.40968729754E+03 -0.56472628463E+03  0.12983942795E+04  0.16144340710E+04  0.65864270000E+03 0.  0.
    8880022    1    1    2    0    0  0.40968729754E+03  0.56472628463E+03 -0.25563268117E+03  0.75861662189E+03  0.15294330000E+03 0.  0.
<mgrwt>
<rscale>  0 0.89121729E+03</rscale>
<asrwt>0</asrwt>
<pdfrwt beam="1">  1        2 0.10232993E+00 0.95946322E+03</pdfrwt>
<pdfrwt beam="2">  1       -2 0.26275479E+00 0.95946322E+03</pdfrwt>
<totfact> 0.23562053E+00</totfact>
</mgrwt>
</event>
<event>
 4    5  0.1112901E-007  0.7513952E+03  0.7818608E-02  0.9827916E-01
         -2   -1    0    0    0  501 -0.00000000000E+00  0.00000000000E+00  0.15906938469E+03  0.15906938471E+03  0.25500000000E-02 0.  1.
          2   -1    0    0  501    0  0.00000000000E+00 -0.00000000000E+00 -0.26088389569E+04  0.26088389569E+04  0.25500000000E-02 0. -1.
    8880023    1    1    2    0    0 -0.25808827052E+03  0.25332787575E+03 -0.91641886581E+03  0.11850815634E+04  0.65864270000E+03 0.  0.
    8880022    1    1    2    0    0  0.25808827052E+03 -0.25332787575E+03 -0.15333507064E+04  0.15828267782E+04  0.15294330000E+03 0.  0.
<mgrwt>
<rscale>  0 0.63885676E+03</rscale>
<asrwt>0</asrwt>
<pdfrwt beam="1">  1        2 0.40135981E+00 0.75139522E+03</pdfrwt>
<pdfrwt beam="2">  1       -2 0.24472215E-01 0.75139522E+03</pdfrwt>
<totfact> 0.46757859E+01</totfact>
</mgrwt>
</event>
<event>
 4    5  0.1112901E-007  0.9407267E+03  0.7818608E-02  0.9463584E-01
         -2   -1    0    0    0  501 -0.00000000000E+00  0.00000000000E+00  0.10582362004E+04  0.10582362004E+04  0.25500000000E-02 0.  1.
          2   -1    0    0  501    0  0.00000000000E+00 -0.00000000000E+00 -0.13268265738E+04  0.13268265738E+04  0.25500000000E-02 0. -1.
    8880023    1    1    2    0    0  0.23756820813E+03 -0.62826572489E+03  0.71684213968E+03  0.11827211565E+04  0.65864270000E+03 0.  0.
    8880022    1    1    2    0    0 -0.23756820813E+03  0.62826572489E+03 -0.98543251308E+03  0.12023416176E+04  0.15294330000E+03 0. -1.
<mgrwt>
<rscale>  0 0.87022715E+03</rscale>
<asrwt>0</asrwt>
<pdfrwt beam="1">  1        2 0.20412717E+00 0.94072668E+03</pdfrwt>
<pdfrwt beam="2">  1       -2 0.16280557E+00 0.94072668E+03</pdfrwt>
<totfact> 0.38247785E+00</totfact>
</mgrwt>
</event>
<event>
 4    5  0.1112901E-007  0.1969598E+04  0.7818608E-02  0.8634103E-01
          2   -1    0    0  501    0  0.00000000000E+00  0.00000000000E+00  0.37389644884E+04  0.37389644884E+04  0.25500000000E-02 0. -1.
         -2   -1    0    0    0  501 -0.00000000000E+00 -0.00000000000E+00 -0.12515912579E+04  0.12515912579E+04  0.25500000000E-02 0.  1.
    8880023    1    1    2    0    0 -0.69089041568E+03 -0.17228396733E+04  0.24289290347E+04  0.31271412773E+04  0.65864270000E+03 0.  0.
    8880022    1    1    2    0    0  0.69089041568E+03  0.17228396733E+04  0.58444195910E+02  0.18634144690E+04  0.15294330000E+03 0.  0.
<mgrwt>
<rscale>  0 0.19422590E+04</rscale>
<asrwt>0</asrwt>
<pdfrwt beam="1">  1        2 0.57522530E+00 0.19695980E+04</pdfrwt>
<pdfrwt beam="2">  1       -2 0.19255250E+00 0.19695980E+04</pdfrwt>
<totfact> 0.73141113E-02</totfact>
</mgrwt>
</event>
<event>
 4    5  0.1112901E-007  0.6882804E+03  0.7818608E-02  0.1004981E+00
          2   -1    0    0  501    0  0.00000000000E+00  0.00000000000E+00  0.88226797571E+03  0.88226797571E+03  0.25500000000E-02 0. -1.
         -2   -1    0    0    0  501 -0.00000000000E+00 -0.00000000000E+00 -0.14244152495E+04  0.14244152495E+04  0.25500000000E-02 0.  1.
    8880023    1    1    2    0    0  0.65136674643E+00  0.19979823794E+03 -0.13202607641E+04  0.14888984020E+04  0.65864270000E+03 0.  1.
    8880022    1    1    2    0    0 -0.65136674643E+00 -0.19979823794E+03  0.77811349031E+03  0.81778482315E+03  0.15294330000E+03 0.  0.
<mgrwt>
<rscale>  0 0.53519164E+03</rscale>
<asrwt>0</asrwt>
<pdfrwt beam="1">  1        2 0.13573354E+00 0.68828044E+03</pdfrwt>
<pdfrwt beam="2">  1       -2 0.21914081E+00 0.68828044E+03</pdfrwt>
<totfact> 0.31260277E+00</totfact>
</mgrwt>
</event>
<event>
 4    5  0.1112901E-007  0.7127481E+03  0.7818608E-02  0.9947934E-01
         -2   -1    0    0    0  501 -0.00000000000E+00  0.00000000000E+00  0.48464045009E+03  0.48464045009E+03  0.25500000000E-02 0.  1.
          2   -1    0    0  501    0  0.00000000000E+00 -0.00000000000E+00 -0.17162473998E+04  0.17162473998E+04  0.25500000000E-02 0. -1.
    8880023    1    1    2    0    0  0.26950884182E+03  0.39555669862E+02  0.19623690199E+03  0.73926909499E+03  0.65864270000E+03 0.  1.
    8880022    1    1    2    0    0 -0.26950884182E+03 -0.39555669862E+02 -0.14278438517E+04  0.14616187549E+04  0.15294330000E+03 0.  0.
<mgrwt>
<rscale>  0 0.57993385E+03</rscale>
<asrwt>0</asrwt>
<pdfrwt beam="1">  1        2 0.26403806E+00 0.71274811E+03</pdfrwt>
<pdfrwt beam="2">  1       -2 0.74560070E-01 0.71274811E+03</pdfrwt>
<totfact> 0.16061924E+01</totfact>
</mgrwt>
</event>
<event>
 4    5  0.1112901E-007  0.1749832E+04  0.7818608E-02  0.8750807E-01
         -2   -1    0    0    0  501 -0.00000000000E+00  0.00000000000E+00  0.19050987166E+04  0.19050987166E+04  0.25500000000E-02 0.  1.
          2   -1    0    0  501    0  0.00000000000E+00 -0.00000000000E+00 -0.17528020135E+04  0.17528020135E+04  0.25500000000E-02 0. -1.
    8880023    1    1    2    0    0  0.28509501572E+03  0.15958770918E+04  0.77602180583E+03  0.19141898834E+04  0.65864270000E+03 0.  0.
    8880022    1    1    2    0    0 -0.28509501572E+03 -0.15958770918E+04 -0.62372510275E+03  0.17437108467E+04  0.15294330000E+03 0.  0.
<mgrwt>
<rscale>  0 0.17186350E+04</rscale>
<asrwt>0</asrwt>
<pdfrwt beam="1">  1        2 0.26966185E+00 0.17498323E+04</pdfrwt>
<pdfrwt beam="2">  1       -2 0.29309211E+00 0.17498323E+04</pdfrwt>
<totfact> 0.29376700E-01</totfact>
</mgrwt>
</event>
<event>
 4    5  0.1112901E-007  0.6792405E+03  0.7818608E-02  0.1009757E+00
          2   -1    0    0  501    0  0.00000000000E+00  0.00000000000E+00  0.58587938610E+03  0.58587938610E+03  0.25500000000E-02 0. -1.
         -2   -1    0    0    0  501 -0.00000000000E+00 -0.00000000000E+00 -0.50781108030E+03  0.50781108030E+03  0.25500000000E-02 0.  1.
    8880023    1    1    2    0    0  0.16492658782E+03  0.18886142509E+02 -0.22523784111E+03  0.71561145678E+03  0.65864270000E+03 0.  1.
    8880022    1    1    2    0    0 -0.16492658782E+03 -0.18886142509E+02  0.30330614691E+03  0.37807900962E+03  0.15294330000E+03 0.  0.
<mgrwt>
<rscale>  0 0.51571501E+03</rscale>
<asrwt>0</asrwt>
<pdfrwt beam="1">  1        2 0.90135289E-01 0.67924051E+03</pdfrwt>
<pdfrwt beam="2">  1       -2 0.78124782E-01 0.67924051E+03</pdfrwt>
<totfact> 0.75644485E+01</totfact>
</mgrwt>
</event>
<event>
 4    5  0.1112901E-007  0.9869194E+03  0.7818608E-02  0.9398875E-01
         -2   -1    0    0    0  501 -0.00000000000E+00  0.00000000000E+00  0.45940682324E+03  0.45940682325E+03  0.25500000000E-02 0.  1.
          2   -1    0    0  501    0  0.00000000000E+00 -0.00000000000E+00 -0.33340663143E+04  0.33340663143E+04  0.25500000000E-02 0. -1.
    8880023    1    1    2    0    0 -0.67199118420E+03  0.29770379818E+03 -0.18899068895E+03  0.10048519243E+04  0.65864270000E+03 0.  0.
    8880022    1    1    2    0    0  0.67199118420E+03 -0.29770379818E+03 -0.26856688021E+04  0.27886212132E+04  0.15294330000E+03 0.  0.
<mgrwt>
<rscale>  0 0.92168349E+03</rscale>
<asrwt>0</asrwt>
<pdfrwt beam="1">  1        2 0.51293326E+00 0.98691940E+03</pdfrwt>
<pdfrwt beam="2">  1       -2 0.70677975E-01 0.98691940E+03</pdfrwt>
<totfact> 0.19873476E+00</totfact>
</mgrwt>
</event>
<event>
 4    5  0.1112901E-007  0.1367344E+04  0.7818608E-02  0.9009482E-01
          2   -1    0    0  501    0  0.00000000000E+00  0.00000000000E+00  0.14961522843E+04  0.14961522843E+04  0.25500000000E-02 0. -1.
         -2   -1    0    0    0  501 -0.00000000000E+00 -0.00000000000E+00 -0.15654214962E+04  0.15654214962E+04  0.25500000000E-02 0.  1.
    8880023    1    1    2    0    0 -0.85308470686E+03  0.84146670479E+03  0.79000344092E+03  0.15791565392E+04  0.65864270000E+03 0.  0.
    8880022    1    1    2    0    0  0.85308470686E+03 -0.84146670479E+03 -0.85927265282E+03  0.14824172413E+04  0.15294330000E+03 0.  0.
<mgrwt>
<rscale>  0 0.13256325E+04</rscale>
<asrwt>0</asrwt>
<pdfrwt beam="1">  1        2 0.23017727E+00 0.13673441E+04</pdfrwt>
<pdfrwt beam="2">  1       -2 0.24083408E+00 0.13673441E+04</pdfrwt>
<totfact> 0.89011774E-01</totfact>
</mgrwt>
</event>
<event>
 4    5  0.1112901E-007  0.7052556E+03  0.7818608E-02  0.9976060E-01
          2   -1    0    0  501    0  0.00000000000E+00  0.00000000000E+00  0.57133430185E+03  0.57133430185E+03  0.25500000000E-02 0. -1.
         -2   -1    0    0    0  501 -0.00000000000E+00 -0.00000000000E+00 -0.59529650317E+03  0.59529650317E+03  0.25500000000E-02 0.  1.
    8880023    1    1    2    0    0 -0.97560812591E+02 -0.23250190195E+03 -0.29652964332E+03  0.76505900570E+03  0.65864270000E+03 0.  0.
    8880022    1    1    2    0    0  0.97560812591E+02  0.23250190195E+03  0.27256744200E+03  0.40157179933E+03  0.15294330000E+03 0.  0.
<mgrwt>
<rscale>  0 0.56712547E+03</rscale>
<asrwt>0</asrwt>
<pdfrwt beam="1">  1        2 0.87897585E-01 0.70525559E+03</pdfrwt>
<pdfrwt beam="2">  1       -2 0.91584077E-01 0.70525559E+03</pdfrwt>
<totfact> 0.54211331E+01</totfact>
</mgrwt>
</event>
<event>
 4    5  0.1112901E-007  0.8091404E+03  0.7818608E-02  0.9691370E-01
         -2   -1    0    0    0  501 -0.00000000000E+00  0.00000000000E+00  0.40783728110E+03  0.40783728111E+03  0.25500000000E-02 0.  1.
          2   -1    0    0  501    0  0.00000000000E+00 -0.00000000000E+00 -0.18926854229E+04  0.18926854229E+04  0.25500000000E-02 0. -1.
    8880023    1    1    2    0    0  0.27182354679E+03 -0.38341873687E+03 -0.82158047032E+02  0.81330075577E+03  0.65864270000E+03 0.  0.
    8880022    1    1    2    0    0 -0.27182354679E+03  0.38341873687E+03 -0.14026900948E+04  0.14872219483E+04  0.15294330000E+03 0. -1.
<mgrwt>
<rscale>  0 0.71532934E+03</rscale>
<asrwt>0</asrwt>
<pdfrwt beam="1">  1        2 0.29118237E+00 0.80914039E+03</pdfrwt>
<pdfrwt beam="2">  1       -2 0.62744198E-01 0.80914039E+03</pdfrwt>
<totfact> 0.18481878E+01</totfact>
</mgrwt>
</event>
<event>
 4    5  0.1112901E-007  0.1264683E+04  0.7818608E-02  0.9096674E-01
          2   -1    0    0  501    0  0.00000000000E+00  0.00000000000E+00  0.24892382866E+04  0.24892382866E+04  0.25500000000E-02 0. -1.
         -2   -1    0    0    0  501 -0.00000000000E+00 -0.00000000000E+00 -0.14609562323E+04  0.14609562323E+04  0.25500000000E-02 0.  1.
    8880023    1    1    2    0    0 -0.70946978007E+01  0.10796126942E+04 -0.10233058129E+04  0.16268309369E+04  0.65864270000E+03 0.  0.
    8880022    1    1    2    0    0  0.70946978007E+01 -0.10796126942E+04  0.20515878672E+04  0.23233635820E+04  0.15294330000E+03 0.  0.
<mgrwt>
<rscale>  0 0.12186650E+04</rscale>
<asrwt>0</asrwt>
<pdfrwt beam="1">  1        2 0.38295974E+00 0.12646834E+04</pdfrwt>
<pdfrwt beam="2">  1       -2 0.22476250E+00 0.12646834E+04</pdfrwt>
<totfact> 0.31490689E-01</totfact>
</mgrwt>
</event>
<event>
 4    5  0.1112901E-007  0.8749070E+03  0.7818608E-02  0.9567578E-01
         -2   -1    0    0    0  501 -0.00000000000E+00  0.00000000000E+00  0.11234050083E+04  0.11234050083E+04  0.25500000000E-02 0.  1.
          2   -1    0    0  501    0  0.00000000000E+00 -0.00000000000E+00 -0.11441567734E+04  0.11441567734E+04  0.25500000000E-02 0. -1.
    8880023    1    1    2    0    0  0.56419248221E+03 -0.11549389063E+03  0.84515469794E+03  0.12164492038E+04  0.65864270000E+03 0.  1.
    8880022    1    1    2    0    0 -0.56419248221E+03  0.11549389063E+03 -0.86590646305E+03  0.10511125779E+04  0.15294330000E+03 0.  0.
<mgrwt>
<rscale>  0 0.79479774E+03</rscale>
<asrwt>0</asrwt>
<pdfrwt beam="1">  1        2 0.17602412E+00 0.87490697E+03</pdfrwt>
<pdfrwt beam="2">  1       -2 0.17283154E+00 0.87490697E+03</pdfrwt>
<totfact> 0.41888883E+00</totfact>
</mgrwt>
</event>
<event>
 4    5  0.1112901E-007  0.7593870E+03  0.7818608E-02  0.9806697E-01
         -2   -1    0    0    0  501 -0.00000000000E+00  0.00000000000E+00  0.33497314977E+03  0.33497314978E+03  0.25500000000E-02 0.  1.
          2   -1    0    0  501    0  0.00000000000E+00 -0.00000000000E+00 -0.10572461295E+04  0.10572461295E+04  0.25500000000E-02 0. -1.
    8880023    1    1    2    0    0 -0.38901989378E+02  0.37595881140E+03 -0.33542346068E+03  0.83016714997E+03  0.65864270000E+03 0.  1.
    8880022    1    1    2    0    0  0.38901989378E+02 -0.37595881140E+03 -0.38684951900E+03  0.56205212927E+03  0.15294330000E+03 0.  0.
<mgrwt>
<rscale>  0 0.65004375E+03</rscale>
<asrwt>0</asrwt>
<pdfrwt beam="1">  1        2 0.16265325E+00 0.75938699E+03</pdfrwt>
<pdfrwt beam="2">  1       -2 0.51534331E-01 0.75938699E+03</pdfrwt>
<totfact> 0.83539580E+01</totfact>
</mgrwt>
</event>
<event>
 4    5  0.1112901E-007  0.7363342E+03  0.7818608E-02  0.9870757E-01
          2   -1    0    0  501    0  0.00000000000E+00  0.00000000000E+00  0.38240962524E+04  0.38240962524E+04  0.25500000000E-02 0. -1.
         -2   -1    0    0    0  501 -0.00000000000E+00 -0.00000000000E+00 -0.24334336573E+03  0.24334336575E+03  0.25500000000E-02 0.  1.
    8880023    1    1    2    0    0  0.22274591364E+03  0.24240901594E+03  0.34810111460E+03  0.81447066571E+03  0.65864270000E+03 0.  1.
    8880022    1    1    2    0    0 -0.22274591364E+03 -0.24240901594E+03  0.32326517720E+04  0.32529689524E+04  0.15294330000E+03 0.  0.
<mgrwt>
<rscale>  0 0.61699708E+03</rscale>
<asrwt>0</asrwt>
<pdfrwt beam="1">  1        2 0.58832254E+00 0.73633422E+03</pdfrwt>
<pdfrwt beam="2">  1       -2 0.37437439E-01 0.73633422E+03</pdfrwt>
<totfact> 0.34907663E+00</totfact>
</mgrwt>
</event>
<event>
 4    5  0.1112901E-007  0.8425225E+03  0.7818608E-02  0.9625442E-01
         -2   -1    0    0    0  501 -0.00000000000E+00  0.00000000000E+00  0.50482343573E+03  0.50482343573E+03  0.25500000000E-02 0.  1.
          2   -1    0    0  501    0  0.00000000000E+00 -0.00000000000E+00 -0.16054168856E+04  0.16054168856E+04  0.25500000000E-02 0. -1.
    8880023    1    1    2    0    0  0.13830518570E+03 -0.50685862907E+03  0.41797364546E+02  0.84355866435E+03  0.65864270000E+03 0.  0.
    8880022    1    1    2    0    0 -0.13830518570E+03  0.50685862907E+03 -0.11423908144E+04  0.12666816570E+04  0.15294330000E+03 0.  0.
<mgrwt>
<rscale>  0 0.75634905E+03</rscale>
<asrwt>0</asrwt>
<pdfrwt beam="1">  1        2 0.24698721E+00 0.84252252E+03</pdfrwt>
<pdfrwt beam="2">  1       -2 0.77665145E-01 0.84252252E+03</pdfrwt>
<totfact> 0.16600010E+01</totfact>
</mgrwt>
</event>
<event>
 4    5  0.1112901E-007  0.1122361E+04  0.7818608E-02  0.9236559E-01
          2   -1    0    0  501    0  0.00000000000E+00  0.00000000000E+00  0.14588314792E+04  0.14588314792E+04  0.25500000000E-02 0. -1.
         -2   -1    0    0    0  501 -0.00000000000E+00 -0.00000000000E+00 -0.11620904688E+04  0.11620904688E+04  0.25500000000E-02 0.  1.
    8880023    1    1    2    0    0  0.62781778564E+03 -0.65706125418E+03 -0.65222990926E+03  0.12981135253E+04  0.65864270000E+03 0.  0.
    8880022    1    1    2    0    0 -0.62781778564E+03  0.65706125418E+03  0.94897091970E+03  0.13228084227E+04  0.15294330000E+03 0.  0.
<mgrwt>
<rscale>  0 0.10683920E+04</rscale>
<asrwt>0</asrwt>
<pdfrwt beam="1">  1        2 0.22443561E+00 0.11223613E+04</pdfrwt>
<pdfrwt beam="2">  1       -2 0.17878315E+00 0.11223613E+04</pdfrwt>
<totfact> 0.24231141E+00</totfact>
</mgrwt>
</event>
<event>
 4    5  0.1112901E-007  0.8856242E+03  0.7818608E-02  0.9549515E-01
          2   -1    0    0  501    0  0.00000000000E+00  0.00000000000E+00  0.86746242081E+03  0.86746242082E+03  0.25500000000E-02 0. -1.
         -2   -1    0    0    0  501 -0.00000000000E+00 -0.00000000000E+00 -0.71908242974E+03  0.71908242975E+03  0.25500000000E-02 0.  1.
    8880023    1    1    2    0    0 -0.45417751736E+03 -0.37979302647E+03 -0.16275795674E+03  0.90045561744E+03  0.65864270000E+03 0.  0.
    8880022    1    1    2    0    0  0.45417751736E+03  0.37979302647E+03  0.31113794781E+03  0.68608923313E+03  0.15294330000E+03 0.  0.
<mgrwt>
<rscale>  0 0.80729677E+03</rscale>
<asrwt>0</asrwt>
<pdfrwt beam="1">  1        2 0.13345576E+00 0.88562417E+03</pdfrwt>
<pdfrwt beam="2">  1       -2 0.11062807E+00 0.88562417E+03</pdfrwt>
<totfact> 0.20052991E+01</totfact>
</mgrwt>
</event>
<event>
 4    5  0.1112901E-007  0.7307410E+03  0.7818608E-02  0.9887788E-01
         -2   -1    0    0    0  501 -0.00000000000E+00  0.00000000000E+00  0.70251265467E+03  0.70251265468E+03  0.25500000000E-02 0.  1.
          2   -1    0    0  501    0  0.00000000000E+00 -0.00000000000E+00 -0.31122886854E+04  0.31122886854E+04  0.25500000000E-02 0. -1.
    8880023    1    1    2    0    0 -0.27950242661E+03 -0.14849427117E+03  0.49899935486E+03  0.88486310662E+03  0.65864270000E+03 0.  1.
    8880022    1    1    2    0    0  0.27950242661E+03  0.14849427117E+03 -0.29087753856E+04  0.29299382334E+04  0.15294330000E+03 0.  0.
<mgrwt>
<rscale>  0 0.60856785E+03</rscale>
<asrwt>0</asrwt>
<pdfrwt beam="1">  1        2 0.47881364E+00 0.73074097E+03</pdfrwt>
<pdfrwt beam="2">  1       -2 0.10807887E+00 0.73074097E+03</pdfrwt>
<totfact> 0.10913472E+00</totfact>
</mgrwt>
</event>
<event>
 4    5  0.1112901E-007  0.7293756E+03  0.7818608E-02  0.9892052E-01
         -2   -1    0    0    0  501 -0.00000000000E+00  0.00000000000E+00  0.46713507280E+03  0.46713507281E+03  0.25500000000E-02 0.  1.
          2   -1    0    0  501    0  0.00000000000E+00 -0.00000000000E+00 -0.34135143866E+04  0.34135143866E+04  0.25500000000E-02 0. -1.
    8880023    1    1    2    0    0 -0.21070924621E+03 -0.23190558907E+03  0.16663617596E+03  0.74816870429E+03  0.65864270000E+03 0.  1.
    8880022    1    1    2    0    0  0.21070924621E+03  0.23190558907E+03 -0.31130154898E+04  0.31324807552E+04  0.15294330000E+03 0.  0.
<mgrwt>
<rscale>  0 0.60648050E+03</rscale>
<asrwt>0</asrwt>
<pdfrwt beam="1">  1        2 0.52515604E+00 0.72937562E+03</pdfrwt>
<pdfrwt beam="2">  1       -2 0.71866936E-01 0.72937562E+03</pdfrwt>
<totfact> 0.17834324E+00</totfact>
</mgrwt>
</event>
<event>
 4    5  0.1112901E-007  0.8563811E+03  0.7818608E-02  0.9600034E-01
          2   -1    0    0  501    0  0.00000000000E+00  0.00000000000E+00  0.13886360611E+04  0.13886360611E+04  0.25500000000E-02 0. -1.
         -2   -1    0    0    0  501 -0.00000000000E+00 -0.00000000000E+00 -0.50363204063E+03  0.50363204063E+03  0.25500000000E-02 0.  1.
    8880023    1    1    2    0    0  0.26195972559E+03 -0.48057820366E+03  0.19182435713E+02  0.85659586723E+03  0.65864270000E+03 0.  1.
    8880022    1    1    2    0    0 -0.26195972559E+03  0.48057820366E+03  0.86582158476E+03  0.10356722345E+04  0.15294330000E+03 0.  0.
<mgrwt>
<rscale>  0 0.77293960E+03</rscale>
<asrwt>0</asrwt>
<pdfrwt beam="1">  1        2 0.21363632E+00 0.85638106E+03</pdfrwt>
<pdfrwt beam="2">  1       -2 0.77481852E-01 0.85638106E+03</pdfrwt>
<totfact> 0.22037122E+01</totfact>
</mgrwt>
</event>
<event>
 4    5  0.1112901E-007  0.8039575E+03  0.7818608E-02  0.9702304E-01
          2   -1    0    0  501    0  0.00000000000E+00  0.00000000000E+00  0.14106102175E+04  0.14106102175E+04  0.25500000000E-02 0. -1.
         -2   -1    0    0    0  501 -0.00000000000E+00 -0.00000000000E+00 -0.70770680071E+03  0.70770680072E+03  0.25500000000E-02 0.  1.
    8880023    1    1    2    0    0 -0.11510921369E+02 -0.46087410701E+03 -0.41114228123E+03  0.90298705722E+03  0.65864270000E+03 0.  0.
    8880022    1    1    2    0    0  0.11510921369E+02  0.46087410701E+03  0.11140456980E+04  0.12153299610E+04  0.15294330000E+03 0.  0.
<mgrwt>
<rscale>  0 0.70879803E+03</rscale>
<asrwt>0</asrwt>
<pdfrwt beam="1">  1        2 0.21701695E+00 0.80395749E+03</pdfrwt>
<pdfrwt beam="2">  1       -2 0.10887797E+00 0.80395749E+03</pdfrwt>
<totfact> 0.97654502E+00</totfact>
</mgrwt>
</event>
<event>
 4    5  0.1112901E-007  0.1133950E+04  0.7818608E-02  0.9224166E-01
          2   -1    0    0  501    0  0.00000000000E+00  0.00000000000E+00  0.25925820792E+04  0.25925820792E+04  0.25500000000E-02 0. -1.
         -2   -1    0    0    0  501 -0.00000000000E+00 -0.00000000000E+00 -0.14226043083E+04  0.14226043083E+04  0.25500000000E-02 0.  1.
    8880023    1    1    2    0    0  0.92260570308E+03  0.28837497727E+02 -0.10877156873E+04  0.15712951687E+04  0.65864270000E+03 0.  1.
    8880022    1    1    2    0    0 -0.92260570308E+03 -0.28837497727E+02  0.22576934582E+04  0.24438912187E+04  0.15294330000E+03 0.  0.
<mgrwt>
<rscale>  0 0.10807440E+04</rscale>
<asrwt>0</asrwt>
<pdfrwt beam="1">  1        2 0.39885878E+00 0.11339502E+04</pdfrwt>
<pdfrwt beam="2">  1       -2 0.21886220E+00 0.11339502E+04</pdfrwt>
<totfact> 0.30494715E-01</totfact>
</mgrwt>
</event>
<event>
 4    5  0.1112901E-007  0.7651178E+03  0.7818608E-02  0.9792034E-01
         -2   -1    0    0    0  501 -0.00000000000E+00  0.00000000000E+00  0.69268108689E+03  0.69268108689E+03  0.25500000000E-02 0.  1.
          2   -1    0    0  501    0  0.00000000000E+00 -0.00000000000E+00 -0.20337159906E+04  0.20337159906E+04  0.25500000000E-02 0. -1.
    8880023    1    1    2    0    0 -0.22857886192E+03  0.31519317373E+03  0.44967568941E+03  0.88747589533E+03  0.65864270000E+03 0.  0.
    8880022    1    1    2    0    0  0.22857886192E+03 -0.31519317373E+03 -0.17907105931E+04  0.18389211821E+04  0.15294330000E+03 0. -1.
<mgrwt>
<rscale>  0 0.65791813E+03</rscale>
<asrwt>0</asrwt>
<pdfrwt beam="1">  1        2 0.31287938E+00 0.76511779E+03</pdfrwt>
<pdfrwt beam="2">  1       -2 0.10656632E+00 0.76511779E+03</pdfrwt>
<totfact> 0.46950020E+00</totfact>
</mgrwt>
</event>
<event>
 4    5  0.1112901E-007  0.1131579E+04  0.7818608E-02  0.9226685E-01
         -2   -1    0    0    0  501 -0.00000000000E+00  0.00000000000E+00  0.16805316014E+04  0.16805316014E+04  0.25500000000E-02 0.  1.
          2   -1    0    0  501    0  0.00000000000E+00 -0.00000000000E+00 -0.82085330726E+03  0.82085330727E+03  0.25500000000E-02 0. -1.
    8880023    1    1    2    0    0  0.88706868786E+03 -0.24447974589E+03  0.10564584933E+04  0.15480878391E+04  0.65864270000E+03 0.  1.
    8880022    1    1    2    0    0 -0.88706868786E+03  0.24447974589E+03 -0.19678019917E+03  0.95329706961E+03  0.15294330000E+03 0.  0.
<mgrwt>
<rscale>  0 0.10782188E+04</rscale>
<asrwt>0</asrwt>
<pdfrwt beam="1">  1        2 0.12628513E+00 0.11315792E+04</pdfrwt>
<pdfrwt beam="2">  1       -2 0.25854332E+00 0.11315792E+04</pdfrwt>
<totfact> 0.18645076E+00</totfact>
</mgrwt>
</event>
<event>
 4    5  0.1112901E-007  0.9963317E+03  0.7818608E-02  0.9386373E-01
          2   -1    0    0  501    0  0.00000000000E+00  0.00000000000E+00  0.11464250563E+04  0.11464250563E+04  0.25500000000E-02 0. -1.
         -2   -1    0    0    0  501 -0.00000000000E+00 -0.00000000000E+00 -0.78047971586E+03  0.78047971586E+03  0.25500000000E-02 0.  1.
    8880023    1    1    2    0    0 -0.73958367831E+03  0.10900750886E+03  0.55540118348E+03  0.11406784539E+04  0.65864270000E+03 0. -1.
    8880022    1    1    2    0    0  0.73958367831E+03 -0.10900750886E+03 -0.18945584300E+03  0.78622631835E+03  0.15294330000E+03 0.  0.
<mgrwt>
<rscale>  0 0.93205690E+03</rscale>
<asrwt>0</asrwt>
<pdfrwt beam="1">  1        2 0.17637308E+00 0.99633170E+03</pdfrwt>
<pdfrwt beam="2">  1       -2 0.12007380E+00 0.99633170E+03</pdfrwt>
<totfact> 0.10741557E+01</totfact>
</mgrwt>
</event>
<event>
 4    5  0.1112901E-007  0.1060725E+04  0.7818608E-02  0.9306099E-01
          2   -1    0    0  501    0  0.00000000000E+00  0.00000000000E+00  0.23074452434E+04  0.23074452434E+04  0.25500000000E-02 0. -1.
         -2   -1    0    0    0  501 -0.00000000000E+00 -0.00000000000E+00 -0.62931920410E+03  0.62931920410E+03  0.25500000000E-02 0.  1.
    8880023    1    1    2    0    0  0.76921535853E+03  0.31564898217E+03  0.33762035465E+01  0.10607300094E+04  0.65864270000E+03 0.  0.
    8880022    1    1    2    0    0 -0.76921535853E+03 -0.31564898217E+03  0.16747498357E+04  0.18760344381E+04  0.15294330000E+03 0.  0.
<mgrwt>
<rscale>  0 0.10022333E+04</rscale>
<asrwt>0</asrwt>
<pdfrwt beam="1">  1        2 0.35499158E+00 0.10607246E+04</pdfrwt>
<pdfrwt beam="2">  1       -2 0.96818338E-01 0.10607246E+04</pdfrwt>
<totfact> 0.39929754E+00</totfact>
</mgrwt>
</event>
<event>
 4    5  0.1112901E-007  0.1265306E+04  0.7818608E-02  0.9096115E-01
          2   -1    0    0  501    0  0.00000000000E+00  0.00000000000E+00  0.20990745046E+04  0.20990745046E+04  0.25500000000E-02 0. -1.
         -2   -1    0    0    0  501 -0.00000000000E+00 -0.00000000000E+00 -0.11609852069E+04  0.11609852069E+04  0.25500000000E-02 0.  1.
    8880023    1    1    2    0    0  0.88519962423E+03 -0.61936347405E+03  0.15564585070E+04  0.20058820448E+04  0.65864270000E+03 0. -1.
    8880022    1    1    2    0    0 -0.88519962423E+03  0.61936347405E+03 -0.61836920926E+03  0.12541776667E+04  0.15294330000E+03 0.  0.
<mgrwt>
<rscale>  0 0.12193169E+04</rscale>
<asrwt>0</asrwt>
<pdfrwt beam="1">  1        2 0.32293454E+00 0.12653062E+04</pdfrwt>
<pdfrwt beam="2">  1       -2 0.17861311E+00 0.12653062E+04</pdfrwt>
<totfact> 0.10521564E+00</totfact>
</mgrwt>
</event>
<event>
 4    5  0.1112901E-007  0.1069028E+04  0.7818608E-02  0.9296349E-01
         -2   -1    0    0    0  501 -0.00000000000E+00  0.00000000000E+00  0.42771608089E+03  0.42771608089E+03  0.25500000000E-02 0.  1.
          2   -1    0    0  501    0  0.00000000000E+00 -0.00000000000E+00 -0.32350622461E+04  0.32350622461E+04  0.25500000000E-02 0. -1.
    8880023    1    1    2    0    0  0.82190403487E+03 -0.18298992452E+03 -0.45909095095E+03  0.11634372620E+04  0.65864270000E+03 0.  0.
    8880022    1    1    2    0    0 -0.82190403487E+03  0.18298992452E+03 -0.23482552143E+04  0.24993410650E+04  0.15294330000E+03 0.  0.
<mgrwt>
<rscale>  0 0.10111969E+04</rscale>
<asrwt>0</asrwt>
<pdfrwt beam="1">  1        2 0.49770187E+00 0.10690284E+04</pdfrwt>
<pdfrwt beam="2">  1       -2 0.65802476E-01 0.10690284E+04</pdfrwt>
<totfact> 0.26618514E+00</totfact>
</mgrwt>
</event>
<event>
 4    5  0.1112901E-007  0.9169607E+03  0.7818608E-02  0.9499335E-01
          2   -1    0    0  501    0  0.00000000000E+00  0.00000000000E+00  0.27456163097E+04  0.27456163097E+04  0.25500000000E-02 0. -1.
         -2   -1    0    0    0  501 -0.00000000000E+00 -0.00000000000E+00 -0.51378468700E+03  0.51378468701E+03  0.25500000000E-02 0.  1.
    8880023    1    1    2    0    0  0.44579553567E+03 -0.45636940840E+03 -0.16704676942E+02  0.91711283332E+03  0.65864270000E+03 0.  0.
    8880022    1    1    2    0    0 -0.44579553567E+03  0.45636940840E+03  0.22485362996E+04  0.23422881634E+04  0.15294330000E+03 0. -1.
<mgrwt>
<rscale>  0 0.84332866E+03</rscale>
<asrwt>0</asrwt>
<pdfrwt beam="1">  1        2 0.42240251E+00 0.91696069E+03</pdfrwt>
<pdfrwt beam="2">  1       -2 0.79043798E-01 0.91696069E+03</pdfrwt>
<totfact> 0.36406360E+00</totfact>
</mgrwt>
</event>
<event>
 4    5  0.1112901E-007  0.1088011E+04  0.7818608E-02  0.9274523E-01
          2   -1    0    0  501    0  0.00000000000E+00  0.00000000000E+00  0.25685644169E+04  0.25685644169E+04  0.25500000000E-02 0. -1.
         -2   -1    0    0    0  501 -0.00000000000E+00 -0.00000000000E+00 -0.53910789809E+03  0.53910789810E+03  0.25500000000E-02 0.  1.
    8880023    1    1    2    0    0 -0.75871305484E+03 -0.41750758904E+03  0.24053013743E+03  0.11142814006E+04  0.65864270000E+03 0.  0.
    8880022    1    1    2    0    0  0.75871305484E+03  0.41750758904E+03  0.17889263813E+04  0.19933909143E+04  0.15294330000E+03 0.  0.
<mgrwt>
<rscale>  0 0.10316254E+04</rscale>
<asrwt>0</asrwt>
<pdfrwt beam="1">  1        2 0.39516376E+00 0.10880112E+04</pdfrwt>
<pdfrwt beam="2">  1       -2 0.82939676E-01 0.10880112E+04</pdfrwt>
<totfact> 0.40445775E+00</totfact>
</mgrwt>
</event>
<event>
 4    5  0.1112901E-007  0.1347958E+04  0.7818608E-02  0.9025213E-01
         -2   -1    0    0    0  501 -0.00000000000E+00  0.00000000000E+00  0.75923220940E+03  0.75923220940E+03  0.25500000000E-02 0.  1.
          2   -1    0    0  501    0  0.00000000000E+00 -0.00000000000E+00 -0.36101182831E+04  0.36101182831E+04  0.25500000000E-02 0. -1.
    8880023    1    1    2    0    0  0.66867318960E+03 -0.96750063817E+03 -0.74214323381E+02  0.13499997376E+04  0.65864270000E+03 0.  1.
    8880022    1    1    2    0    0 -0.66867318960E+03  0.96750063817E+03 -0.27766717503E+04  0.30193507550E+04  0.15294330000E+03 0.  0.
<mgrwt>
<rscale>  0 0.13055022E+04</rscale>
<asrwt>0</asrwt>
<pdfrwt beam="1">  1        2 0.55540280E+00 0.13479583E+04</pdfrwt>
<pdfrwt beam="2">  1       -2 0.11680496E+00 0.13479583E+04</pdfrwt>
<totfact> 0.37740048E-01</totfact>
</mgrwt>
</event>
<event>
 4    5  0.1112901E-007  0.9196675E+03  0.7818608E-02  0.9495169E-01
          2   -1    0    0  501    0  0.00000000000E+00  0.00000000000E+00  0.20340614507E+04  0.20340614507E+04  0.25500000000E-02 0. -1.
         -2   -1    0    0    0  501 -0.00000000000E+00 -0.00000000000E+00 -0.64552504214E+03  0.64552504214E+03  0.25500000000E-02 0.  1.
    8880023    1    1    2    0    0 -0.55441594524E+03  0.32342081592E+03 -0.21598743689E+03  0.94468981346E+03  0.65864270000E+03 0.  0.
    8880022    1    1    2    0    0  0.55441594524E+03 -0.32342081592E+03  0.16045238455E+04  0.17348966794E+04  0.15294330000E+03 0.  0.
<mgrwt>
<rscale>  0 0.84640925E+03</rscale>
<asrwt>0</asrwt>
<pdfrwt beam="1">  1        2 0.31293252E+00 0.91966748E+03</pdfrwt>
<pdfrwt beam="2">  1       -2 0.99311548E-01 0.91966748E+03</pdfrwt>
<totfact> 0.54304691E+00</totfact>
</mgrwt>
</event>
<event>
 4    5  0.1112901E-007  0.1088024E+04  0.7818608E-02  0.9274509E-01
          2   -1    0    0  501    0  0.00000000000E+00  0.00000000000E+00  0.17381962347E+04  0.17381962347E+04  0.25500000000E-02 0. -1.
         -2   -1    0    0    0  501 -0.00000000000E+00 -0.00000000000E+00 -0.16213730928E+04  0.16213730928E+04  0.25500000000E-02 0.  1.
    8880023    1    1    2    0    0  0.87412887632E+01  0.86597278674E+03 -0.12980072520E+04  0.16936995926E+04  0.65864270000E+03 0.  0.
    8880022    1    1    2    0    0 -0.87412887632E+01 -0.86597278674E+03  0.14148303938E+04  0.16658697350E+04  0.15294330000E+03 0.  0.
<mgrwt>
<rscale>  0 0.10316388E+04</rscale>
<asrwt>0</asrwt>
<pdfrwt beam="1">  1        2 0.26741480E+00 0.10880237E+04</pdfrwt>
<pdfrwt beam="2">  1       -2 0.24944201E+00 0.10880237E+04</pdfrwt>
<totfact> 0.59696977E-01</totfact>
</mgrwt>
</event>
<event>
 4    5  0.1112901E-007  0.6623924E+03  0.7818608E-02  0.1021829E+00
         -2   -1    0    0    0  501 -0.00000000000E+00  0.00000000000E+00  0.57006305850E+03  0.57006305850E+03  0.25500000000E-02 0.  1.
          2   -1    0    0  501    0  0.00000000000E+00 -0.00000000000E+00 -0.13101571937E+04  0.13101571937E+04  0.25500000000E-02 0. -1.
    8880023    1    1    2    0    0  0.42931883294E+02  0.55770199846E+02  0.36912371387E+03  0.75829808400E+03  0.65864270000E+03 0.  1.
    8880022    1    1    2    0    0 -0.42931883294E+02 -0.55770199846E+02 -0.11092178491E+04  0.11219221682E+04  0.15294330000E+03 0.  0.
<mgrwt>
<rscale>  0 0.47032306E+03</rscale>
<asrwt>0</asrwt>
<pdfrwt beam="1">  1        2 0.20156264E+00 0.66239238E+03</pdfrwt>
<pdfrwt beam="2">  1       -2 0.87702009E-01 0.66239238E+03</pdfrwt>
<totfact> 0.18877933E+01</totfact>
</mgrwt>
</event>
<event>
 4    5  0.1112901E-007  0.6707349E+03  0.7818608E-02  0.1015141E+00
         -2   -1    0    0    0  501 -0.00000000000E+00  0.00000000000E+00  0.23154558904E+04  0.23154558904E+04  0.25500000000E-02 0.  1.
          2   -1    0    0  501    0  0.00000000000E+00 -0.00000000000E+00 -0.60669694082E+03  0.60669694082E+03  0.25500000000E-02 0. -1.
    8880023    1    1    2    0    0  0.11166940172E+03 -0.60042276949E+02  0.22488175459E+04  0.23467138068E+04  0.65864270000E+03 0.  1.
    8880022    1    1    2    0    0 -0.11166940172E+03  0.60042276949E+02 -0.54005859631E+03  0.57543902437E+03  0.15294330000E+03 0.  0.
<mgrwt>
<rscale>  0 0.49481420E+03</rscale>
<asrwt>0</asrwt>
<pdfrwt beam="1">  1        2 0.93337990E-01 0.67073492E+03</pdfrwt>
<pdfrwt beam="2">  1       -2 0.35622399E+00 0.67073492E+03</pdfrwt>
<totfact> 0.74636532E-01</totfact>
</mgrwt>
</event>
<event>
 4    5  0.1112901E-007  0.1070345E+04  0.7818608E-02  0.9294814E-01
          2   -1    0    0  501    0  0.00000000000E+00  0.00000000000E+00  0.19241739617E+04  0.19241739617E+04  0.25500000000E-02 0. -1.
         -2   -1    0    0    0  501 -0.00000000000E+00 -0.00000000000E+00 -0.49055558513E+03  0.49055558514E+03  0.25500000000E-02 0.  1.
    8880023    1    1    2    0    0 -0.84278913549E+03 -0.39182708186E+02  0.64437494676E+03  0.12493430633E+04  0.65864270000E+03 0.  0.
    8880022    1    1    2    0    0  0.84278913549E+03  0.39182708186E+02  0.78924342979E+03  0.11653864835E+04  0.15294330000E+03 0.  0.
<mgrwt>
<rscale>  0 0.10126168E+04</rscale>
<asrwt>0</asrwt>
<pdfrwt beam="1">  1        2 0.29602677E+00 0.10703453E+04</pdfrwt>
<pdfrwt beam="2">  1       -2 0.75470089E-01 0.10703453E+04</pdfrwt>
<totfact> 0.11527240E+01</totfact>
</mgrwt>
</event>
<event>
 4    5  0.1112901E-007  0.6900428E+03  0.7818608E-02  0.1004132E+00
          2   -1    0    0  501    0  0.00000000000E+00  0.00000000000E+00  0.41798802393E+04  0.41798802393E+04  0.25500000000E-02 0. -1.
         -2   -1    0    0    0  501 -0.00000000000E+00 -0.00000000000E+00 -0.97439662429E+02  0.97439662462E+02  0.25500000000E-02 0.  1.
    8880023    1    1    2    0    0 -0.25656668648E+01  0.20577236519E+03  0.12058752362E+04  0.13893502584E+04  0.65864270000E+03 0.  1.
    8880022    1    1    2    0    0  0.25656668648E+01 -0.20577236519E+03  0.28765653407E+04  0.28879696434E+04  0.15294330000E+03 0.  0.
<mgrwt>
<rscale>  0 0.53874859E+03</rscale>
<asrwt>0</asrwt>
<pdfrwt beam="1">  1        2 0.64305847E+00 0.69004279E+03</pdfrwt>
<pdfrwt beam="2">  1       -2 0.14990718E-01 0.69004279E+03</pdfrwt>
<totfact> 0.95579899E+00</totfact>
</mgrwt>
</event>
<event>
 4    5  0.1386465E-007  0.1765499E+04  0.7818608E-02  0.8741865E-01
          2   -1    0    0  501    0  0.00000000000E+00  0.00000000000E+00  0.39882979537E+04  0.39882979537E+04  0.25500000000E-02 0. -1.
         -2   -1    0    0    0  501 -0.00000000000E+00 -0.00000000000E+00 -0.25130374775E+04  0.25130374775E+04  0.25500000000E-02 0.  1.
    8880023    1    1    2    0    0  0.16272315705E+04  0.18786891527E+03 -0.19930843567E+04  0.26625876084E+04  0.65864270000E+03 0.  0.
    8880022    1    1    2    0    0 -0.16272315705E+04 -0.18786891527E+03  0.34683448329E+04  0.38387478227E+04  0.15294330000E+03 0.  0.
<mgrwt>
<rscale>  0 0.17346148E+04</rscale>
<asrwt>0</asrwt>
<pdfrwt beam="1">  1        2 0.61358430E+00 0.17654992E+04</pdfrwt>
<pdfrwt beam="2">  1       -2 0.38662115E+00 0.17654992E+04</pdfrwt>
<totfact> 0.28980909E-03</totfact>
</mgrwt>
</event>
<event>
 4    5  0.1112901E-007  0.1169132E+04  0.7818608E-02  0.9187729E-01
          2   -1    0    0  501    0  0.00000000000E+00  0.00000000000E+00  0.16157695824E+04  0.16157695824E+04  0.25500000000E-02 0. -1.
         -2   -1    0    0    0  501 -0.00000000000E+00 -0.00000000000E+00 -0.12667901075E+04  0.12667901075E+04  0.25500000000E-02 0.  1.
    8880023    1    1    2    0    0  0.84649833148E+03 -0.46529444206E+03 -0.76732564028E+03  0.13984481354E+04  0.65864270000E+03 0.  0.
    8880022    1    1    2    0    0 -0.84649833148E+03  0.46529444206E+03  0.11163051151E+04  0.14841115545E+04  0.15294330000E+03 0.  0.
<mgrwt>
<rscale>  0 0.11180991E+04</rscale>
<asrwt>0</asrwt>
<pdfrwt beam="1">  1        2 0.24857993E+00 0.11691315E+04</pdfrwt>
<pdfrwt beam="2">  1       -2 0.19489079E+00 0.11691315E+04</pdfrwt>
<totfact> 0.15293174E+00</totfact>
</mgrwt>
</event>
<event>
 4    5  0.1112901E-007  0.9795384E+03  0.7818608E-02  0.9408831E-01
          2   -1    0    0  501    0  0.00000000000E+00  0.00000000000E+00  0.71765400305E+03  0.71765400305E+03  0.25500000000E-02 0. -1.
         -2   -1    0    0    0  501 -0.00000000000E+00 -0.00000000000E+00 -0.24163867104E+04  0.24163867104E+04  0.25500000000E-02 0.  1.
    8880023    1    1    2    0    0  0.71226553351E+03 -0.13551045949E+03  0.28193214445E+03  0.10193042800E+04  0.65864270000E+03 0. -1.
    8880022    1    1    2    0    0 -0.71226553351E+03  0.13551045949E+03 -0.19806648518E+04  0.21147364334E+04  0.15294330000E+03 0.  0.
<mgrwt>
<rscale>  0 0.91352461E+03</rscale>
<asrwt>0</asrwt>
<pdfrwt beam="1">  1        2 0.11040831E+00 0.97953840E+03</pdfrwt>
<pdfrwt beam="2">  1       -2 0.37175180E+00 0.97953840E+03</pdfrwt>
<totfact> 0.45742439E-01</totfact>
</mgrwt>
</event>
<event>
 4    5  0.1112901E-007  0.9389843E+03  0.7818608E-02  0.9466144E-01
         -2   -1    0    0    0  501 -0.00000000000E+00  0.00000000000E+00  0.10321796140E+04  0.10321796140E+04  0.25500000000E-02 0.  1.
          2   -1    0    0  501    0  0.00000000000E+00 -0.00000000000E+00 -0.17655372515E+04  0.17655372515E+04  0.25500000000E-02 0. -1.
    8880023    1    1    2    0    0 -0.66760187224E+03 -0.46787282249E+02 -0.14993559901E+04  0.17691127440E+04  0.65864270000E+03 0.  0.
    8880022    1    1    2    0    0  0.66760187224E+03  0.46787282249E+02  0.76599835262E+03  0.10286041215E+04  0.15294330000E+03 0.  1.
<mgrwt>
<rscale>  0 0.86826604E+03</rscale>
<asrwt>0</asrwt>
<pdfrwt beam="1">  1        2 0.27162112E+00 0.93898430E+03</pdfrwt>
<pdfrwt beam="2">  1       -2 0.15879686E+00 0.93898430E+03</pdfrwt>
<totfact> 0.23256268E+00</totfact>
</mgrwt>
</event>
<event>
 4    5  0.1112901E-007  0.6592660E+03  0.7818608E-02  0.1024921E+00
          2   -1    0    0  501    0  0.00000000000E+00  0.00000000000E+00  0.35299811651E+04  0.35299811651E+04  0.25500000000E-02 0. -1.
         -2   -1    0    0    0  501 -0.00000000000E+00 -0.00000000000E+00 -0.44823388371E+03  0.44823388372E+03  0.25500000000E-02 0.  1.
    8880023    1    1    2    0    0 -0.25579063171E+02  0.12927451325E+02 -0.20297845467E+03  0.68980567321E+03  0.65864270000E+03 0.  1.
    8880022    1    1    2    0    0  0.25579063171E+02 -0.12927451325E+02  0.32847257361E+04  0.32884093757E+04  0.15294330000E+03 0.  0.
<mgrwt>
<rscale>  0 0.45951713E+03</rscale>
<asrwt>0</asrwt>
<pdfrwt beam="1">  1        2 0.54307403E+00 0.65926597E+03</pdfrwt>
<pdfrwt beam="2">  1       -2 0.68959058E-01 0.65926597E+03</pdfrwt>
<totfact> 0.16566686E+00</totfact>
</mgrwt>
</event>
<event>
 4    5  0.1112901E-007  0.7598067E+03  0.7818608E-02  0.9805608E-01
          2   -1    0    0  501    0  0.00000000000E+00  0.00000000000E+00  0.16789517891E+04  0.16789517891E+04  0.25500000000E-02 0. -1.
         -2   -1    0    0    0  501 -0.00000000000E+00 -0.00000000000E+00 -0.65842547090E+03  0.65842547090E+03  0.25500000000E-02 0.  1.
    8880023    1    1    2    0    0 -0.18939062557E+02  0.37833500248E+03 -0.40042800489E+03  0.85886486455E+03  0.65864270000E+03 0.  1.
    8880022    1    1    2    0    0  0.18939062557E+02 -0.37833500248E+03  0.14209543231E+04  0.14785123955E+04  0.15294330000E+03 0.  0.
<mgrwt>
<rscale>  0 0.65062448E+03</rscale>
<asrwt>0</asrwt>
<pdfrwt beam="1">  1        2 0.25830027E+00 0.75980673E+03</pdfrwt>
<pdfrwt beam="2">  1       -2 0.10129623E+00 0.75980673E+03</pdfrwt>
<totfact> 0.82880628E+00</totfact>
</mgrwt>
</event>
<event>
 4    5  0.1112901E-007  0.1494674E+04  0.7818608E-02  0.8913406E-01
          2   -1    0    0  501    0  0.00000000000E+00  0.00000000000E+00  0.38500832735E+04  0.38500832735E+04  0.25500000000E-02 0. -1.
         -2   -1    0    0    0  501 -0.00000000000E+00 -0.00000000000E+00 -0.76050720112E+03  0.76050720112E+03  0.25500000000E-02 0.  1.
    8880023    1    1    2    0    0 -0.55948081875E+03 -0.12195168020E+04  0.31886636217E+03  0.15283082085E+04  0.65864270000E+03 0.  1.
    8880022    1    1    2    0    0  0.55948081875E+03  0.12195168020E+04  0.27707097102E+04  0.30822822661E+04  0.15294330000E+03 0.  0.
<mgrwt>
<rscale>  0 0.14572263E+04</rscale>
<asrwt>0</asrwt>
<pdfrwt beam="1">  1        2 0.59232051E+00 0.14946740E+04</pdfrwt>
<pdfrwt beam="2">  1       -2 0.11700111E+00 0.14946740E+04</pdfrwt>
<totfact> 0.24511854E-01</totfact>
</mgrwt>
</event>
<event>
 4    5  0.1112901E-007  0.9003504E+03  0.7818608E-02  0.9525469E-01
         -2   -1    0    0    0  501 -0.00000000000E+00  0.00000000000E+00  0.63216286178E+03  0.63216286178E+03  0.25500000000E-02 0.  1.
          2   -1    0    0  501    0  0.00000000000E+00 -0.00000000000E+00 -0.28668481343E+04  0.28668481343E+04  0.25500000000E-02 0. -1.
    8880023    1    1    2    0    0  0.18773817334E+03 -0.58444418739E+03  0.25051721900E+03  0.93455321581E+03  0.65864270000E+03 0.  1.
    8880022    1    1    2    0    0 -0.18773817334E+03  0.58444418739E+03 -0.24852024916E+04  0.25644577803E+04  0.15294330000E+03 0.  0.
<mgrwt>
<rscale>  0 0.82431836E+03</rscale>
<asrwt>0</asrwt>
<pdfrwt beam="1">  1        2 0.44105355E+00 0.90035040E+03</pdfrwt>
<pdfrwt beam="2">  1       -2 0.97255827E-01 0.90035040E+03</pdfrwt>
<totfact> 0.19186921E+00</totfact>
</mgrwt>
</event>
<event>
 4    5  0.1112901E-007  0.9379164E+03  0.7818608E-02  0.9467717E-01
          2   -1    0    0  501    0  0.00000000000E+00  0.00000000000E+00  0.10149225249E+04  0.10149225249E+04  0.25500000000E-02 0. -1.
         -2   -1    0    0    0  501 -0.00000000000E+00 -0.00000000000E+00 -0.10906940160E+04  0.10906940160E+04  0.25500000000E-02 0.  1.
    8880023    1    1    2    0    0 -0.57803403805E+03 -0.33429575507E+03 -0.70666083840E+03  0.11743324690E+04  0.65864270000E+03 0.  1.
    8880022    1    1    2    0    0  0.57803403805E+03  0.33429575507E+03  0.63088934728E+03  0.93128407187E+03  0.15294330000E+03 0.  0.
<mgrwt>
<rscale>  0 0.86706328E+03</rscale>
<asrwt>0</asrwt>
<pdfrwt beam="1">  1        2 0.15614193E+00 0.93791642E+03</pdfrwt>
<pdfrwt beam="2">  1       -2 0.16779908E+00 0.93791642E+03</pdfrwt>
<totfact> 0.54317444E+00</totfact>
</mgrwt>
</event>
<event>
 4    5  0.1112901E-007  0.1015872E+04  0.7818608E-02  0.9361081E-01
         -2   -1    0    0    0  501 -0.00000000000E+00  0.00000000000E+00  0.20966875270E+04  0.20966875270E+04  0.25500000000E-02 0.  1.
          2   -1    0    0  501    0  0.00000000000E+00 -0.00000000000E+00 -0.53976374571E+03  0.53976374572E+03  0.25500000000E-02 0. -1.
    8880023    1    1    2    0    0 -0.16925289611E+03  0.75467757332E+03  0.15442045461E+03  0.10275410773E+04  0.65864270000E+03 0. -1.
    8880022    1    1    2    0    0  0.16925289611E+03 -0.75467757332E+03  0.14025033267E+04  0.16089101954E+04  0.15294330000E+03 0.  0.
<mgrwt>
<rscale>  0 0.95348950E+03</rscale>
<asrwt>0</asrwt>
<pdfrwt beam="1">  1        2 0.83040578E-01 0.10158715E+04</pdfrwt>
<pdfrwt beam="2">  1       -2 0.32256730E+00 0.10158715E+04</pdfrwt>
<totfact> 0.13099965E+00</totfact>
</mgrwt>
</event>
<event>
 4    5  0.1112901E-007  0.9053249E+03  0.7818608E-02  0.9517537E-01
         -2   -1    0    0    0  501 -0.00000000000E+00  0.00000000000E+00  0.45227538150E+03  0.45227538150E+03  0.25500000000E-02 0.  1.
          2   -1    0    0  501    0  0.00000000000E+00 -0.00000000000E+00 -0.21474867597E+04  0.21474867597E+04  0.25500000000E-02 0. -1.
    8880023    1    1    2    0    0  0.56797526756E+03 -0.25141026950E+03 -0.13735365271E+03  0.91568513166E+03  0.65864270000E+03 0.  0.
    8880022    1    1    2    0    0 -0.56797526756E+03  0.25141026950E+03 -0.15578577255E+04  0.16840770096E+04  0.15294330000E+03 0. -1.
<mgrwt>
<rscale>  0 0.83003157E+03</rscale>
<asrwt>0</asrwt>
<pdfrwt beam="1">  1        2 0.33038257E+00 0.90532493E+03</pdfrwt>
<pdfrwt beam="2">  1       -2 0.69580829E-01 0.90532493E+03</pdfrwt>
<totfact> 0.10582519E+01</totfact>
</mgrwt>
</event>
<event>
 4    5  0.1112901E-007  0.9370111E+03  0.7818608E-02  0.9469054E-01
          2   -1    0    0  501    0  0.00000000000E+00  0.00000000000E+00  0.31481906452E+04  0.31481906452E+04  0.25500000000E-02 0. -1.
         -2   -1    0    0    0  501 -0.00000000000E+00 -0.00000000000E+00 -0.62783440220E+03  0.62783440220E+03  0.25500000000E-02 0.  1.
    8880023    1    1    2    0    0  0.98482003537E+01  0.66639522146E+03 -0.21091762571E+03  0.96045615691E+03  0.65864270000E+03 0.  1.
    8880022    1    1    2    0    0 -0.98482003537E+01 -0.66639522146E+03  0.27312738687E+04  0.28155688905E+04  0.15294330000E+03 0.  0.
<mgrwt>
<rscale>  0 0.86604313E+03</rscale>
<asrwt>0</asrwt>
<pdfrwt beam="1">  1        2 0.48433703E+00 0.93701109E+03</pdfrwt>
<pdfrwt beam="2">  1       -2 0.96589906E-01 0.93701109E+03</pdfrwt>
<totfact> 0.12996820E+00</totfact>
</mgrwt>
</event>
<event>
 4    5  0.1112901E-007  0.7459516E+03  0.7818608E-02  0.9842938E-01
          2   -1    0    0  501    0  0.00000000000E+00  0.00000000000E+00  0.34623825338E+04  0.34623825338E+04  0.25500000000E-02 0. -1.
         -2   -1    0    0    0  501 -0.00000000000E+00 -0.00000000000E+00 -0.11884137029E+03  0.11884137031E+03  0.25500000000E-02 0.  1.
    8880023    1    1    2    0    0 -0.22978329485E+03  0.26425975069E+03  0.12708592798E+04  0.14736102245E+04  0.65864270000E+03 0.  1.
    8880022    1    1    2    0    0  0.22978329485E+03 -0.26425975069E+03  0.20726818837E+04  0.21076136796E+04  0.15294330000E+03 0.  0.
<mgrwt>
<rscale>  0 0.63108299E+03</rscale>
<asrwt>0</asrwt>
<pdfrwt beam="1">  1        2 0.53267429E+00 0.74595160E+03</pdfrwt>
<pdfrwt beam="2">  1       -2 0.18283286E-01 0.74595160E+03</pdfrwt>
<totfact> 0.23183269E+01</totfact>
</mgrwt>
</event>
<event>
 4    5  0.1112901E-007  0.9445559E+03  0.7818608E-02  0.9457991E-01
         -2   -1    0    0    0  501 -0.00000000000E+00  0.00000000000E+00  0.20428789250E+04  0.20428789250E+04  0.25500000000E-02 0.  1.
          2   -1    0    0  501    0  0.00000000000E+00 -0.00000000000E+00 -0.12736223100E+04  0.12736223100E+04  0.25500000000E-02 0. -1.
    8880023    1    1    2    0    0 -0.67463831435E+03 -0.56910672026E+02  0.18238867752E+04  0.20539593119E+04  0.65864270000E+03 0.  1.
    8880022    1    1    2    0    0  0.67463831435E+03  0.56910672026E+02 -0.10546301603E+04  0.12625419232E+04  0.15294330000E+03 0.  0.
<mgrwt>
<rscale>  0 0.87453143E+03</rscale>
<asrwt>0</asrwt>
<pdfrwt beam="1">  1        2 0.19594189E+00 0.94455592E+03</pdfrwt>
<pdfrwt beam="2">  1       -2 0.31428906E+00 0.94455592E+03</pdfrwt>
<totfact> 0.45178376E-01</totfact>
</mgrwt>
</event>
<event>
 4    5  0.1112901E-007  0.1008394E+04  0.7818608E-02  0.9370658E-01
          2   -1    0    0  501    0  0.00000000000E+00  0.00000000000E+00  0.12657204439E+04  0.12657204439E+04  0.25500000000E-02 0. -1.
         -2   -1    0    0    0  501 -0.00000000000E+00 -0.00000000000E+00 -0.97469215712E+03  0.97469215713E+03  0.25500000000E-02 0.  1.
    8880023    1    1    2    0    0 -0.76170617205E+03  0.53394588175E+02 -0.50417149953E+03  0.11274069282E+04  0.65864270000E+03 0.  1.
    8880022    1    1    2    0    0  0.76170617205E+03 -0.53394588175E+02  0.79519978635E+03  0.11130056729E+04  0.15294330000E+03 0.  0.
<mgrwt>
<rscale>  0 0.94530274E+03</rscale>
<asrwt>0</asrwt>
<pdfrwt beam="1">  1        2 0.19472622E+00 0.10083935E+04</pdfrwt>
<pdfrwt beam="2">  1       -2 0.14995264E+00 0.10083935E+04</pdfrwt>
<totfact> 0.51436039E+00</totfact>
</mgrwt>
</event>
<event>
 4    5  0.1112901E-007  0.1152016E+04  0.7818608E-02  0.9205239E-01
          2   -1    0    0  501    0  0.00000000000E+00  0.00000000000E+00  0.12782081296E+04  0.12782081296E+04  0.25500000000E-02 0. -1.
         -2   -1    0    0    0  501 -0.00000000000E+00 -0.00000000000E+00 -0.10099544044E+04  0.10099544044E+04  0.25500000000E-02 0.  1.
    8880023    1    1    2    0    0  0.94250792241E+03  0.70783601311E+02 -0.27903259440E+03  0.11853273375E+04  0.65864270000E+03 0.  1.
    8880022    1    1    2    0    0 -0.94250792241E+03 -0.70783601311E+02  0.54728631966E+03  0.11028351965E+04  0.15294330000E+03 0.  0.
<mgrwt>
<rscale>  0 0.10999521E+04</rscale>
<asrwt>0</asrwt>
<pdfrwt beam="1">  1        2 0.19664740E+00 0.11520164E+04</pdfrwt>
<pdfrwt beam="2">  1       -2 0.15537760E+00 0.11520164E+04</pdfrwt>
<totfact> 0.45339583E+00</totfact>
</mgrwt>
</event>
<event>
 4    5  0.1112901E-007  0.7524484E+03  0.7818608E-02  0.9825065E-01
          2   -1    0    0  501    0  0.00000000000E+00  0.00000000000E+00  0.18788481416E+04  0.18788481416E+04  0.25500000000E-02 0. -1.
         -2   -1    0    0    0  501 -0.00000000000E+00 -0.00000000000E+00 -0.43054794446E+03  0.43054794446E+03  0.25500000000E-02 0.  1.
    8880023    1    1    2    0    0 -0.19251861548E+03 -0.30871515235E+03 -0.55669929935E+02  0.75450500989E+03  0.65864270000E+03 0.  1.
    8880022    1    1    2    0    0  0.19251861548E+03  0.30871515235E+03  0.15039701271E+04  0.15548910762E+04  0.15294330000E+03 0.  0.
<mgrwt>
<rscale>  0 0.64034585E+03</rscale>
<asrwt>0</asrwt>
<pdfrwt beam="1">  1        2 0.28905357E+00 0.75244845E+03</pdfrwt>
<pdfrwt beam="2">  1       -2 0.66238144E-01 0.75244845E+03</pdfrwt>
<totfact> 0.16866928E+01</totfact>
</mgrwt>
</event>
<event>
 4    5  0.1112901E-007  0.7990342E+03  0.7818608E-02  0.9712888E-01
          2   -1    0    0  501    0  0.00000000000E+00  0.00000000000E+00  0.22950130540E+04  0.22950130540E+04  0.25500000000E-02 0. -1.
         -2   -1    0    0    0  501 -0.00000000000E+00 -0.00000000000E+00 -0.26107354093E+03  0.26107354094E+03  0.25500000000E-02 0.  1.
    8880023    1    1    2    0    0 -0.22453478005E+03 -0.39272079786E+03  0.48386077720E+03  0.93411827436E+03  0.65864270000E+03 0.  0.
    8880022    1    1    2    0    0  0.22453478005E+03  0.39272079786E+03  0.15500787358E+04  0.16219683205E+04  0.15294330000E+03 0.  0.
<mgrwt>
<rscale>  0 0.70254595E+03</rscale>
<asrwt>0</asrwt>
<pdfrwt beam="1">  1        2 0.35307894E+00 0.79903423E+03</pdfrwt>
<pdfrwt beam="2">  1       -2 0.40165160E-01 0.79903423E+03</pdfrwt>
<totfact> 0.27635483E+01</totfact>
</mgrwt>
</event>
<event>
 4    5  0.1283382E-007  0.1172488E+04  0.7818608E-02  0.9184341E-01
          2   -1    0    0  501    0  0.00000000000E+00  0.00000000000E+00  0.27013081097E+04  0.27013081097E+04  0.25500000000E-02 0. -1.
         -2   -1    0    0    0  501 -0.00000000000E+00 -0.00000000000E+00 -0.15686893648E+04  0.15686893648E+04  0.25500000000E-02 0.  1.
    8880023    1    1    2    0    0  0.42727845763E+03 -0.87083380055E+03 -0.12373556844E+04  0.17046341791E+04  0.65864270000E+03 0.  1.
    8880022    1    1    2    0    0 -0.42727845763E+03  0.87083380055E+03  0.23699744293E+04  0.25653632953E+04  0.15294330000E+03 0.  0.
<mgrwt>
<rscale>  0 0.11216528E+04</rscale>
<asrwt>0</asrwt>
<pdfrwt beam="1">  1        2 0.41558586E+00 0.11724882E+04</pdfrwt>
<pdfrwt beam="2">  1       -2 0.24133683E+00 0.11724882E+04</pdfrwt>
<totfact> 0.18953827E-01</totfact>
</mgrwt>
</event>
<event>
 4    5  0.1112901E-007  0.1139445E+04  0.7818608E-02  0.9218360E-01
         -2   -1    0    0    0  501 -0.00000000000E+00  0.00000000000E+00  0.82519680128E+03  0.82519680129E+03  0.25500000000E-02 0.  1.
          2   -1    0    0  501    0  0.00000000000E+00 -0.00000000000E+00 -0.37590231133E+04  0.37590231133E+04  0.25500000000E-02 0. -1.
    8880023    1    1    2    0    0  0.81116169762E+03  0.45446802497E+03  0.33066391419E+03  0.11864540934E+04  0.65864270000E+03 0.  1.
    8880022    1    1    2    0    0 -0.81116169762E+03 -0.45446802497E+03 -0.32644902262E+04  0.33977658212E+04  0.15294330000E+03 0.  0.
<mgrwt>
<rscale>  0 0.10865920E+04</rscale>
<asrwt>0</asrwt>
<pdfrwt beam="1">  1        2 0.57831124E+00 0.11394449E+04</pdfrwt>
<pdfrwt beam="2">  1       -2 0.12695336E+00 0.11394449E+04</pdfrwt>
<totfact> 0.24654977E-01</totfact>
</mgrwt>
</event>
<event>
 4    5  0.1112901E-007  0.1570320E+04  0.7818608E-02  0.8861513E-01
          2   -1    0    0  501    0  0.00000000000E+00  0.00000000000E+00  0.39560857583E+04  0.39560857583E+04  0.25500000000E-02 0. -1.
         -2   -1    0    0    0  501 -0.00000000000E+00 -0.00000000000E+00 -0.10795062778E+04  0.10795062778E+04  0.25500000000E-02 0.  1.
    8880023    1    1    2    0    0  0.13828881489E+04 -0.34599815884E+03 -0.25550198920E+03  0.15909700911E+04  0.65864270000E+03 0.  0.
    8880022    1    1    2    0    0 -0.13828881489E+04  0.34599815884E+03  0.31320814697E+04  0.34446219450E+04  0.15294330000E+03 0.  0.
<mgrwt>
<rscale>  0 0.15349895E+04</rscale>
<asrwt>0</asrwt>
<pdfrwt beam="1">  1        2 0.60862857E+00 0.15703199E+04</pdfrwt>
<pdfrwt beam="2">  1       -2 0.16607789E+00 0.15703199E+04</pdfrwt>
<totfact> 0.80077653E-02</totfact>
</mgrwt>
</event>
<event>
 4    5  0.1112901E-007  0.8638155E+03  0.7818608E-02  0.9586812E-01
         -2   -1    0    0    0  501 -0.00000000000E+00  0.00000000000E+00  0.50542082730E+03  0.50542082731E+03  0.25500000000E-02 0.  1.
          2   -1    0    0  501    0  0.00000000000E+00 -0.00000000000E+00 -0.32041686299E+04  0.32041686299E+04  0.25500000000E-02 0. -1.
    8880023    1    1    2    0    0  0.24329427272E+03 -0.50316497024E+03  0.83314690253E+02  0.86782408027E+03  0.65864270000E+03 0.  0.
    8880022    1    1    2    0    0 -0.24329427272E+03  0.50316497024E+03 -0.27820624929E+04  0.28417653769E+04  0.15294330000E+03 0.  0.
<mgrwt>
<rscale>  0 0.78175232E+03</rscale>
<asrwt>0</asrwt>
<pdfrwt beam="1">  1        2 0.49294901E+00 0.86381555E+03</pdfrwt>
<pdfrwt beam="2">  1       -2 0.77757052E-01 0.86381555E+03</pdfrwt>
<totfact> 0.19954563E+00</totfact>
</mgrwt>
</event>
<event>
 4    5  0.1112901E-007  0.6745110E+03  0.7818608E-02  0.1012616E+00
          2   -1    0    0  501    0  0.00000000000E+00  0.00000000000E+00  0.12779909575E+04  0.12779909575E+04  0.25500000000E-02 0. -1.
         -2   -1    0    0    0  501 -0.00000000000E+00 -0.00000000000E+00 -0.35978229224E+03  0.35978229225E+03  0.25500000000E-02 0.  1.
    8880023    1    1    2    0    0  0.12895869439E+03 -0.67264855549E+02 -0.21301754282E+02  0.67484729876E+03  0.65864270000E+03 0.  1.
    8880022    1    1    2    0    0 -0.12895869439E+03  0.67264855549E+02  0.93951041954E+03  0.96292595099E+03  0.15294330000E+03 0.  0.
<mgrwt>
<rscale>  0 0.50447954E+03</rscale>
<asrwt>0</asrwt>
<pdfrwt beam="1">  1        2 0.19661399E+00 0.67451102E+03</pdfrwt>
<pdfrwt beam="2">  1       -2 0.55351122E-01 0.67451102E+03</pdfrwt>
<totfact> 0.53619642E+01</totfact>
</mgrwt>
</event>
<event>
 4    5  0.1112901E-007  0.7149180E+03  0.7818608E-02  0.9940172E-01
         -2   -1    0    0    0  501 -0.00000000000E+00  0.00000000000E+00  0.90592625339E+03  0.90592625339E+03  0.25500000000E-02 0.  1.
          2   -1    0    0  501    0  0.00000000000E+00 -0.00000000000E+00 -0.65692410694E+03  0.65692410695E+03  0.25500000000E-02 0. -1.
    8880023    1    1    2    0    0 -0.27524037986E+03 -0.39246773461E+02  0.70713464213E+03  0.10055581457E+04  0.65864270000E+03 0.  1.
    8880022    1    1    2    0    0  0.27524037986E+03  0.39246773461E+02 -0.45813249568E+03  0.55729221468E+03  0.15294330000E+03 0.  0.
<mgrwt>
<rscale>  0 0.58353252E+03</rscale>
<asrwt>0</asrwt>
<pdfrwt beam="1">  1        2 0.10106525E+00 0.71491802E+03</pdfrwt>
<pdfrwt beam="2">  1       -2 0.13937327E+00 0.71491802E+03</pdfrwt>
<totfact> 0.16410567E+01</totfact>
</mgrwt>
</event>
<event>
 4    5  0.1112901E-007  0.1392987E+04  0.7818608E-02  0.8989151E-01
         -2   -1    0    0    0  501 -0.00000000000E+00  0.00000000000E+00  0.12627711481E+04  0.12627711481E+04  0.25500000000E-02 0.  1.
          2   -1    0    0  501    0  0.00000000000E+00 -0.00000000000E+00 -0.16894475346E+04  0.16894475346E+04  0.25500000000E-02 0. -1.
    8880023    1    1    2    0    0 -0.10927932097E+04 -0.55893181142E+03 -0.86525093819E+03  0.16398387608E+04  0.65864270000E+03 0. -1.
    8880022    1    1    2    0    0  0.10927932097E+04  0.55893181142E+03  0.43857455162E+03  0.13123799219E+04  0.15294330000E+03 0.  0.
<mgrwt>
<rscale>  0 0.13522171E+04</rscale>
<asrwt>0</asrwt>
<pdfrwt beam="1">  1        2 0.25991500E+00 0.13929867E+04</pdfrwt>
<pdfrwt beam="2">  1       -2 0.19427249E+00 0.13929867E+04</pdfrwt>
<totfact> 0.13715498E+00</totfact>
</mgrwt>
</event>
<event>
 4    5  0.1112901E-007  0.9564145E+03  0.7818608E-02  0.9440944E-01
         -2   -1    0    0    0  501 -0.00000000000E+00  0.00000000000E+00  0.45081451445E+03  0.45081451446E+03  0.25500000000E-02 0.  1.
          2   -1    0    0  501    0  0.00000000000E+00 -0.00000000000E+00 -0.17484038386E+04  0.17484038386E+04  0.25500000000E-02 0. -1.
    8880023    1    1    2    0    0 -0.43307924074E+03 -0.54162793723E+03 -0.35748854897E+03  0.10210419776E+04  0.65864270000E+03 0.  0.
    8880022    1    1    2    0    0  0.43307924074E+03  0.54162793723E+03 -0.94010077519E+03  0.11781763755E+04  0.15294330000E+03 0.  0.
<mgrwt>
<rscale>  0 0.88781365E+03</rscale>
<asrwt>0</asrwt>
<pdfrwt beam="1">  1        2 0.26898520E+00 0.95641448E+03</pdfrwt>
<pdfrwt beam="2">  1       -2 0.69356080E-01 0.95641448E+03</pdfrwt>
<totfact> 0.17562042E+01</totfact>
</mgrwt>
</event>
<event>
 4    5  0.1112901E-007  0.1316445E+04  0.7818608E-02  0.9051487E-01
          2   -1    0    0  501    0  0.00000000000E+00  0.00000000000E+00  0.26560112372E+04  0.26560112372E+04  0.25500000000E-02 0. -1.
         -2   -1    0    0    0  501 -0.00000000000E+00 -0.00000000000E+00 -0.69854778246E+03  0.69854778247E+03  0.25500000000E-02 0.  1.
    8880023    1    1    2    0    0 -0.79232560714E+03  0.81941305343E+03  0.17436603667E+04  0.21848064675E+04  0.65864270000E+03 0.  0.
    8880022    1    1    2    0    0  0.79232560714E+03 -0.81941305343E+03  0.21380308809E+03  0.11697525522E+04  0.15294330000E+03 0.  0.
<mgrwt>
<rscale>  0 0.12727146E+04</rscale>
<asrwt>0</asrwt>
<pdfrwt beam="1">  1        2 0.40861711E+00 0.13164451E+04</pdfrwt>
<pdfrwt beam="2">  1       -2 0.10746889E+00 0.13164451E+04</pdfrwt>
<totfact> 0.19035448E+00</totfact>
</mgrwt>
</event>
<event>
 4    5  0.1112901E-007  0.1010063E+04  0.7818608E-02  0.9368509E-01
          2   -1    0    0  501    0  0.00000000000E+00  0.00000000000E+00  0.34402126990E+04  0.34402126990E+04  0.25500000000E-02 0. -1.
         -2   -1    0    0    0  501 -0.00000000000E+00 -0.00000000000E+00 -0.45728752810E+03  0.45728752811E+03  0.25500000000E-02 0.  1.
    8880023    1    1    2    0    0 -0.50645164266E+03 -0.57439041610E+03  0.22994290340E+03  0.10359061548E+04  0.65864270000E+03 0.  0.
    8880022    1    1    2    0    0  0.50645164266E+03  0.57439041610E+03  0.27529822675E+04  0.28615940723E+04  0.15294330000E+03 0.  0.
<mgrwt>
<rscale>  0 0.94713239E+03</rscale>
<asrwt>0</asrwt>
<pdfrwt beam="1">  1        2 0.52926353E+00 0.10100633E+04</pdfrwt>
<pdfrwt beam="2">  1       -2 0.70351923E-01 0.10100633E+04</pdfrwt>
<totfact> 0.16983108E+00</totfact>
</mgrwt>
</event>
<event>
 4    5  0.1112901E-007  0.1158587E+04  0.7818608E-02  0.9198469E-01
          2   -1    0    0  501    0  0.00000000000E+00  0.00000000000E+00  0.27931508560E+04  0.27931508560E+04  0.25500000000E-02 0. -1.
         -2   -1    0    0    0  501 -0.00000000000E+00 -0.00000000000E+00 -0.67209796460E+03  0.67209796461E+03  0.25500000000E-02 0.  1.
    8880023    1    1    2    0    0  0.22464481937E+03  0.92630929480E+03  0.22105385701E+04  0.24957574363E+04  0.65864270000E+03 0.  0.
    8880022    1    1    2    0    0 -0.22464481937E+03 -0.92630929480E+03 -0.89485678759E+02  0.96949138429E+03  0.15294330000E+03 0.  0.
<mgrwt>
<rscale>  0 0.11069247E+04</rscale>
<asrwt>0</asrwt>
<pdfrwt beam="1">  1        2 0.42971551E+00 0.11585872E+04</pdfrwt>
<pdfrwt beam="2">  1       -2 0.10339969E+00 0.11585872E+04</pdfrwt>
<totfact> 0.17663813E+00</totfact>
</mgrwt>
</event>
<event>
 4    5  0.1653982E-007  0.1719021E+04  0.7818608E-02  0.8768705E-01
          2   -1    0    0  501    0  0.00000000000E+00  0.00000000000E+00  0.22715773451E+04  0.22715773451E+04  0.25500000000E-02 0. -1.
         -2   -1    0    0    0  501 -0.00000000000E+00 -0.00000000000E+00 -0.26599896896E+04  0.26599896896E+04  0.25500000000E-02 0.  1.
    8880023    1    1    2    0    0 -0.15791370103E+04  0.16598274581E+03 -0.20181775823E+04  0.26510516648E+04  0.65864270000E+03 0.  0.
    8880022    1    1    2    0    0  0.15791370103E+04 -0.16598274581E+03  0.16297652378E+04  0.22805153699E+04  0.15294330000E+03 0.  0.
<mgrwt>
<rscale>  0 0.16871889E+04</rscale>
<asrwt>0</asrwt>
<pdfrwt beam="1">  1        2 0.34947343E+00 0.17190213E+04</pdfrwt>
<pdfrwt beam="2">  1       -2 0.40922919E+00 0.17190213E+04</pdfrwt>
<totfact> 0.27708962E-02</totfact>
</mgrwt>
</event>
<event>
 4    5  0.1112901E-007  0.1469927E+04  0.7818608E-02  0.8931169E-01
         -2   -1    0    0    0  501 -0.00000000000E+00  0.00000000000E+00  0.88204737224E+03  0.88204737225E+03  0.25500000000E-02 0.  1.
          2   -1    0    0  501    0  0.00000000000E+00 -0.00000000000E+00 -0.43222965450E+04  0.43222965450E+04  0.25500000000E-02 0. -1.
    8880023    1    1    2    0    0 -0.11986116042E+04  0.53870669334E+03  0.51024673378E+02  0.14708121575E+04  0.65864270000E+03 0.  0.
    8880022    1    1    2    0    0  0.11986116042E+04 -0.53870669334E+03 -0.34912738461E+04  0.37335317597E+04  0.15294330000E+03 0.  0.
<mgrwt>
<rscale>  0 0.14317256E+04</rscale>
<asrwt>0</asrwt>
<pdfrwt beam="1">  1        2 0.66496869E+00 0.14699268E+04</pdfrwt>
<pdfrwt beam="2">  1       -2 0.13569960E+00 0.14699268E+04</pdfrwt>
<totfact> 0.68662133E-02</totfact>
</mgrwt>
</event>
<event>
 4    5  0.1112901E-007  0.1701211E+04  0.7818608E-02  0.8779246E-01
          2   -1    0    0  501    0  0.00000000000E+00  0.00000000000E+00  0.14816282027E+04  0.14816282027E+04  0.25500000000E-02 0. -1.
         -2   -1    0    0    0  501 -0.00000000000E+00 -0.00000000000E+00 -0.18131120322E+04  0.18131120322E+04  0.25500000000E-02 0.  1.
    8880023    1    1    2    0    0 -0.13569628653E+04 -0.78674014414E+03 -0.13490170600E+03  0.17065511855E+04  0.65864270000E+03 0. -1.
    8880022    1    1    2    0    0  0.13569628653E+04  0.78674014414E+03 -0.19658212347E+03  0.15881890494E+04  0.15294330000E+03 0.  1.
<mgrwt>
<rscale>  0 0.16689987E+04</rscale>
<asrwt>0</asrwt>
<pdfrwt beam="1">  1        2 0.22794280E+00 0.17012109E+04</pdfrwt>
<pdfrwt beam="2">  1       -2 0.27894031E+00 0.17012109E+04</pdfrwt>
<totfact> 0.51283381E-01</totfact>
</mgrwt>
</event>
<event>
 4    5  0.1112901E-007  0.6775401E+03  0.7818608E-02  0.1010751E+00
         -2   -1    0    0    0  501 -0.00000000000E+00  0.00000000000E+00  0.85479943672E+03  0.85479943672E+03  0.25500000000E-02 0.  1.
          2   -1    0    0  501    0  0.00000000000E+00 -0.00000000000E+00 -0.34643577665E+04  0.34643577665E+04  0.25500000000E-02 0. -1.
    8880023    1    1    2    0    0 -0.10533714954E+03  0.11897255913E+03  0.71631125296E+03  0.98598296246E+03  0.65864270000E+03 0.  1.
    8880022    1    1    2    0    0  0.10533714954E+03 -0.11897255913E+03 -0.33258695828E+04  0.33331742408E+04  0.15294330000E+03 0.  0.
<mgrwt>
<rscale>  0 0.51177342E+03</rscale>
<asrwt>0</asrwt>
<pdfrwt beam="1">  1        2 0.53297811E+00 0.67754010E+03</pdfrwt>
<pdfrwt beam="2">  1       -2 0.13150761E+00 0.67754010E+03</pdfrwt>
<totfact> 0.40292423E-01</totfact>
</mgrwt>
</event>
<event>
 4    5  0.1112901E-007  0.1005761E+04  0.7818608E-02  0.9374059E-01
         -2   -1    0    0    0  501 -0.00000000000E+00  0.00000000000E+00  0.16641629697E+04  0.16641629697E+04  0.25500000000E-02 0.  1.
          2   -1    0    0  501    0  0.00000000000E+00 -0.00000000000E+00 -0.10993034486E+04  0.10993034486E+04  0.25500000000E-02 0. -1.
    8880023    1    1    2    0    0 -0.16815245943E+03  0.74126187500E+03  0.13344595182E+04  0.16710286739E+04  0.65864270000E+03 0.  1.
    8880022    1    1    2    0    0  0.16815245943E+03 -0.74126187500E+03 -0.76959999706E+03  0.10924377444E+04  0.15294330000E+03 0.  0.
<mgrwt>
<rscale>  0 0.94241589E+03</rscale>
<asrwt>0</asrwt>
<pdfrwt beam="1">  1        2 0.16912361E+00 0.10057607E+04</pdfrwt>
<pdfrwt beam="2">  1       -2 0.25602507E+00 0.10057607E+04</pdfrwt>
<totfact> 0.12827545E+00</totfact>
</mgrwt>
</event>
<event>
 4    5  0.1112901E-007  0.9128637E+03  0.7818608E-02  0.9505689E-01
         -2   -1    0    0    0  501 -0.00000000000E+00  0.00000000000E+00  0.19462319081E+04  0.19462319081E+04  0.25500000000E-02 0.  1.
          2   -1    0    0  501    0  0.00000000000E+00 -0.00000000000E+00 -0.13140861097E+04  0.13140861097E+04  0.25500000000E-02 0. -1.
    8880023    1    1    2    0    0  0.11700187914E+03 -0.62114452206E+03  0.17461627541E+04  0.19703818226E+04  0.65864270000E+03 0.  1.
    8880022    1    1    2    0    0 -0.11700187914E+03  0.62114452206E+03 -0.11140169557E+04  0.12899361952E+04  0.15294330000E+03 0.  0.
<mgrwt>
<rscale>  0 0.83865700E+03</rscale>
<asrwt>0</asrwt>
<pdfrwt beam="1">  1        2 0.20216710E+00 0.91286372E+03</pdfrwt>
<pdfrwt beam="2">  1       -2 0.29942029E+00 0.91286372E+03</pdfrwt>
<totfact> 0.52957185E-01</totfact>
</mgrwt>
</event>
<event>
 4    5  0.1112901E-007  0.7630988E+03  0.7818608E-02  0.9797150E-01
          2   -1    0    0  501    0  0.00000000000E+00  0.00000000000E+00  0.20275175128E+03  0.20275175130E+03  0.25500000000E-02 0. -1.
         -2   -1    0    0    0  501 -0.00000000000E+00 -0.00000000000E+00 -0.17149341925E+04  0.17149341925E+04  0.25500000000E-02 0.  1.
    8880023    1    1    2    0    0 -0.38535784247E+03 -0.29814278865E+01 -0.10272530399E+04  0.12796751814E+04  0.65864270000E+03 0.  1.
    8880022    1    1    2    0    0  0.38535784247E+03  0.29814278865E+01 -0.48492940130E+03  0.63801076239E+03  0.15294330000E+03 0. -1.
<mgrwt>
<rscale>  0 0.65515708E+03</rscale>
<asrwt>0</asrwt>
<pdfrwt beam="1">  1        2 0.31192578E-01 0.76309879E+03</pdfrwt>
<pdfrwt beam="2">  1       -2 0.26383602E+00 0.76309879E+03</pdfrwt>
<totfact> 0.92542223E+00</totfact>
</mgrwt>
</event>
<event>
 4    5  0.1112901E-007  0.8725291E+03  0.7818608E-02  0.9571654E-01
         -2   -1    0    0    0  501 -0.00000000000E+00  0.00000000000E+00  0.11044447498E+04  0.11044447498E+04  0.25500000000E-02 0.  1.
          2   -1    0    0  501    0  0.00000000000E+00 -0.00000000000E+00 -0.14343400236E+04  0.14343400236E+04  0.25500000000E-02 0. -1.
    8880023    1    1    2    0    0  0.20602473650E+03  0.53390138639E+03  0.85026743335E+03  0.12183028347E+04  0.65864270000E+03 0.  0.
    8880022    1    1    2    0    0 -0.20602473650E+03 -0.53390138639E+03 -0.11801627072E+04  0.13204819388E+04  0.15294330000E+03 0.  0.
<mgrwt>
<rscale>  0 0.79201079E+03</rscale>
<asrwt>0</asrwt>
<pdfrwt beam="1">  1        2 0.22066770E+00 0.87252913E+03</pdfrwt>
<pdfrwt beam="2">  1       -2 0.16991458E+00 0.87252913E+03</pdfrwt>
<totfact> 0.29771124E+00</totfact>
</mgrwt>
</event>
<event>
 4    5  0.1112901E-007  0.1480395E+04  0.7818608E-02  0.8923605E-01
         -2   -1    0    0    0  501 -0.00000000000E+00  0.00000000000E+00  0.15212394810E+04  0.15212394810E+04  0.25500000000E-02 0.  1.
          2   -1    0    0  501    0  0.00000000000E+00 -0.00000000000E+00 -0.16647711119E+04  0.16647711119E+04  0.25500000000E-02 0. -1.
    8880023    1    1    2    0    0 -0.11556057706E+04  0.64987301606E+03  0.66791070605E+03  0.16240919160E+04  0.65864270000E+03 0.  0.
    8880022    1    1    2    0    0  0.11556057706E+04 -0.64987301606E+03 -0.81144233691E+03  0.15619186769E+04  0.15294330000E+03 0.  0.
<mgrwt>
<rscale>  0 0.14425167E+04</rscale>
<asrwt>0</asrwt>
<pdfrwt beam="1">  1        2 0.25611863E+00 0.14803952E+04</pdfrwt>
<pdfrwt beam="2">  1       -2 0.23403684E+00 0.14803952E+04</pdfrwt>
<totfact> 0.77908525E-01</totfact>
</mgrwt>
</event>
<event>
 4    5  0.1112901E-007  0.6861616E+03  0.7818608E-02  0.1006033E+00
          2   -1    0    0  501    0  0.00000000000E+00  0.00000000000E+00  0.11032086815E+04  0.11032086815E+04  0.25500000000E-02 0. -1.
         -2   -1    0    0    0  501 -0.00000000000E+00 -0.00000000000E+00 -0.19740036731E+03  0.19740036733E+03  0.25500000000E-02 0.  1.
    8880023    1    1    2    0    0 -0.13808345710E+03  0.13394229684E+03  0.69769033813E+03  0.97856506896E+03  0.65864270000E+03 0. -1.
    8880022    1    1    2    0    0  0.13808345710E+03 -0.13394229684E+03  0.20811797609E+03  0.32204397990E+03  0.15294330000E+03 0.  1.
<mgrwt>
<rscale>  0 0.53082180E+03</rscale>
<asrwt>0</asrwt>
<pdfrwt beam="1">  1        2 0.16972441E+00 0.68616163E+03</pdfrwt>
<pdfrwt beam="2">  1       -2 0.30369287E-01 0.68616163E+03</pdfrwt>
<totfact> 0.22039681E+02</totfact>
</mgrwt>
</event>
<event>
 4    5  0.1112901E-007  0.8759615E+03  0.7818608E-02  0.9565778E-01
         -2   -1    0    0    0  501 -0.00000000000E+00  0.00000000000E+00  0.32308613339E+03  0.32308613340E+03  0.25500000000E-02 0.  1.
          2   -1    0    0  501    0  0.00000000000E+00 -0.00000000000E+00 -0.23405866416E+04  0.23405866416E+04  0.25500000000E-02 0. -1.
    8880023    1    1    2    0    0 -0.27791443249E+03 -0.50622314265E+03 -0.44707244174E+03  0.98345425739E+03  0.65864270000E+03 0.  1.
    8880022    1    1    2    0    0  0.27791443249E+03  0.50622314265E+03 -0.15704280665E+04  0.16802185176E+04  0.15294330000E+03 0.  0.
<mgrwt>
<rscale>  0 0.79603204E+03</rscale>
<asrwt>0</asrwt>
<pdfrwt beam="1">  1        2 0.36009024E+00 0.87596148E+03</pdfrwt>
<pdfrwt beam="2">  1       -2 0.49705561E-01 0.87596148E+03</pdfrwt>
<totfact> 0.16866076E+01</totfact>
</mgrwt>
</event>
<event>
 4    5  0.1112901E-007  0.9597583E+03  0.7818608E-02  0.9436211E-01
         -2   -1    0    0    0  501 -0.00000000000E+00  0.00000000000E+00  0.50368753764E+03  0.50368753764E+03  0.25500000000E-02 0.  1.
          2   -1    0    0  501    0  0.00000000000E+00 -0.00000000000E+00 -0.14021103474E+04  0.14021103474E+04  0.25500000000E-02 0. -1.
    8880023    1    1    2    0    0 -0.64247761515E+03 -0.27303545528E+03 -0.59628742380E+03  0.11299091750E+04  0.65864270000E+03 0. -1.
    8880022    1    1    2    0    0  0.64247761515E+03  0.27303545528E+03 -0.30213538594E+03  0.77588870997E+03  0.15294330000E+03 0.  1.
<mgrwt>
<rscale>  0 0.89154652E+03</rscale>
<asrwt>0</asrwt>
<pdfrwt beam="1">  1        2 0.21570928E+00 0.95975833E+03</pdfrwt>
<pdfrwt beam="2">  1       -2 0.77490391E-01 0.95975833E+03</pdfrwt>
<totfact> 0.21432517E+01</totfact>
</mgrwt>
</event>
<event>
 4    5  0.1112901E-007  0.6645570E+03  0.7818608E-02  0.1019908E+00
          2   -1    0    0  501    0  0.00000000000E+00  0.00000000000E+00  0.73436250201E+03  0.73436250201E+03  0.25500000000E-02 0. -1.
         -2   -1    0    0    0  501 -0.00000000000E+00 -0.00000000000E+00 -0.96970338212E+03  0.96970338212E+03  0.25500000000E-02 0.  1.
    8880023    1    1    2    0    0 -0.80542846884E+02  0.36587647749E+02 -0.84173704082E+03  0.10724538490E+04  0.65864270000E+03 0.  1.
    8880022    1    1    2    0    0  0.80542846884E+02 -0.36587647749E+02  0.60639616071E+03  0.63161203511E+03  0.15294330000E+03 0.  0.
<mgrwt>
<rscale>  0 0.47719828E+03</rscale>
<asrwt>0</asrwt>
<pdfrwt beam="1">  1        2 0.11297885E+00 0.66455700E+03</pdfrwt>
<pdfrwt beam="2">  1       -2 0.14918514E+00 0.66455700E+03</pdfrwt>
<totfact> 0.12012117E+01</totfact>
</mgrwt>
</event>
<event>
 4    5  0.1112901E-007  0.7617752E+03  0.7818608E-02  0.9800533E-01
         -2   -1    0    0    0  501 -0.00000000000E+00  0.00000000000E+00  0.28185346062E+03  0.28185346063E+03  0.25500000000E-02 0.  1.
          2   -1    0    0  501    0  0.00000000000E+00 -0.00000000000E+00 -0.23210119897E+04  0.23210119897E+04  0.25500000000E-02 0. -1.
    8880023    1    1    2    0    0  0.36224290851E+03 -0.12357749730E+03 -0.30527678161E+03  0.82066768077E+03  0.65864270000E+03 0.  1.
    8880022    1    1    2    0    0 -0.36224290851E+03  0.12357749730E+03 -0.17338817474E+04  0.17821977695E+04  0.15294330000E+03 0.  0.
<mgrwt>
<rscale>  0 0.65333944E+03</rscale>
<asrwt>0</asrwt>
<pdfrwt beam="1">  1        2 0.35707876E+00 0.76177525E+03</pdfrwt>
<pdfrwt beam="2">  1       -2 0.43362072E-01 0.76177525E+03</pdfrwt>
<totfact> 0.23109059E+01</totfact>
</mgrwt>
</event>
<event>
 4    5  0.1112901E-007  0.6700677E+03  0.7818608E-02  0.1015614E+00
         -2   -1    0    0    0  501 -0.00000000000E+00  0.00000000000E+00  0.21097557316E+03  0.21097557317E+03  0.25500000000E-02 0.  1.
          2   -1    0    0  501    0  0.00000000000E+00 -0.00000000000E+00 -0.20774325812E+04  0.20774325812E+04  0.25500000000E-02 0. -1.
    8880023    1    1    2    0    0  0.88187881264E+02  0.86043124727E+02 -0.34376694425E+03  0.75310453454E+03  0.65864270000E+03 0.  1.
    8880022    1    1    2    0    0 -0.88187881264E+02 -0.86043124727E+02 -0.15226900638E+04  0.15353036199E+04  0.15294330000E+03 0.  1.
<mgrwt>
<rscale>  0 0.49302993E+03</rscale>
<asrwt>0</asrwt>
<pdfrwt beam="1">  1        2 0.31960500E+00 0.67006770E+03</pdfrwt>
<pdfrwt beam="2">  1       -2 0.32457782E-01 0.67006770E+03</pdfrwt>
<totfact> 0.55698073E+01</totfact>
</mgrwt>
</event>
<event>
 4    5  0.1112901E-007  0.8669809E+03  0.7818608E-02  0.9581264E-01
         -2   -1    0    0    0  501 -0.00000000000E+00  0.00000000000E+00  0.20540610475E+04  0.20540610475E+04  0.25500000000E-02 0.  1.
          2   -1    0    0  501    0  0.00000000000E+00 -0.00000000000E+00 -0.10543242026E+04  0.10543242026E+04  0.25500000000E-02 0. -1.
    8880023    1    1    2    0    0  0.29360778343E+03 -0.48129007378E+03  0.18694496228E+04  0.20607032208E+04  0.65864270000E+03 0.  1.
    8880022    1    1    2    0    0 -0.29360778343E+03  0.48129007378E+03 -0.86971277785E+03  0.10476820293E+04  0.15294330000E+03 0.  0.
<mgrwt>
<rscale>  0 0.78548738E+03</rscale>
<asrwt>0</asrwt>
<pdfrwt beam="1">  1        2 0.16220372E+00 0.86698089E+03</pdfrwt>
<pdfrwt beam="2">  1       -2 0.31600939E+00 0.86698089E+03</pdfrwt>
<totfact> 0.60611815E-01</totfact>
</mgrwt>
</event>
<event>
 4    5  0.1112901E-007  0.8471921E+03  0.7818608E-02  0.9616765E-01
          2   -1    0    0  501    0  0.00000000000E+00  0.00000000000E+00  0.17338453178E+04  0.17338453178E+04  0.25500000000E-02 0. -1.
         -2   -1    0    0    0  501 -0.00000000000E+00 -0.00000000000E+00 -0.33107927278E+03  0.33107927278E+03  0.25500000000E-02 0.  1.
    8880023    1    1    2    0    0 -0.36158943985E+03  0.39137874748E+03  0.44166690429E+03  0.95540782265E+03  0.65864270000E+03 0.  1.
    8880022    1    1    2    0    0  0.36158943985E+03 -0.39137874748E+03  0.96109914076E+03  0.11095167680E+04  0.15294330000E+03 0. -1.
<mgrwt>
<rscale>  0 0.76196417E+03</rscale>
<asrwt>0</asrwt>
<pdfrwt beam="1">  1        2 0.26674544E+00 0.84719210E+03</pdfrwt>
<pdfrwt beam="2">  1       -2 0.50935271E-01 0.84719210E+03</pdfrwt>
<totfact> 0.34752906E+01</totfact>
</mgrwt>
</event>
<event>
 4    5  0.1112901E-007  0.7735505E+03  0.7818608E-02  0.9771211E-01
         -2   -1    0    0    0  501 -0.00000000000E+00  0.00000000000E+00  0.12439648193E+03  0.12439648196E+03  0.25500000000E-02 0.  1.
          2   -1    0    0  501    0  0.00000000000E+00 -0.00000000000E+00 -0.30755313374E+04  0.30755313374E+04  0.25500000000E-02 0. -1.
    8880023    1    1    2    0    0  0.34324957779E+03 -0.21621731566E+03 -0.15347126814E+04  0.17186399916E+04  0.65864270000E+03 0.  1.
    8880022    1    1    2    0    0 -0.34324957779E+03  0.21621731566E+03 -0.14164221741E+04  0.14812878277E+04  0.15294330000E+03 0.  0.
<mgrwt>
<rscale>  0 0.66930678E+03</rscale>
<asrwt>0</asrwt>
<pdfrwt beam="1">  1        2 0.47315861E+00 0.77355052E+03</pdfrwt>
<pdfrwt beam="2">  1       -2 0.19137923E-01 0.77355052E+03</pdfrwt>
<totfact> 0.37944356E+01</totfact>
</mgrwt>
</event>
<event>
 4    5  0.1112901E-007  0.7335609E+03  0.7818608E-02  0.9879117E-01
          2   -1    0    0  501    0  0.00000000000E+00  0.00000000000E+00  0.97280014655E+03  0.97280014655E+03  0.25500000000E-02 0. -1.
         -2   -1    0    0    0  501 -0.00000000000E+00 -0.00000000000E+00 -0.22914441673E+04  0.22914441673E+04  0.25500000000E-02 0.  1.
    8880023    1    1    2    0    0  0.25967811277E+03  0.19201215131E+03 -0.21968675732E+04  0.23161042137E+04  0.65864270000E+03 0.  1.
    8880022    1    1    2    0    0 -0.25967811277E+03 -0.19201215131E+03  0.87822355240E+03  0.94814010015E+03  0.15294330000E+03 0.  0.
<mgrwt>
<rscale>  0 0.61284131E+03</rscale>
<asrwt>0</asrwt>
<pdfrwt beam="1">  1        2 0.14966156E+00 0.73356090E+03</pdfrwt>
<pdfrwt beam="2">  1       -2 0.35252987E+00 0.73356090E+03</pdfrwt>
<totfact> 0.41816315E-01</totfact>
</mgrwt>
</event>
<event>
 4    5  0.1112901E-007  0.8489721E+03  0.7818608E-02  0.9613489E-01
          2   -1    0    0  501    0  0.00000000000E+00  0.00000000000E+00  0.19190381452E+04  0.19190381452E+04  0.25500000000E-02 0. -1.
         -2   -1    0    0    0  501 -0.00000000000E+00 -0.00000000000E+00 -0.44818589254E+03  0.44818589255E+03  0.25500000000E-02 0.  1.
    8880023    1    1    2    0    0  0.46817128656E+03  0.26030570915E+03  0.60835008334E+02  0.85114894130E+03  0.65864270000E+03 0.  1.
    8880022    1    1    2    0    0 -0.46817128656E+03 -0.26030570915E+03  0.14100172443E+04  0.15160750965E+04  0.15294330000E+03 0.  0.
<mgrwt>
<rscale>  0 0.76409775E+03</rscale>
<asrwt>0</asrwt>
<pdfrwt beam="1">  1        2 0.29523664E+00 0.84897210E+03</pdfrwt>
<pdfrwt beam="2">  1       -2 0.68951676E-01 0.84897210E+03</pdfrwt>
<totfact> 0.14514145E+01</totfact>
</mgrwt>
</event>
<event>
 4    5  0.1112901E-007  0.8920164E+03  0.7818608E-02  0.9538971E-01
         -2   -1    0    0    0  501 -0.00000000000E+00  0.00000000000E+00  0.11838750521E+04  0.11838750521E+04  0.25500000000E-02 0.  1.
          2   -1    0    0  501    0  0.00000000000E+00 -0.00000000000E+00 -0.75376212734E+03  0.75376212734E+03  0.25500000000E-02 0. -1.
    8880023    1    1    2    0    0 -0.39050212644E+03 -0.45759274526E+03  0.81418004705E+03  0.12077178423E+04  0.65864270000E+03 0.  1.
    8880022    1    1    2    0    0  0.39050212644E+03  0.45759274526E+03 -0.38406712232E+03  0.72991933714E+03  0.15294330000E+03 0.  0.
<mgrwt>
<rscale>  0 0.81470604E+03</rscale>
<asrwt>0</asrwt>
<pdfrwt beam="1">  1        2 0.11596340E+00 0.89201639E+03</pdfrwt>
<pdfrwt beam="2">  1       -2 0.18213462E+00 0.89201639E+03</pdfrwt>
<totfact> 0.65488525E+00</totfact>
</mgrwt>
</event>
<event>
 4    5  0.1112901E-007  0.7228594E+03  0.7818608E-02  0.9913027E-01
          2   -1    0    0  501    0  0.00000000000E+00  0.00000000000E+00  0.20570053384E+04  0.20570053384E+04  0.25500000000E-02 0. -1.
         -2   -1    0    0    0  501 -0.00000000000E+00 -0.00000000000E+00 -0.13721831928E+03  0.13721831931E+03  0.25500000000E-02 0.  1.
    8880023    1    1    2    0    0  0.66903222385E+02  0.29024030398E+03  0.14065728293E+04  0.15814464284E+04  0.65864270000E+03 0. -1.
    8880022    1    1    2    0    0 -0.66903222385E+02 -0.29024030398E+03  0.51321418972E+03  0.61277722931E+03  0.15294330000E+03 0.  1.
<mgrwt>
<rscale>  0 0.59634079E+03</rscale>
<asrwt>0</asrwt>
<pdfrwt beam="1">  1        2 0.31646235E+00 0.72285938E+03</pdfrwt>
<pdfrwt beam="2">  1       -2 0.21110512E-01 0.72285938E+03</pdfrwt>
<totfact> 0.12403010E+02</totfact>
</mgrwt>
</event>
<event>
 4    5  0.1112901E-007  0.9134578E+03  0.7818608E-02  0.9504764E-01
         -2   -1    0    0    0  501 -0.00000000000E+00  0.00000000000E+00  0.68663311030E+03  0.68663311030E+03  0.25500000000E-02 0.  1.
          2   -1    0    0  501    0  0.00000000000E+00 -0.00000000000E+00 -0.25901077012E+04  0.25901077012E+04  0.25500000000E-02 0. -1.
    8880023    1    1    2    0    0 -0.47317293691E+03  0.42035969625E+03  0.31378329908E+03  0.96584940208E+03  0.65864270000E+03 0.  0.
    8880022    1    1    2    0    0  0.47317293691E+03 -0.42035969625E+03 -0.22172578900E+04  0.23108914094E+04  0.15294330000E+03 0.  0.
<mgrwt>
<rscale>  0 0.83933507E+03</rscale>
<asrwt>0</asrwt>
<pdfrwt beam="1">  1        2 0.39847810E+00 0.91345778E+03</pdfrwt>
<pdfrwt beam="2">  1       -2 0.10563586E+00 0.91345778E+03</pdfrwt>
<totfact> 0.22866478E+00</totfact>
</mgrwt>
</event>
<event>
 4    5  0.1112901E-007  0.7997299E+03  0.7818608E-02  0.9711380E-01
          2   -1    0    0  501    0  0.00000000000E+00  0.00000000000E+00  0.71420611300E+03  0.71420611300E+03  0.25500000000E-02 0. -1.
         -2   -1    0    0    0  501 -0.00000000000E+00 -0.00000000000E+00 -0.63916470490E+03  0.63916470491E+03  0.25500000000E-02 0.  1.
    8880023    1    1    2    0    0  0.39091498194E+03  0.23009398325E+03 -0.16697330159E+03  0.81697494083E+03  0.65864270000E+03 0.  0.
    8880022    1    1    2    0    0 -0.39091498194E+03 -0.23009398325E+03  0.24201470969E+03  0.53639587708E+03  0.15294330000E+03 0.  0.
<mgrwt>
<rscale>  0 0.70343239E+03</rscale>
<asrwt>0</asrwt>
<pdfrwt beam="1">  1        2 0.10987786E+00 0.79972994E+03</pdfrwt>
<pdfrwt beam="2">  1       -2 0.98333031E-01 0.79972994E+03</pdfrwt>
<totfact> 0.34647192E+01</totfact>
</mgrwt>
</event>
<event>
 4    5  0.1112901E-007  0.7911515E+03  0.7818608E-02  0.9730265E-01
         -2   -1    0    0    0  501 -0.00000000000E+00  0.00000000000E+00  0.37117235574E+03  0.37117235575E+03  0.25500000000E-02 0.  1.
          2   -1    0    0  501    0  0.00000000000E+00 -0.00000000000E+00 -0.22772506185E+04  0.22772506185E+04  0.25500000000E-02 0. -1.
    8880023    1    1    2    0    0 -0.39986358404E+03  0.17949826748E+03 -0.11658328127E+03  0.79969518043E+03  0.65864270000E+03 0.  1.
    8880022    1    1    2    0    0  0.39986358404E+03 -0.17949826748E+03 -0.17894949815E+04  0.18487277938E+04  0.15294330000E+03 0.  0.
<mgrwt>
<rscale>  0 0.69243052E+03</rscale>
<asrwt>0</asrwt>
<pdfrwt beam="1">  1        2 0.35034624E+00 0.79115152E+03</pdfrwt>
<pdfrwt beam="2">  1       -2 0.57103441E-01 0.79115152E+03</pdfrwt>
<totfact> 0.13898270E+01</totfact>
</mgrwt>
</event>
<event>
 4    5  0.1112901E-007  0.1049051E+04  0.7818608E-02  0.9320023E-01
         -2   -1    0    0    0  501 -0.00000000000E+00  0.00000000000E+00  0.41079424703E+03  0.41079424703E+03  0.25500000000E-02 0.  1.
          2   -1    0    0  501    0  0.00000000000E+00 -0.00000000000E+00 -0.23205065494E+04  0.23205065494E+04  0.25500000000E-02 0. -1.
    8880023    1    1    2    0    0  0.48773053219E+03 -0.65484103750E+03 -0.69022626668E+03  0.12557548972E+04  0.65864270000E+03 0.  0.
    8880022    1    1    2    0    0 -0.48773053219E+03  0.65484103750E+03 -0.12194860357E+04  0.14755458992E+04  0.15294330000E+03 0.  1.
<mgrwt>
<rscale>  0 0.98960217E+03</rscale>
<asrwt>0</asrwt>
<pdfrwt beam="1">  1        2 0.35700100E+00 0.10490510E+04</pdfrwt>
<pdfrwt beam="2">  1       -2 0.63199116E-01 0.10490510E+04</pdfrwt>
<totfact> 0.10260691E+01</totfact>
</mgrwt>
</event>
<event>
 4    5  0.1112901E-007  0.9802443E+03  0.7818608E-02  0.9407873E-01
          2   -1    0    0  501    0  0.00000000000E+00  0.00000000000E+00  0.24497263445E+04  0.24497263445E+04  0.25500000000E-02 0. -1.
         -2   -1    0    0    0  501 -0.00000000000E+00 -0.00000000000E+00 -0.70760182315E+03  0.70760182316E+03  0.25500000000E-02 0.  1.
    8880023    1    1    2    0    0  0.24423727010E+03  0.68367885382E+03 -0.26669483163E+03  0.10158764486E+04  0.65864270000E+03 0.  0.
    8880022    1    1    2    0    0 -0.24423727010E+03 -0.68367885382E+03  0.20088193530E+04  0.21414517191E+04  0.15294330000E+03 0.  0.
<mgrwt>
<rscale>  0 0.91430581E+03</rscale>
<asrwt>0</asrwt>
<pdfrwt beam="1">  1        2 0.37688098E+00 0.98024427E+03</pdfrwt>
<pdfrwt beam="2">  1       -2 0.10886182E+00 0.98024427E+03</pdfrwt>
<totfact> 0.25325841E+00</totfact>
</mgrwt>
</event>
<event>
 4    5  0.1112901E-007  0.1057237E+04  0.7818608E-02  0.9310232E-01
         -2   -1    0    0    0  501 -0.00000000000E+00  0.00000000000E+00  0.13018485278E+04  0.13018485278E+04  0.25500000000E-02 0.  1.
          2   -1    0    0  501    0  0.00000000000E+00 -0.00000000000E+00 -0.15397549760E+04  0.15397549760E+04  0.25500000000E-02 0. -1.
    8880023    1    1    2    0    0 -0.65029490532E+03  0.51093610036E+03  0.92614064492E+03  0.14055197839E+04  0.65864270000E+03 0.  1.
    8880022    1    1    2    0    0  0.65029490532E+03 -0.51093610036E+03 -0.11640470932E+04  0.14360837199E+04  0.15294330000E+03 0.  0.
<mgrwt>
<rscale>  0 0.99846302E+03</rscale>
<asrwt>0</asrwt>
<pdfrwt beam="1">  1        2 0.23688538E+00 0.10572367E+04</pdfrwt>
<pdfrwt beam="2">  1       -2 0.20028439E+00 0.10572367E+04</pdfrwt>
<totfact> 0.15748778E+00</totfact>
</mgrwt>
</event>
<event>
 4    5  0.1112901E-007  0.8944362E+03  0.7818608E-02  0.9535023E-01
         -2   -1    0    0    0  501 -0.00000000000E+00  0.00000000000E+00  0.40485788700E+03  0.40485788700E+03  0.25500000000E-02 0.  1.
          2   -1    0    0  501    0  0.00000000000E+00 -0.00000000000E+00 -0.27550821468E+04  0.27550821468E+04  0.25500000000E-02 0. -1.
    8880023    1    1    2    0    0  0.27515530941E+03  0.53897638534E+03 -0.19405739137E+03  0.91524557669E+03  0.65864270000E+03 0.  1.
    8880022    1    1    2    0    0 -0.27515530941E+03 -0.53897638534E+03 -0.21561668684E+04  0.22446944571E+04  0.15294330000E+03 0.  0.
<mgrwt>
<rscale>  0 0.81750249E+03</rscale>
<asrwt>0</asrwt>
<pdfrwt beam="1">  1        2 0.42385878E+00 0.89443624E+03</pdfrwt>
<pdfrwt beam="2">  1       -2 0.62285830E-01 0.89443624E+03</pdfrwt>
<totfact> 0.60779034E+00</totfact>
</mgrwt>
</event>
<event>
 4    5  0.1112901E-007  0.2455442E+04  0.7818608E-02  0.8426920E-01
          2   -1    0    0  501    0  0.00000000000E+00  0.00000000000E+00  0.20761481533E+04  0.20761481533E+04  0.25500000000E-02 0. -1.
         -2   -1    0    0    0  501 -0.00000000000E+00 -0.00000000000E+00 -0.43796701674E+04  0.43796701674E+04  0.25500000000E-02 0.  1.
    8880023    1    1    2    0    0 -0.14809615384E+04 -0.18444884985E+04 -0.31004947164E+04  0.39550300368E+04  0.65864270000E+03 0.  0.
    8880022    1    1    2    0    0  0.14809615384E+04  0.18444884985E+04  0.79697270236E+03  0.25007882839E+04  0.15294330000E+03 0.  0.
<mgrwt>
<rscale>  0 0.24338985E+04</rscale>
<asrwt>0</asrwt>
<pdfrwt beam="1">  1        2 0.31940741E+00 0.24554419E+04</pdfrwt>
<pdfrwt beam="2">  1       -2 0.67379541E+00 0.24554419E+04</pdfrwt>
<totfact> 0.13970530E-03</totfact>
</mgrwt>
</event>
<event>
 4    5  0.1112901E-007  0.8371819E+03  0.7818608E-02  0.9635517E-01
          2   -1    0    0  501    0  0.00000000000E+00  0.00000000000E+00  0.15386642563E+04  0.15386642563E+04  0.25500000000E-02 0. -1.
         -2   -1    0    0    0  501 -0.00000000000E+00 -0.00000000000E+00 -0.62770077095E+03  0.62770077096E+03  0.25500000000E-02 0.  1.
    8880023    1    1    2    0    0  0.45716392788E+03  0.24096574111E+03 -0.26058413900E+03  0.87679966076E+03  0.65864270000E+03 0.  1.
    8880022    1    1    2    0    0 -0.45716392788E+03 -0.24096574111E+03  0.11715476243E+04  0.12895653665E+04  0.15294330000E+03 0.  0.
<mgrwt>
<rscale>  0 0.74989375E+03</rscale>
<asrwt>0</asrwt>
<pdfrwt beam="1">  1        2 0.23671758E+00 0.83718191E+03</pdfrwt>
<pdfrwt beam="2">  1       -2 0.96569350E-01 0.83718191E+03</pdfrwt>
<totfact> 0.10978597E+01</totfact>
</mgrwt>
</event>
<event>
 4    5  0.1112901E-007  0.7401401E+03  0.7818608E-02  0.9859539E-01
         -2   -1    0    0    0  501 -0.00000000000E+00  0.00000000000E+00  0.45996099222E+03  0.45996099223E+03  0.25500000000E-02 0.  1.
          2   -1    0    0  501    0  0.00000000000E+00 -0.00000000000E+00 -0.10681490269E+04  0.10681490269E+04  0.25500000000E-02 0. -1.
    8880023    1    1    2    0    0 -0.27381416844E+03  0.19754234539E+03  0.82020632452E+02  0.74467091220E+03  0.65864270000E+03 0.  0.
    8880022    1    1    2    0    0  0.27381416844E+03 -0.19754234539E+03 -0.69020866710E+03  0.78343910690E+03  0.15294330000E+03 0.  0.
<mgrwt>
<rscale>  0 0.62262906E+03</rscale>
<asrwt>0</asrwt>
<pdfrwt beam="1">  1        2 0.16433062E+00 0.74014011E+03</pdfrwt>
<pdfrwt beam="2">  1       -2 0.70763230E-01 0.74014011E+03</pdfrwt>
<totfact> 0.42115221E+01</totfact>
</mgrwt>
</event>
<event>
 4    5  0.1112901E-007  0.1208500E+04  0.7818608E-02  0.9148903E-01
          2   -1    0    0  501    0  0.00000000000E+00  0.00000000000E+00  0.41539544602E+04  0.41539544602E+04  0.25500000000E-02 0. -1.
         -2   -1    0    0    0  501 -0.00000000000E+00 -0.00000000000E+00 -0.36611571908E+03  0.36611571908E+03  0.25500000000E-02 0.  1.
    8880023    1    1    2    0    0 -0.34396635591E+03  0.95307406107E+03  0.10650572331E+04  0.16108445412E+04  0.65864270000E+03 0.  0.
    8880022    1    1    2    0    0  0.34396635591E+03 -0.95307406107E+03  0.27227815080E+04  0.29092256381E+04  0.15294330000E+03 0.  0.
<mgrwt>
<rscale>  0 0.11596758E+04</rscale>
<asrwt>0</asrwt>
<pdfrwt beam="1">  1        2 0.63906990E+00 0.12085004E+04</pdfrwt>
<pdfrwt beam="2">  1       -2 0.56325497E-01 0.12085004E+04</pdfrwt>
<totfact> 0.77141496E-01</totfact>
</mgrwt>
</event>
<event>
 4    5  0.1112901E-007  0.1287520E+04  0.7818608E-02  0.9076412E-01
          2   -1    0    0  501    0  0.00000000000E+00  0.00000000000E+00  0.12239532948E+04  0.12239532948E+04  0.25500000000E-02 0. -1.
         -2   -1    0    0    0  501 -0.00000000000E+00 -0.00000000000E+00 -0.14677192277E+04  0.14677192277E+04  0.25500000000E-02 0.  1.
    8880023    1    1    2    0    0 -0.16438621926E+03  0.10940179995E+04 -0.72270768528E+03  0.14764873237E+04  0.65864270000E+03 0.  0.
    8880022    1    1    2    0    0  0.16438621926E+03 -0.10940179995E+04  0.47894175243E+03  0.12151851989E+04  0.15294330000E+03 0.  0.
<mgrwt>
<rscale>  0 0.12425431E+04</rscale>
<asrwt>0</asrwt>
<pdfrwt beam="1">  1        2 0.18830051E+00 0.12875203E+04</pdfrwt>
<pdfrwt beam="2">  1       -2 0.22580296E+00 0.12875203E+04</pdfrwt>
<totfact> 0.16028108E+00</totfact>
</mgrwt>
</event>
<event>
 4    5  0.1112901E-007  0.1070707E+04  0.7818608E-02  0.9294393E-01
          2   -1    0    0  501    0  0.00000000000E+00  0.00000000000E+00  0.29452732125E+04  0.29452732125E+04  0.25500000000E-02 0. -1.
         -2   -1    0    0    0  501 -0.00000000000E+00 -0.00000000000E+00 -0.44690468598E+03  0.44690468599E+03  0.25500000000E-02 0.  1.
    8880023    1    1    2    0    0  0.79710870778E+03 -0.27788618980E+03  0.43159127630E+03  0.11544194483E+04  0.65864270000E+03 0.  0.
    8880022    1    1    2    0    0 -0.79710870778E+03  0.27788618980E+03  0.20667772502E+04  0.22377584502E+04  0.15294330000E+03 0.  0.
<mgrwt>
<rscale>  0 0.10130066E+04</rscale>
<asrwt>0</asrwt>
<pdfrwt beam="1">  1        2 0.45311895E+00 0.10707069E+04</pdfrwt>
<pdfrwt beam="2">  1       -2 0.68754569E-01 0.10707069E+04</pdfrwt>
<totfact> 0.36804561E+00</totfact>
</mgrwt>
</event>
<event>
 4    5  0.1112901E-007  0.7981967E+03  0.7818608E-02  0.9714709E-01
         -2   -1    0    0    0  501 -0.00000000000E+00  0.00000000000E+00  0.20576296658E+03  0.20576296660E+03  0.25500000000E-02 0.  1.
          2   -1    0    0  501    0  0.00000000000E+00 -0.00000000000E+00 -0.32326401389E+04  0.32326401389E+04  0.25500000000E-02 0. -1.
    8880023    1    1    2    0    0 -0.14691323019E+03 -0.42629138004E+03 -0.69485959721E+03  0.10582759111E+04  0.65864270000E+03 0.  0.
    8880022    1    1    2    0    0  0.14691323019E+03  0.42629138004E+03 -0.23320175751E+04  0.23801271944E+04  0.15294330000E+03 0.  0.
<mgrwt>
<rscale>  0 0.70147756E+03</rscale>
<asrwt>0</asrwt>
<pdfrwt beam="1">  1        2 0.49732922E+00 0.79819675E+03</pdfrwt>
<pdfrwt beam="2">  1       -2 0.31655843E-01 0.79819675E+03</pdfrwt>
<totfact> 0.12133758E+01</totfact>
</mgrwt>
</event>
<event>
 4    5  0.1112901E-007  0.7036229E+03  0.7818608E-02  0.9982491E-01
         -2   -1    0    0    0  501 -0.00000000000E+00  0.00000000000E+00  0.41210609455E+03  0.41210609456E+03  0.25500000000E-02 0.  1.
          2   -1    0    0  501    0  0.00000000000E+00 -0.00000000000E+00 -0.16368860956E+04  0.16368860956E+04  0.25500000000E-02 0. -1.
    8880023    1    1    2    0    0 -0.24593639058E+03 -0.28111559916E+02  0.83668767407E+02  0.70858001448E+03  0.65864270000E+03 0.  1.
    8880022    1    1    2    0    0  0.24593639058E+03  0.28111559916E+02 -0.13084487685E+04  0.13404121757E+04  0.15294330000E+03 0.  0.
<mgrwt>
<rscale>  0 0.56424666E+03</rscale>
<asrwt>0</asrwt>
<pdfrwt beam="1">  1        2 0.25182863E+00 0.70362289E+03</pdfrwt>
<pdfrwt beam="2">  1       -2 0.63400939E-01 0.70362289E+03</pdfrwt>
<totfact> 0.25278582E+01</totfact>
</mgrwt>
</event>
<event>
 4    5  0.1112901E-007  0.7714543E+03  0.7818608E-02  0.9776308E-01
          2   -1    0    0  501    0  0.00000000000E+00  0.00000000000E+00  0.46197090933E+03  0.46197090934E+03  0.25500000000E-02 0. -1.
         -2   -1    0    0    0  501 -0.00000000000E+00 -0.00000000000E+00 -0.10354557208E+04  0.10354557209E+04  0.25500000000E-02 0.  1.
    8880023    1    1    2    0    0  0.32207263637E+03 -0.24000156287E+03 -0.70797949999E+03  0.10470800886E+04  0.65864270000E+03 0.  0.
    8880022    1    1    2    0    0 -0.32207263637E+03  0.24000156287E+03  0.13449468847E+03  0.45034654159E+03  0.15294330000E+03 0.  0.
<mgrwt>
<rscale>  0 0.66649643E+03</rscale>
<asrwt>0</asrwt>
<pdfrwt beam="1">  1        2 0.71072448E-01 0.77145430E+03</pdfrwt>
<pdfrwt beam="2">  1       -2 0.15930088E+00 0.77145430E+03</pdfrwt>
<totfact> 0.17412543E+01</totfact>
</mgrwt>
</event>
<event>
 4    5  0.1112901E-007  0.7267718E+03  0.7818608E-02  0.9900305E-01
          2   -1    0    0  501    0  0.00000000000E+00  0.00000000000E+00  0.14160595931E+04  0.14160595931E+04  0.25500000000E-02 0. -1.
         -2   -1    0    0    0  501 -0.00000000000E+00 -0.00000000000E+00 -0.88516636962E+03  0.88516636962E+03  0.25500000000E-02 0.  1.
    8880023    1    1    2    0    0  0.23979396770E+03  0.19205713714E+03 -0.70863409048E+03  0.10150662891E+04  0.65864270000E+03 0.  0.
    8880022    1    1    2    0    0 -0.23979396770E+03 -0.19205713714E+03  0.12395273139E+04  0.12861596736E+04  0.15294330000E+03 0.  0.
<mgrwt>
<rscale>  0 0.60246515E+03</rscale>
<asrwt>0</asrwt>
<pdfrwt beam="1">  1        2 0.21785532E+00 0.72677183E+03</pdfrwt>
<pdfrwt beam="2">  1       -2 0.13617944E+00 0.72677183E+03</pdfrwt>
<totfact> 0.56172735E+00</totfact>
</mgrwt>
</event>
<event>
 4    5  0.1112901E-007  0.8815085E+03  0.7818608E-02  0.9556393E-01
          2   -1    0    0  501    0  0.00000000000E+00  0.00000000000E+00  0.78612997067E+03  0.78612997068E+03  0.25500000000E-02 0. -1.
         -2   -1    0    0    0  501 -0.00000000000E+00 -0.00000000000E+00 -0.13908901672E+04  0.13908901672E+04  0.25500000000E-02 0.  1.
    8880023    1    1    2    0    0  0.29373448799E+03  0.50691919664E+03 -0.10894515991E+04  0.14014142908E+04  0.65864270000E+03 0.  1.
    8880022    1    1    2    0    0 -0.29373448799E+03 -0.50691919664E+03  0.48469140255E+03  0.77560584712E+03  0.15294330000E+03 0.  0.
<mgrwt>
<rscale>  0 0.80250854E+03</rscale>
<asrwt>0</asrwt>
<pdfrwt beam="1">  1        2 0.12094307E+00 0.88150850E+03</pdfrwt>
<pdfrwt beam="2">  1       -2 0.21398310E+00 0.88150850E+03</pdfrwt>
<totfact> 0.38326725E+00</totfact>
</mgrwt>
</event>
<event>
 4    5  0.1112901E-007  0.1898693E+04  0.7818608E-02  0.8669822E-01
         -2   -1    0    0    0  501 -0.00000000000E+00  0.00000000000E+00  0.22780619636E+04  0.22780619636E+04  0.25500000000E-02 0.  1.
          2   -1    0    0  501    0  0.00000000000E+00 -0.00000000000E+00 -0.18941872942E+04  0.18941872942E+04  0.25500000000E-02 0. -1.
    8880023    1    1    2    0    0  0.14261423132E+04 -0.10664624909E+04  0.11585436062E+04  0.22242431602E+04  0.65864270000E+03 0.  1.
    8880022    1    1    2    0    0 -0.14261423132E+04  0.10664624909E+04 -0.77466893680E+03  0.19480060977E+04  0.15294330000E+03 0.  0.
<mgrwt>
<rscale>  0 0.18702228E+04</rscale>
<asrwt>0</asrwt>
<pdfrwt beam="1">  1        2 0.29141343E+00 0.18986928E+04</pdfrwt>
<pdfrwt beam="2">  1       -2 0.35047107E+00 0.18986928E+04</pdfrwt>
<totfact> 0.10622398E-01</totfact>
</mgrwt>
</event>
<event>
 4    5  0.1112901E-007  0.1734207E+04  0.7818608E-02  0.8759831E-01
         -2   -1    0    0    0  501 -0.00000000000E+00  0.00000000000E+00  0.20588855205E+04  0.20588855205E+04  0.25500000000E-02 0.  1.
          2   -1    0    0  501    0  0.00000000000E+00 -0.00000000000E+00 -0.17084672240E+04  0.17084672240E+04  0.25500000000E-02 0. -1.
    8880023    1    1    2    0    0  0.75135106031E+03  0.14174395156E+04 -0.67087671650E+03  0.18594485665E+04  0.65864270000E+03 0.  0.
    8880022    1    1    2    0    0 -0.75135106031E+03 -0.14174395156E+04  0.10212950130E+04  0.19079041781E+04  0.15294330000E+03 0.  0.
<mgrwt>
<rscale>  0 0.17026909E+04</rscale>
<asrwt>0</asrwt>
<pdfrwt beam="1">  1        2 0.26284111E+00 0.17342069E+04</pdfrwt>
<pdfrwt beam="2">  1       -2 0.31675162E+00 0.17342069E+04</pdfrwt>
<totfact> 0.22291816E-01</totfact>
</mgrwt>
</event>
<event>
 4    5  0.1112901E-007  0.6827496E+03  0.7818608E-02  0.1007809E+00
          2   -1    0    0  501    0  0.00000000000E+00  0.00000000000E+00  0.88531476969E+03  0.88531476969E+03  0.25500000000E-02 0. -1.
         -2   -1    0    0    0  501 -0.00000000000E+00 -0.00000000000E+00 -0.45302565214E+03  0.45302565215E+03  0.25500000000E-02 0.  1.
    8880023    1    1    2    0    0 -0.76285849284E+02  0.16284125349E+03 -0.15956153862E+03  0.70114684304E+03  0.65864270000E+03 0.  1.
    8880022    1    1    2    0    0  0.76285849284E+02 -0.16284125349E+03  0.59185065617E+03  0.63719357880E+03  0.15294330000E+03 0.  0.
<mgrwt>
<rscale>  0 0.52354705E+03</rscale>
<asrwt>0</asrwt>
<pdfrwt beam="1">  1        2 0.13620227E+00 0.68274960E+03</pdfrwt>
<pdfrwt beam="2">  1       -2 0.69696254E-01 0.68274960E+03</pdfrwt>
<totfact> 0.57428553E+01</totfact>
</mgrwt>
</event>
<event>
 4    5  0.1112901E-007  0.8883367E+03  0.7818608E-02  0.9545020E-01
         -2   -1    0    0    0  501 -0.00000000000E+00  0.00000000000E+00  0.45449443219E+03  0.45449443220E+03  0.25500000000E-02 0.  1.
          2   -1    0    0  501    0  0.00000000000E+00 -0.00000000000E+00 -0.15693519710E+04  0.15693519710E+04  0.25500000000E-02 0. -1.
    8880023    1    1    2    0    0  0.33593492414E+03  0.49242221810E+03 -0.18279775516E+03  0.90694935895E+03  0.65864270000E+03 0.  0.
    8880022    1    1    2    0    0 -0.33593492414E+03 -0.49242221810E+03 -0.93205978364E+03  0.11168970442E+04  0.15294330000E+03 0.  0.
<mgrwt>
<rscale>  0 0.81044491E+03</rscale>
<asrwt>0</asrwt>
<pdfrwt beam="1">  1        2 0.24143876E+00 0.88833672E+03</pdfrwt>
<pdfrwt beam="2">  1       -2 0.69922221E-01 0.88833672E+03</pdfrwt>
<totfact> 0.21819991E+01</totfact>
</mgrwt>
</event>
<event>
 4    5  0.1112901E-007  0.8691869E+03  0.7818608E-02  0.9577426E-01
          2   -1    0    0  501    0  0.00000000000E+00  0.00000000000E+00  0.82311924183E+03  0.82311924184E+03  0.25500000000E-02 0. -1.
         -2   -1    0    0    0  501 -0.00000000000E+00 -0.00000000000E+00 -0.98057261667E+03  0.98057261668E+03  0.25500000000E-02 0.  1.
    8880023    1    1    2    0    0 -0.47061399556E+03 -0.31654079488E+03 -0.61023977847E+03  0.10620161963E+04  0.65864270000E+03 0.  0.
    8880022    1    1    2    0    0  0.47061399556E+03  0.31654079488E+03  0.45278640363E+03  0.74167566225E+03  0.15294330000E+03 0. -1.
<mgrwt>
<rscale>  0 0.78808459E+03</rscale>
<asrwt>0</asrwt>
<pdfrwt beam="1">  1        2 0.12663373E+00 0.86918687E+03</pdfrwt>
<pdfrwt beam="2">  1       -2 0.15085733E+00 0.86918687E+03</pdfrwt>
<totfact> 0.98210500E+00</totfact>
</mgrwt>
</event>
<event>
 4    5  0.1503496E-007  0.7450356E+03  0.7818608E-02  0.9845514E-01
         -2   -1    0    0    0  501 -0.00000000000E+00  0.00000000000E+00  0.15075092483E+04  0.15075092483E+04  0.25500000000E-02 0.  1.
          2   -1    0    0  501    0  0.00000000000E+00 -0.00000000000E+00 -0.46181563115E+04  0.46181563115E+04  0.25500000000E-02 0. -1.
    8880023    1    1    2    0    0  0.15239041835E+03  0.31312147326E+03  0.14069753430E+04  0.15920608401E+04  0.65864270000E+03 0.  0.
    8880022    1    1    2    0    0 -0.15239041835E+03 -0.31312147326E+03 -0.45176224062E+04  0.45336047197E+04  0.15294330000E+03 0.  0.
<mgrwt>
<rscale>  0 0.62976160E+03</rscale>
<asrwt>0</asrwt>
<pdfrwt beam="1">  1        2 0.71048558E+00 0.74503564E+03</pdfrwt>
<pdfrwt beam="2">  1       -2 0.23192450E+00 0.74503564E+03</pdfrwt>
<totfact> 0.91183033E-03</totfact>
</mgrwt>
</event>
<event>
 4    5  0.1112901E-007  0.7932591E+03  0.7818608E-02  0.9725565E-01
         -2   -1    0    0    0  501 -0.00000000000E+00  0.00000000000E+00  0.88553594389E+03  0.88553594389E+03  0.25500000000E-02 0.  1.
          2   -1    0    0  501    0  0.00000000000E+00 -0.00000000000E+00 -0.16473057977E+04  0.16473057977E+04  0.25500000000E-02 0. -1.
    8880023    1    1    2    0    0 -0.13434482066E+03 -0.42119030907E+03  0.66262067587E+03  0.10335986521E+04  0.65864270000E+03 0.  1.
    8880022    1    1    2    0    0  0.13434482066E+03  0.42119030907E+03 -0.14243905296E+04  0.14992430894E+04  0.15294330000E+03 0.  0.
<mgrwt>
<rscale>  0 0.69514836E+03</rscale>
<asrwt>0</asrwt>
<pdfrwt beam="1">  1        2 0.25343166E+00 0.79325911E+03</pdfrwt>
<pdfrwt beam="2">  1       -2 0.13623630E+00 0.79325911E+03</pdfrwt>
<totfact> 0.41328596E+00</totfact>
</mgrwt>
</event>
<event>
 4    5  0.1112901E-007  0.8527400E+03  0.7818608E-02  0.9606610E-01
         -2   -1    0    0    0  501 -0.00000000000E+00  0.00000000000E+00  0.95259724836E+03  0.95259724836E+03  0.25500000000E-02 0.  1.
          2   -1    0    0  501    0  0.00000000000E+00 -0.00000000000E+00 -0.96651017900E+03  0.96651017901E+03  0.25500000000E-02 0. -1.
    8880023    1    1    2    0    0 -0.11310278679E+03  0.52968198487E+03  0.63273284501E+03  0.10618457067E+04  0.65864270000E+03 0.  0.
    8880022    1    1    2    0    0  0.11310278679E+03 -0.52968198487E+03 -0.64664577566E+03  0.85726172064E+03  0.15294330000E+03 0.  0.
<mgrwt>
<rscale>  0 0.76860200E+03</rscale>
<asrwt>0</asrwt>
<pdfrwt beam="1">  1        2 0.14869387E+00 0.85273997E+03</pdfrwt>
<pdfrwt beam="2">  1       -2 0.14655342E+00 0.85273997E+03</pdfrwt>
<totfact> 0.84869736E+00</totfact>
</mgrwt>
</event>
<event>
 4    5  0.1112901E-007  0.1262189E+04  0.7818608E-02  0.9098920E-01
          2   -1    0    0  501    0  0.00000000000E+00  0.00000000000E+00  0.42840458468E+04  0.42840458468E+04  0.25500000000E-02 0. -1.
         -2   -1    0    0    0  501 -0.00000000000E+00 -0.00000000000E+00 -0.78617983909E+03  0.78617983909E+03  0.25500000000E-02 0.  1.
    8880023    1    1    2    0    0  0.32501227148E+03  0.10264875559E+04 -0.14313608227E+03  0.12702786400E+04  0.65864270000E+03 0.  0.
    8880022    1    1    2    0    0 -0.32501227148E+03 -0.10264875559E+04  0.36410020900E+04  0.37999470459E+04  0.15294330000E+03 0.  0.
<mgrwt>
<rscale>  0 0.12160532E+04</rscale>
<asrwt>0</asrwt>
<pdfrwt beam="1">  1        2 0.65908396E+00 0.12621885E+04</pdfrwt>
<pdfrwt beam="2">  1       -2 0.12095075E+00 0.12621885E+04</pdfrwt>
<totfact> 0.10291229E-01</totfact>
</mgrwt>
</event>
<event>
 4    5  0.1112901E-007  0.1056622E+04  0.7818608E-02  0.9310963E-01
          2   -1    0    0  501    0  0.00000000000E+00  0.00000000000E+00  0.25047886579E+04  0.25047886579E+04  0.25500000000E-02 0. -1.
         -2   -1    0    0    0  501 -0.00000000000E+00 -0.00000000000E+00 -0.15454092608E+04  0.15454092608E+04  0.25500000000E-02 0.  1.
    8880023    1    1    2    0    0 -0.91863575507E+02 -0.82109760685E+03 -0.12791761803E+04  0.16591389644E+04  0.65864270000E+03 0.  1.
    8880022    1    1    2    0    0  0.91863575507E+02  0.82109760685E+03  0.22385555775E+04  0.23910589543E+04  0.15294330000E+03 0.  0.
<mgrwt>
<rscale>  0 0.99779845E+03</rscale>
<asrwt>0</asrwt>
<pdfrwt beam="1">  1        2 0.38535210E+00 0.10566222E+04</pdfrwt>
<pdfrwt beam="2">  1       -2 0.23775527E+00 0.10566222E+04</pdfrwt>
<totfact> 0.26450893E-01</totfact>
</mgrwt>
</event>
<event>
 4    5  0.1112901E-007  0.1243131E+04  0.7818608E-02  0.9116295E-01
          2   -1    0    0  501    0  0.00000000000E+00  0.00000000000E+00  0.18313168801E+04  0.18313168801E+04  0.25500000000E-02 0. -1.
         -2   -1    0    0    0  501 -0.00000000000E+00 -0.00000000000E+00 -0.13153735443E+04  0.13153735443E+04  0.25500000000E-02 0.  1.
    8880023    1    1    2    0    0 -0.99202963278E+03  0.35698823304E+03 -0.78114368109E+03  0.14681822256E+04  0.65864270000E+03 0.  0.
    8880022    1    1    2    0    0  0.99202963278E+03 -0.35698823304E+03  0.12970870170E+04  0.16785081988E+04  0.15294330000E+03 0.  0.
<mgrwt>
<rscale>  0 0.11960791E+04</rscale>
<asrwt>0</asrwt>
<pdfrwt beam="1">  1        2 0.28174106E+00 0.12431306E+04</pdfrwt>
<pdfrwt beam="2">  1       -2 0.20236516E+00 0.12431306E+04</pdfrwt>
<totfact> 0.10273182E+00</totfact>
</mgrwt>
</event>
<event>
 4    5  0.1112901E-007  0.7491014E+03  0.7818608E-02  0.9834187E-01
          2   -1    0    0  501    0  0.00000000000E+00  0.00000000000E+00  0.28022380487E+04  0.28022380487E+04  0.25500000000E-02 0. -1.
         -2   -1    0    0    0  501 -0.00000000000E+00 -0.00000000000E+00 -0.58025671946E+03  0.58025671947E+03  0.25500000000E-02 0.  1.
    8880023    1    1    2    0    0 -0.32112283804E+02  0.35540328244E+03 -0.31742599370E+03  0.81357984222E+03  0.65864270000E+03 0.  1.
    8880022    1    1    2    0    0  0.32112283804E+02 -0.35540328244E+03  0.25394073229E+04  0.25689149259E+04  0.15294330000E+03 0.  0.
<mgrwt>
<rscale>  0 0.63559721E+03</rscale>
<asrwt>0</asrwt>
<pdfrwt beam="1">  1        2 0.43111353E+00 0.74910139E+03</pdfrwt>
<pdfrwt beam="2">  1       -2 0.89270267E-01 0.74910139E+03</pdfrwt>
<totfact> 0.26324193E+00</totfact>
</mgrwt>
</event>
<event>
 4    5  0.1112901E-007  0.8281965E+03  0.7818608E-02  0.9652852E-01
          2   -1    0    0  501    0  0.00000000000E+00  0.00000000000E+00  0.12102483173E+04  0.12102483173E+04  0.25500000000E-02 0. -1.
         -2   -1    0    0    0  501 -0.00000000000E+00 -0.00000000000E+00 -0.11532756089E+04  0.11532756089E+04  0.25500000000E-02 0.  1.
    8880023    1    1    2    0    0  0.25450659988E+03 -0.43281134421E+03 -0.93021544166E+03  0.12454759103E+04  0.65864270000E+03 0.  0.
    8880022    1    1    2    0    0 -0.25450659988E+03  0.43281134421E+03  0.98718815013E+03  0.11180480159E+04  0.15294330000E+03 0.  0.
<mgrwt>
<rscale>  0 0.73894729E+03</rscale>
<asrwt>0</asrwt>
<pdfrwt beam="1">  1        2 0.18619205E+00 0.82819652E+03</pdfrwt>
<pdfrwt beam="2">  1       -2 0.17742702E+00 0.82819652E+03</pdfrwt>
<totfact> 0.35732530E+00</totfact>
</mgrwt>
</event>
<event>
 4    5  0.1112901E-007  0.1320711E+04  0.7818608E-02  0.9047878E-01
         -2   -1    0    0    0  501 -0.00000000000E+00  0.00000000000E+00  0.17604247203E+04  0.17604247203E+04  0.25500000000E-02 0.  1.
          2   -1    0    0  501    0  0.00000000000E+00 -0.00000000000E+00 -0.21746350367E+04  0.21746350367E+04  0.25500000000E-02 0. -1.
    8880023    1    1    2    0    0  0.11157544755E+04 -0.25604725028E+03  0.13097242761E+04  0.18600150885E+04  0.65864270000E+03 0.  0.
    8880022    1    1    2    0    0 -0.11157544755E+04  0.25604725028E+03 -0.17239345925E+04  0.20750446684E+04  0.15294330000E+03 0.  0.
<mgrwt>
<rscale>  0 0.12771582E+04</rscale>
<asrwt>0</asrwt>
<pdfrwt beam="1">  1        2 0.33455924E+00 0.13207113E+04</pdfrwt>
<pdfrwt beam="2">  1       -2 0.27083457E+00 0.13207113E+04</pdfrwt>
<totfact> 0.24511530E-01</totfact>
</mgrwt>
</event>
<event>
 4    5  0.1112901E-007  0.9126936E+03  0.7818608E-02  0.9505954E-01
         -2   -1    0    0    0  501 -0.00000000000E+00  0.00000000000E+00  0.29310243612E+03  0.29310243613E+03  0.25500000000E-02 0.  1.
          2   -1    0    0  501    0  0.00000000000E+00 -0.00000000000E+00 -0.25071201275E+04  0.25071201275E+04  0.25500000000E-02 0. -1.
    8880023    1    1    2    0    0  0.63022922842E+03  0.44839323926E+02 -0.69256893636E+03  0.11457143550E+04  0.65864270000E+03 0.  1.
    8880022    1    1    2    0    0 -0.63022922842E+03 -0.44839323926E+02 -0.15214487550E+04  0.16545082086E+04  0.15294330000E+03 0.  0.
<mgrwt>
<rscale>  0 0.83846281E+03</rscale>
<asrwt>0</asrwt>
<pdfrwt beam="1">  1        2 0.38571077E+00 0.91269362E+03</pdfrwt>
<pdfrwt beam="2">  1       -2 0.45092684E-01 0.91269362E+03</pdfrwt>
<totfact> 0.16453283E+01</totfact>
</mgrwt>
</event>
<event>
 4    5  0.1112901E-007  0.8225364E+03  0.7818608E-02  0.9664033E-01
          2   -1    0    0  501    0  0.00000000000E+00  0.00000000000E+00  0.20431907721E+04  0.20431907721E+04  0.25500000000E-02 0. -1.
         -2   -1    0    0    0  501 -0.00000000000E+00 -0.00000000000E+00 -0.81709836974E+03  0.81709836974E+03  0.25500000000E-02 0.  1.
    8880023    1    1    2    0    0  0.30215170578E+03  0.38917890809E+03 -0.56400841419E+03  0.99733222817E+03  0.65864270000E+03 0.  0.
    8880022    1    1    2    0    0 -0.30215170578E+03 -0.38917890809E+03  0.17901008166E+04  0.18629569137E+04  0.15294330000E+03 0.  0.
<mgrwt>
<rscale>  0 0.73199251E+03</rscale>
<asrwt>0</asrwt>
<pdfrwt beam="1">  1        2 0.31433704E+00 0.82253637E+03</pdfrwt>
<pdfrwt beam="2">  1       -2 0.12570744E+00 0.82253637E+03</pdfrwt>
<totfact> 0.30634991E+00</totfact>
</mgrwt>
</event>
<event>
 4    5  0.1112901E-007  0.9599981E+03  0.7818608E-02  0.9435873E-01
          2   -1    0    0  501    0  0.00000000000E+00  0.00000000000E+00  0.26611493210E+04  0.26611493210E+04  0.25500000000E-02 0. -1.
         -2   -1    0    0    0  501 -0.00000000000E+00 -0.00000000000E+00 -0.30586232111E+03  0.30586232112E+03  0.25500000000E-02 0.  1.
    8880023    1    1    2    0    0 -0.67646481199E+03  0.17372849725E+03  0.77951036900E+03  0.12366215485E+04  0.65864270000E+03 0.  1.
    8880022    1    1    2    0    0  0.67646481199E+03 -0.17372849725E+03  0.15757766309E+04  0.17303900936E+04  0.15294330000E+03 0.  0.
<mgrwt>
<rscale>  0 0.89181403E+03</rscale>
<asrwt>0</asrwt>
<pdfrwt beam="1">  1        2 0.40940761E+00 0.95999815E+03</pdfrwt>
<pdfrwt beam="2">  1       -2 0.47055739E-01 0.95999815E+03</pdfrwt>
<totfact> 0.12234934E+01</totfact>
</mgrwt>
</event>
<event>
 4    5  0.1112901E-007  0.9532776E+03  0.7818608E-02  0.9445414E-01
          2   -1    0    0  501    0  0.00000000000E+00  0.00000000000E+00  0.11263310753E+04  0.11263310753E+04  0.25500000000E-02 0. -1.
         -2   -1    0    0    0  501 -0.00000000000E+00 -0.00000000000E+00 -0.69183401920E+03  0.69183401920E+03  0.25500000000E-02 0.  1.
    8880023    1    1    2    0    0  0.57438518429E+03 -0.38080125013E+03  0.55345689403E+03  0.11022942764E+04  0.65864270000E+03 0.  0.
    8880022    1    1    2    0    0 -0.57438518429E+03  0.38080125013E+03 -0.11895983798E+03  0.71587081803E+03  0.15294330000E+03 0.  0.
<mgrwt>
<rscale>  0 0.88430693E+03</rscale>
<asrwt>0</asrwt>
<pdfrwt beam="1">  1        2 0.17328170E+00 0.95327758E+03</pdfrwt>
<pdfrwt beam="2">  1       -2 0.10643600E+00 0.95327758E+03</pdfrwt>
<totfact> 0.14896863E+01</totfact>
</mgrwt>
</event>
<event>
 4    5  0.1112901E-007  0.9046817E+03  0.7818608E-02  0.9518557E-01
         -2   -1    0    0    0  501 -0.00000000000E+00  0.00000000000E+00  0.43938678508E+03  0.43938678509E+03  0.25500000000E-02 0.  1.
          2   -1    0    0  501    0  0.00000000000E+00 -0.00000000000E+00 -0.17907476876E+04  0.17907476876E+04  0.25500000000E-02 0. -1.
    8880023    1    1    2    0    0 -0.43164294884E+03 -0.44533487837E+03 -0.22023075167E+03  0.93110180937E+03  0.65864270000E+03 0.  0.
    8880022    1    1    2    0    0  0.43164294884E+03  0.44533487837E+03 -0.11311301509E+04  0.12990326633E+04  0.15294330000E+03 0.  0.
<mgrwt>
<rscale>  0 0.82929382E+03</rscale>
<asrwt>0</asrwt>
<pdfrwt beam="1">  1        2 0.27549964E+00 0.90468171E+03</pdfrwt>
<pdfrwt beam="2">  1       -2 0.67597968E-01 0.90468171E+03</pdfrwt>
<totfact> 0.17700421E+01</totfact>
</mgrwt>
</event>
<event>
 4    5  0.1112901E-007  0.1056485E+04  0.7818608E-02  0.9311125E-01
          2   -1    0    0  501    0  0.00000000000E+00  0.00000000000E+00  0.10607345284E+04  0.10607345284E+04  0.25500000000E-02 0. -1.
         -2   -1    0    0    0  501 -0.00000000000E+00 -0.00000000000E+00 -0.11155394589E+04  0.11155394589E+04  0.25500000000E-02 0.  1.
    8880023    1    1    2    0    0 -0.35486293453E+03 -0.74593790822E+03  0.50070674768E+03  0.11691315233E+04  0.65864270000E+03 0.  0.
    8880022    1    1    2    0    0  0.35486293453E+03  0.74593790822E+03 -0.55551167823E+03  0.10071424640E+04  0.15294330000E+03 0.  0.
<mgrwt>
<rscale>  0 0.99765046E+03</rscale>
<asrwt>0</asrwt>
<pdfrwt beam="1">  1        2 0.16318993E+00 0.10564853E+04</pdfrwt>
<pdfrwt beam="2">  1       -2 0.17162145E+00 0.10564853E+04</pdfrwt>
<totfact> 0.47143897E+00</totfact>
</mgrwt>
</event>
<event>
 4    5  0.1112901E-007  0.1012563E+04  0.7818608E-02  0.9365303E-01
          2   -1    0    0  501    0  0.00000000000E+00  0.00000000000E+00  0.22191404029E+04  0.22191404029E+04  0.25500000000E-02 0. -1.
         -2   -1    0    0    0  501 -0.00000000000E+00 -0.00000000000E+00 -0.61632601724E+03  0.61632601724E+03  0.25500000000E-02 0.  1.
    8880023    1    1    2    0    0 -0.65925935352E+03 -0.39604334752E+03 -0.41861859840E+02  0.10134277724E+04  0.65864270000E+03 0.  0.
    8880022    1    1    2    0    0  0.65925935352E+03  0.39604334752E+03  0.16446762455E+04  0.18220386477E+04  0.15294330000E+03 0.  0.
<mgrwt>
<rscale>  0 0.94986949E+03</rscale>
<asrwt>0</asrwt>
<pdfrwt beam="1">  1        2 0.34140621E+00 0.10125628E+04</pdfrwt>
<pdfrwt beam="2">  1       -2 0.94819389E-01 0.10125628E+04</pdfrwt>
<totfact> 0.47274676E+00</totfact>
</mgrwt>
</event>
<event>
 4    5  0.1112901E-007  0.1464204E+04  0.7818608E-02  0.8935335E-01
         -2   -1    0    0    0  501 -0.00000000000E+00  0.00000000000E+00  0.97985786211E+03  0.97985786212E+03  0.25500000000E-02 0.  1.
          2   -1    0    0  501    0  0.00000000000E+00 -0.00000000000E+00 -0.35656256312E+04  0.35656256312E+04  0.25500000000E-02 0. -1.
    8880023    1    1    2    0    0 -0.21638683447E+02 -0.13075220793E+04 -0.28486138460E+04  0.32028882700E+04  0.65864270000E+03 0. -1.
    8880022    1    1    2    0    0  0.21638683447E+02  0.13075220793E+04  0.26284607688E+03  0.13425952233E+04  0.15294330000E+03 0.  0.
<mgrwt>
<rscale>  0 0.14258236E+04</rscale>
<asrwt>0</asrwt>
<pdfrwt beam="1">  1        2 0.54855778E+00 0.14642037E+04</pdfrwt>
<pdfrwt beam="2">  1       -2 0.15074737E+00 0.14642037E+04</pdfrwt>
<totfact> 0.20705836E-01</totfact>
</mgrwt>
</event>
<event>
 4    5  0.1112901E-007  0.8100736E+03  0.7818608E-02  0.9689424E-01
         -2   -1    0    0    0  501 -0.00000000000E+00  0.00000000000E+00  0.12358922515E+04  0.12358922515E+04  0.25500000000E-02 0.  1.
          2   -1    0    0  501    0  0.00000000000E+00 -0.00000000000E+00 -0.43448630338E+03  0.43448630339E+03  0.25500000000E-02 0. -1.
    8880023    1    1    2    0    0  0.19843811571E+03  0.42782157803E+03  0.84759481252E+03  0.11724487882E+04  0.65864270000E+03 0.  0.
    8880022    1    1    2    0    0 -0.19843811571E+03 -0.42782157803E+03 -0.46188864391E+02  0.49792976674E+03  0.15294330000E+03 0.  0.
<mgrwt>
<rscale>  0 0.71650005E+03</rscale>
<asrwt>0</asrwt>
<pdfrwt beam="1">  1        2 0.66844048E-01 0.81007357E+03</pdfrwt>
<pdfrwt beam="2">  1       -2 0.19013727E+00 0.81007357E+03</pdfrwt>
<totfact> 0.11326415E+01</totfact>
</mgrwt>
</event>
<event>
 4    5  0.1112901E-007  0.8577504E+03  0.7818608E-02  0.9597578E-01
          2   -1    0    0  501    0  0.00000000000E+00  0.00000000000E+00  0.26134812747E+04  0.26134812747E+04  0.25500000000E-02 0. -1.
         -2   -1    0    0    0  501 -0.00000000000E+00 -0.00000000000E+00 -0.62895476631E+03  0.62895476631E+03  0.25500000000E-02 0.  1.
    8880023    1    1    2    0    0 -0.54909020988E+03 -0.20626620468E+02 -0.28381460710E+03  0.90348572403E+03  0.65864270000E+03 0.  1.
    8880022    1    1    2    0    0  0.54909020988E+03  0.20626620468E+02  0.22683411154E+04  0.23389503169E+04  0.15294330000E+03 0.  0.
<mgrwt>
<rscale>  0 0.77456713E+03</rscale>
<asrwt>0</asrwt>
<pdfrwt beam="1">  1        2 0.40207404E+00 0.85775038E+03</pdfrwt>
<pdfrwt beam="2">  1       -2 0.96762273E-01 0.85775038E+03</pdfrwt>
<totfact> 0.27571757E+00</totfact>
</mgrwt>
</event>
<event>
 4    5  0.1112901E-007  0.1009998E+04  0.7818608E-02  0.9368592E-01
          2   -1    0    0  501    0  0.00000000000E+00  0.00000000000E+00  0.20072358765E+04  0.20072358765E+04  0.25500000000E-02 0. -1.
         -2   -1    0    0    0  501 -0.00000000000E+00 -0.00000000000E+00 -0.11751109382E+04  0.11751109382E+04  0.25500000000E-02 0.  1.
    8880023    1    1    2    0    0 -0.74742034778E+01 -0.76565664294E+03 -0.85499815012E+03  0.13232981529E+04  0.65864270000E+03 0.  0.
    8880022    1    1    2    0    0  0.74742034778E+01  0.76565664294E+03  0.16871230884E+04  0.18590486618E+04  0.15294330000E+03 0.  0.
<mgrwt>
<rscale>  0 0.94706099E+03</rscale>
<asrwt>0</asrwt>
<pdfrwt beam="1">  1        2 0.30880552E+00 0.10099981E+04</pdfrwt>
<pdfrwt beam="2">  1       -2 0.18078630E+00 0.10099981E+04</pdfrwt>
<totfact> 0.11811667E+00</totfact>
</mgrwt>
</event>
<event>
 4    5  0.1112901E-007  0.1473019E+04  0.7818608E-02  0.8928927E-01
          2   -1    0    0  501    0  0.00000000000E+00  0.00000000000E+00  0.19108433571E+04  0.19108433571E+04  0.25500000000E-02 0. -1.
         -2   -1    0    0    0  501 -0.00000000000E+00 -0.00000000000E+00 -0.12838261678E+04  0.12838261678E+04  0.25500000000E-02 0.  1.
    8880023    1    1    2    0    0  0.11874993848E+04  0.57080539084E+03 -0.38937897464E+03  0.15236140506E+04  0.65864270000E+03 0.  0.
    8880022    1    1    2    0    0 -0.11874993848E+04 -0.57080539084E+03  0.10163961640E+04  0.16710554743E+04  0.15294330000E+03 0.  0.
<mgrwt>
<rscale>  0 0.14349133E+04</rscale>
<asrwt>0</asrwt>
<pdfrwt beam="1">  1        2 0.29397590E+00 0.14730186E+04</pdfrwt>
<pdfrwt beam="2">  1       -2 0.19751172E+00 0.14730186E+04</pdfrwt>
<totfact> 0.97471403E-01</totfact>
</mgrwt>
</event>
<event>
 4    5  0.1112901E-007  0.8521942E+03  0.7818608E-02  0.9607602E-01
          2   -1    0    0  501    0  0.00000000000E+00  0.00000000000E+00  0.53267707150E+03  0.53267707150E+03  0.25500000000E-02 0. -1.
         -2   -1    0    0    0  501 -0.00000000000E+00 -0.00000000000E+00 -0.24812364664E+04  0.24812364664E+04  0.25500000000E-02 0.  1.
    8880023    1    1    2    0    0  0.40518620036E+03  0.35811863095E+03 -0.22286365349E+04  0.23860125360E+04  0.65864270000E+03 0.  1.
    8880022    1    1    2    0    0 -0.40518620036E+03 -0.35811863095E+03  0.28007714005E+03  0.62790100190E+03  0.15294330000E+03 0.  0.
<mgrwt>
<rscale>  0 0.76795061E+03</rscale>
<asrwt>0</asrwt>
<pdfrwt beam="1">  1        2 0.81950320E-01 0.85219424E+03</pdfrwt>
<pdfrwt beam="2">  1       -2 0.38172868E+00 0.85219424E+03</pdfrwt>
<totfact> 0.58117370E-01</totfact>
</mgrwt>
</event>
<event>
 4    5  0.1112901E-007  0.1684606E+04  0.7818608E-02  0.8789206E-01
         -2   -1    0    0    0  501 -0.00000000000E+00  0.00000000000E+00  0.96314386214E+03  0.96314386215E+03  0.25500000000E-02 0.  1.
          2   -1    0    0  501    0  0.00000000000E+00 -0.00000000000E+00 -0.34402210684E+04  0.34402210684E+04  0.25500000000E-02 0. -1.
    8880023    1    1    2    0    0 -0.10094573107E+04 -0.11768956631E+04 -0.27662091236E+03  0.17071663069E+04  0.65864270000E+03 0.  0.
    8880022    1    1    2    0    0  0.10094573107E+04  0.11768956631E+04 -0.22004562938E+04  0.26961986236E+04  0.15294330000E+03 0.  0.
<mgrwt>
<rscale>  0 0.16520311E+04</rscale>
<asrwt>0</asrwt>
<pdfrwt beam="1">  1        2 0.52926477E+00 0.16846061E+04</pdfrwt>
<pdfrwt beam="2">  1       -2 0.14817598E+00 0.16846061E+04</pdfrwt>
<totfact> 0.25814028E-01</totfact>
</mgrwt>
</event>
<event>
 4    5  0.1112901E-007  0.6675172E+03  0.7818608E-02  0.1017509E+00
          2   -1    0    0  501    0  0.00000000000E+00  0.00000000000E+00  0.39029474032E+04  0.39029474032E+04  0.25500000000E-02 0. -1.
         -2   -1    0    0    0  501 -0.00000000000E+00 -0.00000000000E+00 -0.24881187412E+03  0.24881187414E+03  0.25500000000E-02 0.  1.
    8880023    1    1    2    0    0 -0.99920972045E+02 -0.42246903226E+02  0.20607368323E+03  0.69860258421E+03  0.65864270000E+03 0.  1.
    8880022    1    1    2    0    0  0.99920972045E+02  0.42246903226E+02  0.34480618459E+04  0.34531566931E+04  0.15294330000E+03 0.  0.
<mgrwt>
<rscale>  0 0.48596385E+03</rscale>
<asrwt>0</asrwt>
<pdfrwt beam="1">  1        2 0.60045341E+00 0.66751720E+03</pdfrwt>
<pdfrwt beam="2">  1       -2 0.38278752E-01 0.66751720E+03</pdfrwt>
<totfact> 0.29657274E+00</totfact>
</mgrwt>
</event>
<event>
 4    5  0.1112901E-007  0.7098005E+03  0.7818608E-02  0.9958743E-01
          2   -1    0    0  501    0  0.00000000000E+00  0.00000000000E+00  0.19100505753E+04  0.19100505753E+04  0.25500000000E-02 0. -1.
         -2   -1    0    0    0  501 -0.00000000000E+00 -0.00000000000E+00 -0.63855082067E+03  0.63855082068E+03  0.25500000000E-02 0.  1.
    8880023    1    1    2    0    0  0.25780259702E+03 -0.59534336169E+02 -0.42331992864E+03  0.82644811359E+03  0.65864270000E+03 0.  0.
    8880022    1    1    2    0    0 -0.25780259702E+03  0.59534336169E+02  0.16948196833E+04  0.17221532824E+04  0.15294330000E+03 0. -1.
<mgrwt>
<rscale>  0 0.57496911E+03</rscale>
<asrwt>0</asrwt>
<pdfrwt beam="1">  1        2 0.29385394E+00 0.70980048E+03</pdfrwt>
<pdfrwt beam="2">  1       -2 0.98238586E-01 0.70980048E+03</pdfrwt>
<totfact> 0.67184125E+00</totfact>
</mgrwt>
</event>
<event>
 4    5  0.1112901E-007  0.1635110E+04  0.7818608E-02  0.8819688E-01
         -2   -1    0    0    0  501 -0.00000000000E+00  0.00000000000E+00  0.39107263949E+04  0.39107263949E+04  0.25500000000E-02 0.  1.
          2   -1    0    0  501    0  0.00000000000E+00 -0.00000000000E+00 -0.10954278752E+04  0.10954278752E+04  0.25500000000E-02 0. -1.
    8880023    1    1    2    0    0 -0.37755600697E+03  0.14481803113E+04  0.30719759946E+04  0.34800318203E+04  0.65864270000E+03 0.  0.
    8880022    1    1    2    0    0  0.37755600697E+03 -0.14481803113E+04 -0.25667747493E+03  0.15261224498E+04  0.15294330000E+03 0.  0.
<mgrwt>
<rscale>  0 0.16013999E+04</rscale>
<asrwt>0</asrwt>
<pdfrwt beam="1">  1        2 0.16852737E+00 0.16351101E+04</pdfrwt>
<pdfrwt beam="2">  1       -2 0.60165021E+00 0.16351101E+04</pdfrwt>
<totfact> 0.99015180E-03</totfact>
</mgrwt>
</event>
<event>
 4    5  0.2680900E-007  0.1109808E+04  0.7818608E-02  0.9250214E-01
          2   -1    0    0  501    0  0.00000000000E+00  0.00000000000E+00  0.29435069411E+04  0.29435069411E+04  0.25500000000E-02 0. -1.
         -2   -1    0    0    0  501 -0.00000000000E+00 -0.00000000000E+00 -0.18247138958E+04  0.18247138958E+04  0.25500000000E-02 0.  1.
    8880023    1    1    2    0    0  0.60334568852E+03 -0.65866421509E+03 -0.15746288522E+04  0.19264295463E+04  0.65864270000E+03 0.  1.
    8880022    1    1    2    0    0 -0.60334568852E+03  0.65866421509E+03  0.26934218976E+04  0.28417912906E+04  0.15294330000E+03 0.  0.
<mgrwt>
<rscale>  0 0.10549839E+04</rscale>
<asrwt>0</asrwt>
<pdfrwt beam="1">  1        2 0.45284722E+00 0.11098084E+04</pdfrwt>
<pdfrwt beam="2">  1       -2 0.28072522E+00 0.11098084E+04</pdfrwt>
<totfact> 0.78916918E-02</totfact>
</mgrwt>
</event>
<event>
 4    5  0.1112901E-007  0.7218810E+03  0.7818608E-02  0.9916272E-01
         -2   -1    0    0    0  501 -0.00000000000E+00  0.00000000000E+00  0.94485701427E+03  0.94485701428E+03  0.25500000000E-02 0.  1.
          2   -1    0    0  501    0  0.00000000000E+00 -0.00000000000E+00 -0.95754248729E+03  0.95754248730E+03  0.25500000000E-02 0. -1.
    8880023    1    1    2    0    0  0.21037523194E+03 -0.20747121189E+03  0.76785770430E+03  0.10539059267E+04  0.65864270000E+03 0.  1.
    8880022    1    1    2    0    0 -0.21037523194E+03  0.20747121189E+03 -0.78054317731E+03  0.84849357490E+03  0.15294330000E+03 0.  0.
<mgrwt>
<rscale>  0 0.59479128E+03</rscale>
<asrwt>0</asrwt>
<pdfrwt beam="1">  1        2 0.14731423E+00 0.72188105E+03</pdfrwt>
<pdfrwt beam="2">  1       -2 0.14536262E+00 0.72188105E+03</pdfrwt>
<totfact> 0.89222886E+00</totfact>
</mgrwt>
</event>
<event>
 4    5  0.1112901E-007  0.6628811E+03  0.7818608E-02  0.1021381E+00
          2   -1    0    0  501    0  0.00000000000E+00  0.00000000000E+00  0.23522082708E+04  0.23522082708E+04  0.25500000000E-02 0. -1.
         -2   -1    0    0    0  501 -0.00000000000E+00 -0.00000000000E+00 -0.12286360162E+03  0.12286360165E+03  0.25500000000E-02 0.  1.
    8880023    1    1    2    0    0  0.21388966290E+02  0.71719606863E+02  0.81512208378E+03  0.10506357159E+04  0.65864270000E+03 0.  1.
    8880022    1    1    2    0    0 -0.21388966290E+02 -0.71719606863E+02  0.14142225854E+04  0.14244361565E+04  0.15294330000E+03 0.  0.
<mgrwt>
<rscale>  0 0.47191425E+03</rscale>
<asrwt>0</asrwt>
<pdfrwt beam="1">  1        2 0.36187815E+00 0.66288113E+03</pdfrwt>
<pdfrwt beam="2">  1       -2 0.18902095E-01 0.66288113E+03</pdfrwt>
<totfact> 0.10422771E+02</totfact>
</mgrwt>
</event>
<event>
 4    5  0.1112901E-007  0.1372928E+04  0.7818608E-02  0.9005009E-01
          2   -1    0    0  501    0  0.00000000000E+00  0.00000000000E+00  0.28078871477E+04  0.28078871477E+04  0.25500000000E-02 0. -1.
         -2   -1    0    0    0  501 -0.00000000000E+00 -0.00000000000E+00 -0.10339380530E+04  0.10339380530E+04  0.25500000000E-02 0.  1.
    8880023    1    1    2    0    0 -0.46330172671E+03  0.11119682254E+04 -0.33052081878E+03  0.14121529812E+04  0.65864270000E+03 0.  0.
    8880022    1    1    2    0    0  0.46330172671E+03 -0.11119682254E+04  0.21044699135E+04  0.24296722195E+04  0.15294330000E+03 0.  0.
<mgrwt>
<rscale>  0 0.13314258E+04</rscale>
<asrwt>0</asrwt>
<pdfrwt beam="1">  1        2 0.43198264E+00 0.13729283E+04</pdfrwt>
<pdfrwt beam="2">  1       -2 0.15906739E+00 0.13729283E+04</pdfrwt>
<totfact> 0.56151009E-01</totfact>
</mgrwt>
</event>
<event>
 4    5  0.1112901E-007  0.9289931E+03  0.7818608E-02  0.9481005E-01
          2   -1    0    0  501    0  0.00000000000E+00  0.00000000000E+00  0.14731746184E+04  0.14731746184E+04  0.25500000000E-02 0. -1.
         -2   -1    0    0    0  501 -0.00000000000E+00 -0.00000000000E+00 -0.51742029803E+03  0.51742029804E+03  0.25500000000E-02 0.  1.
    8880023    1    1    2    0    0 -0.11916060234E+03 -0.64421943989E+03  0.93420806501E+03  0.13174873247E+04  0.65864270000E+03 0. -1.
    8880022    1    1    2    0    0  0.11916060234E+03  0.64421943989E+03  0.21546255377E+02  0.67310759171E+03  0.15294330000E+03 0.  0.
<mgrwt>
<rscale>  0 0.85698817E+03</rscale>
<asrwt>0</asrwt>
<pdfrwt beam="1">  1        2 0.22664225E+00 0.92899308E+03</pdfrwt>
<pdfrwt beam="2">  1       -2 0.79603122E-01 0.92899308E+03</pdfrwt>
<totfact> 0.18443597E+01</totfact>
</mgrwt>
</event>
<event>
 4    5  0.1112901E-007  0.7380947E+03  0.7818608E-02  0.9865532E-01
         -2   -1    0    0    0  501 -0.00000000000E+00  0.00000000000E+00  0.40941313286E+03  0.40941313287E+03  0.25500000000E-02 0.  1.
          2   -1    0    0  501    0  0.00000000000E+00 -0.00000000000E+00 -0.14285911316E+04  0.14285911316E+04  0.25500000000E-02 0. -1.
    8880023    1    1    2    0    0 -0.25900526725E+03  0.20949897510E+03  0.17630939915E+02  0.73830522505E+03  0.65864270000E+03 0.  0.
    8880022    1    1    2    0    0  0.25900526725E+03 -0.20949897510E+03 -0.10368089387E+04  0.10996990394E+04  0.15294330000E+03 0.  0.
<mgrwt>
<rscale>  0 0.61961212E+03</rscale>
<asrwt>0</asrwt>
<pdfrwt beam="1">  1        2 0.21978325E+00 0.73809468E+03</pdfrwt>
<pdfrwt beam="2">  1       -2 0.62986636E-01 0.73809468E+03</pdfrwt>
<totfact> 0.33305067E+01</totfact>
</mgrwt>
</event>
<event>
 4    5  0.1112901E-007  0.2257938E+04  0.7818608E-02  0.8504255E-01
          2   -1    0    0  501    0  0.00000000000E+00  0.00000000000E+00  0.35361894370E+04  0.35361894370E+04  0.25500000000E-02 0. -1.
         -2   -1    0    0    0  501 -0.00000000000E+00 -0.00000000000E+00 -0.16718749255E+04  0.16718749255E+04  0.25500000000E-02 0.  1.
    8880023    1    1    2    0    0  0.19068873036E+04 -0.10140293583E+04 -0.13369918058E+03  0.22618931021E+04  0.65864270000E+03 0.  0.
    8880022    1    1    2    0    0 -0.19068873036E+04  0.10140293583E+04  0.19980136921E+04  0.29461712603E+04  0.15294330000E+03 0.  0.
<mgrwt>
<rscale>  0 0.22343744E+04</rscale>
<asrwt>0</asrwt>
<pdfrwt beam="1">  1        2 0.54402914E+00 0.22579382E+04</pdfrwt>
<pdfrwt beam="2">  1       -2 0.25721153E+00 0.22579382E+04</pdfrwt>
<totfact> 0.38455909E-02</totfact>
</mgrwt>
</event>
<event>
 4    5  0.1112901E-007  0.7641113E+03  0.7818608E-02  0.9794578E-01
         -2   -1    0    0    0  501 -0.00000000000E+00  0.00000000000E+00  0.56097880377E+03  0.56097880378E+03  0.25500000000E-02 0.  1.
          2   -1    0    0  501    0  0.00000000000E+00 -0.00000000000E+00 -0.10173587760E+04  0.10173587760E+04  0.25500000000E-02 0. -1.
    8880023    1    1    2    0    0  0.31782652394E+03 -0.22145472224E+03  0.21006875838E+03  0.79246134470E+03  0.65864270000E+03 0.  1.
    8880022    1    1    2    0    0 -0.31782652394E+03  0.22145472224E+03 -0.66644873060E+03  0.78587623508E+03  0.15294330000E+03 0.  0.
<mgrwt>
<rscale>  0 0.65654348E+03</rscale>
<asrwt>0</asrwt>
<pdfrwt beam="1">  1        2 0.15651673E+00 0.76411131E+03</pdfrwt>
<pdfrwt beam="2">  1       -2 0.86304431E-01 0.76411131E+03</pdfrwt>
<totfact> 0.28998961E+01</totfact>
</mgrwt>
</event>
<event>
 4    5  0.1112901E-007  0.1320598E+04  0.7818608E-02  0.9047974E-01
         -2   -1    0    0    0  501 -0.00000000000E+00  0.00000000000E+00  0.34090054090E+04  0.34090054090E+04  0.25500000000E-02 0.  1.
          2   -1    0    0  501    0  0.00000000000E+00 -0.00000000000E+00 -0.68499327717E+03  0.68499327718E+03  0.25500000000E-02 0. -1.
    8880023    1    1    2    0    0  0.11053947192E+04  0.29710371681E+03  0.26206491111E+04  0.29345834582E+04  0.65864270000E+03 0.  0.
    8880022    1    1    2    0    0 -0.11053947192E+04 -0.29710371681E+03  0.10336302081E+03  0.11594152280E+04  0.15294330000E+03 0.  0.
<mgrwt>
<rscale>  0 0.12770399E+04</rscale>
<asrwt>0</asrwt>
<pdfrwt beam="1">  1        2 0.10538358E+00 0.13205977E+04</pdfrwt>
<pdfrwt beam="2">  1       -2 0.52446236E+00 0.13205977E+04</pdfrwt>
<totfact> 0.47617709E-02</totfact>
</mgrwt>
</event>
<event>
 4    5  0.1112901E-007  0.7998211E+03  0.7818608E-02  0.9711183E-01
          2   -1    0    0  501    0  0.00000000000E+00  0.00000000000E+00  0.26443142186E+04  0.26443142186E+04  0.25500000000E-02 0. -1.
         -2   -1    0    0    0  501 -0.00000000000E+00 -0.00000000000E+00 -0.37910507106E+03  0.37910507107E+03  0.25500000000E-02 0.  1.
    8880023    1    1    2    0    0  0.22778971988E+03  0.39244798109E+03  0.10018297117E+03  0.80607096978E+03  0.65864270000E+03 0.  1.
    8880022    1    1    2    0    0 -0.22778971988E+03 -0.39244798109E+03  0.21650261764E+04  0.22173483199E+04  0.15294330000E+03 0.  0.
<mgrwt>
<rscale>  0 0.70354846E+03</rscale>
<asrwt>0</asrwt>
<pdfrwt beam="1">  1        2 0.40681758E+00 0.79982109E+03</pdfrwt>
<pdfrwt beam="2">  1       -2 0.58323855E-01 0.79982109E+03</pdfrwt>
<totfact> 0.82295819E+00</totfact>
</mgrwt>
</event>
<event>
 4    5  0.1112901E-007  0.7267176E+03  0.7818608E-02  0.9900478E-01
          2   -1    0    0  501    0  0.00000000000E+00  0.00000000000E+00  0.88553577534E+03  0.88553577534E+03  0.25500000000E-02 0. -1.
         -2   -1    0    0    0  501 -0.00000000000E+00 -0.00000000000E+00 -0.59756245619E+03  0.59756245620E+03  0.25500000000E-02 0.  1.
    8880023    1    1    2    0    0 -0.27081140799E+02  0.30590016391E+03 -0.31287166260E+03  0.79120615644E+03  0.65864270000E+03 0.  1.
    8880022    1    1    2    0    0  0.27081140799E+02 -0.30590016391E+03  0.60084498175E+03  0.69189207509E+03  0.15294330000E+03 0.  0.
<mgrwt>
<rscale>  0 0.60238106E+03</rscale>
<asrwt>0</asrwt>
<pdfrwt beam="1">  1        2 0.13623627E+00 0.72671762E+03</pdfrwt>
<pdfrwt beam="2">  1       -2 0.91932686E-01 0.72671762E+03</pdfrwt>
<totfact> 0.30692827E+01</totfact>
</mgrwt>
</event>
<event>
 4    5  0.1112901E-007  0.7770802E+03  0.7818608E-02  0.9762741E-01
          2   -1    0    0  501    0  0.00000000000E+00  0.00000000000E+00  0.69068765128E+03  0.69068765128E+03  0.25500000000E-02 0. -1.
         -2   -1    0    0    0  501 -0.00000000000E+00 -0.00000000000E+00 -0.24088511081E+04  0.24088511081E+04  0.25500000000E-02 0.  1.
    8880023    1    1    2    0    0 -0.34819887915E+03  0.22090945818E+03 -0.22668464699E+04  0.23963402455E+04  0.65864270000E+03 0.  1.
    8880022    1    1    2    0    0  0.34819887915E+03 -0.22090945818E+03  0.54868301301E+03  0.70319851389E+03  0.15294330000E+03 0.  0.
<mgrwt>
<rscale>  0 0.67400993E+03</rscale>
<asrwt>0</asrwt>
<pdfrwt beam="1">  1        2 0.10625964E+00 0.77708021E+03</pdfrwt>
<pdfrwt beam="2">  1       -2 0.37059247E+00 0.77708021E+03</pdfrwt>
<totfact> 0.50577842E-01</totfact>
</mgrwt>
</event>
<event>
 4    5  0.1112901E-007  0.7967658E+03  0.7818608E-02  0.9717833E-01
         -2   -1    0    0    0  501 -0.00000000000E+00  0.00000000000E+00  0.46854895211E+03  0.46854895212E+03  0.25500000000E-02 0.  1.
          2   -1    0    0  501    0  0.00000000000E+00 -0.00000000000E+00 -0.30777558043E+04  0.30777558043E+04  0.25500000000E-02 0. -1.
    8880023    1    1    2    0    0 -0.42386570498E+03  0.14616228269E+03  0.93646802908E+02  0.80225025940E+03  0.65864270000E+03 0.  1.
    8880022    1    1    2    0    0  0.42386570498E+03 -0.14616228269E+03 -0.27028536551E+04  0.27440544970E+04  0.15294330000E+03 0.  0.
<mgrwt>
<rscale>  0 0.69964871E+03</rscale>
<asrwt>0</asrwt>
<pdfrwt beam="1">  1        2 0.47350088E+00 0.79676581E+03</pdfrwt>
<pdfrwt beam="2">  1       -2 0.72084456E-01 0.79676581E+03</pdfrwt>
<totfact> 0.28729733E+00</totfact>
</mgrwt>
</event>
<event>
 4    5  0.1112901E-007  0.6952860E+03  0.7818608E-02  0.1001735E+00
         -2   -1    0    0    0  501 -0.00000000000E+00  0.00000000000E+00  0.73492200730E+02  0.73492200774E+02  0.25500000000E-02 0.  1.
          2   -1    0    0  501    0  0.00000000000E+00 -0.00000000000E+00 -0.34116213553E+04  0.34116213553E+04  0.25500000000E-02 0. -1.
    8880023    1    1    2    0    0 -0.95548978577E+02  0.20120346518E+03 -0.19329969181E+04  0.20542394537E+04  0.65864270000E+03 0.  1.
    8880022    1    1    2    0    0  0.95548978577E+02 -0.20120346518E+03 -0.14051322365E+04  0.14308741023E+04  0.15294330000E+03 0. -1.
<mgrwt>
<rscale>  0 0.54896041E+03</rscale>
<asrwt>0</asrwt>
<pdfrwt beam="1">  1        2 0.52486470E+00 0.69528602E+03</pdfrwt>
<pdfrwt beam="2">  1       -2 0.11306495E-01 0.69528602E+03</pdfrwt>
<totfact> 0.56812575E+01</totfact>
</mgrwt>
</event>
<event>
 4    5  0.1112901E-007  0.7802240E+03  0.7818608E-02  0.9755311E-01
          2   -1    0    0  501    0  0.00000000000E+00  0.00000000000E+00  0.14188059937E+04  0.14188059937E+04  0.25500000000E-02 0. -1.
         -2   -1    0    0    0  501 -0.00000000000E+00 -0.00000000000E+00 -0.93538738968E+03  0.93538738968E+03  0.25500000000E-02 0.  1.
    8880023    1    1    2    0    0 -0.21784537626E+03 -0.35704726809E+03 -0.72577454392E+03  0.10655976044E+04  0.65864270000E+03 0.  0.
    8880022    1    1    2    0    0  0.21784537626E+03  0.35704726809E+03  0.12091931480E+04  0.12885957790E+04  0.15294330000E+03 0.  0.
<mgrwt>
<rscale>  0 0.67816962E+03</rscale>
<asrwt>0</asrwt>
<pdfrwt beam="1">  1        2 0.21827785E+00 0.78022405E+03</pdfrwt>
<pdfrwt beam="2">  1       -2 0.14390575E+00 0.78022405E+03</pdfrwt>
<totfact> 0.48135689E+00</totfact>
</mgrwt>
</event>
<event>
 4    5  0.1112901E-007  0.8591579E+03  0.7818608E-02  0.9595063E-01
         -2   -1    0    0    0  501 -0.00000000000E+00  0.00000000000E+00  0.60310433615E+03  0.60310433615E+03  0.25500000000E-02 0.  1.
          2   -1    0    0  501    0  0.00000000000E+00 -0.00000000000E+00 -0.17897078769E+04  0.17897078769E+04  0.25500000000E-02 0. -1.
    8880023    1    1    2    0    0 -0.23172455760E+03 -0.50064539700E+03  0.20912197309E+03  0.88424221231E+03  0.65864270000E+03 0.  1.
    8880022    1    1    2    0    0  0.23172455760E+03  0.50064539700E+03 -0.13957255139E+04  0.15085700008E+04  0.15294330000E+03 0.  0.
<mgrwt>
<rscale>  0 0.77623797E+03</rscale>
<asrwt>0</asrwt>
<pdfrwt beam="1">  1        2 0.27533967E+00 0.85915790E+03</pdfrwt>
<pdfrwt beam="2">  1       -2 0.92785283E-01 0.85915790E+03</pdfrwt>
<totfact> 0.87412761E+00</totfact>
</mgrwt>
</event>
<event>
 4    5  0.1112901E-007  0.7365928E+03  0.7818608E-02  0.9869985E-01
          2   -1    0    0  501    0  0.00000000000E+00  0.00000000000E+00  0.38435268819E+03  0.38435268820E+03  0.25500000000E-02 0. -1.
         -2   -1    0    0    0  501 -0.00000000000E+00 -0.00000000000E+00 -0.18286960000E+04  0.18286960000E+04  0.25500000000E-02 0.  1.
    8880023    1    1    2    0    0 -0.58291079188E+02 -0.32459350109E+03 -0.16417229561E+04  0.17993952489E+04  0.65864270000E+03 0.  1.
    8880022    1    1    2    0    0  0.58291079188E+02  0.32459350109E+03  0.19737964429E+03  0.41365343932E+03  0.15294330000E+03 0.  0.
<mgrwt>
<rscale>  0 0.61738233E+03</rscale>
<asrwt>0</asrwt>
<pdfrwt beam="1">  1        2 0.59131184E-01 0.73659283E+03</pdfrwt>
<pdfrwt beam="2">  1       -2 0.28133784E+00 0.73659283E+03</pdfrwt>
<totfact> 0.35672995E+00</totfact>
</mgrwt>
</event>
<event>
 4    5  0.1112901E-007  0.1133784E+04  0.7818608E-02  0.9224342E-01
         -2   -1    0    0    0  501 -0.00000000000E+00  0.00000000000E+00  0.99133240497E+03  0.99133240497E+03  0.25500000000E-02 0.  1.
          2   -1    0    0  501    0  0.00000000000E+00 -0.00000000000E+00 -0.32333151036E+04  0.32333151036E+04  0.25500000000E-02 0. -1.
    8880023    1    1    2    0    0 -0.62926940938E+03 -0.67503756327E+03  0.56437896254E+03  0.12664870789E+04  0.65864270000E+03 0.  0.
    8880022    1    1    2    0    0  0.62926940938E+03  0.67503756327E+03 -0.28063616611E+04  0.29581604296E+04  0.15294330000E+03 0.  0.
<mgrwt>
<rscale>  0 0.10805669E+04</rscale>
<asrwt>0</asrwt>
<pdfrwt beam="1">  1        2 0.49743309E+00 0.11337839E+04</pdfrwt>
<pdfrwt beam="2">  1       -2 0.15251268E+00 0.11337839E+04</pdfrwt>
<totfact> 0.35327459E-01</totfact>
</mgrwt>
</event>
<event>
 4    5  0.1112901E-007  0.7256616E+03  0.7818608E-02  0.9903875E-01
          2   -1    0    0  501    0  0.00000000000E+00  0.00000000000E+00  0.22281477325E+04  0.22281477325E+04  0.25500000000E-02 0. -1.
         -2   -1    0    0    0  501 -0.00000000000E+00 -0.00000000000E+00 -0.61403201444E+03  0.61403201445E+03  0.25500000000E-02 0.  1.
    8880023    1    1    2    0    0 -0.16612935667E+03  0.25529507680E+03 -0.38000681026E+03  0.81913974479E+03  0.65864270000E+03 0.  1.
    8880022    1    1    2    0    0  0.16612935667E+03 -0.25529507680E+03  0.19941225283E+04  0.20230400022E+04  0.15294330000E+03 0.  0.
<mgrwt>
<rscale>  0 0.60073865E+03</rscale>
<asrwt>0</asrwt>
<pdfrwt beam="1">  1        2 0.34279196E+00 0.72566159E+03</pdfrwt>
<pdfrwt beam="2">  1       -2 0.94466464E-01 0.72566159E+03</pdfrwt>
<totfact> 0.49199064E+00</totfact>
</mgrwt>
</event>
<event>
 4    5  0.1112901E-007  0.1069589E+04  0.7818608E-02  0.9295695E-01
         -2   -1    0    0    0  501 -0.00000000000E+00  0.00000000000E+00  0.52152990397E+03  0.52152990398E+03  0.25500000000E-02 0.  1.
          2   -1    0    0  501    0  0.00000000000E+00 -0.00000000000E+00 -0.26281812483E+04  0.26281812483E+04  0.25500000000E-02 0. -1.
    8880023    1    1    2    0    0  0.45996916714E+03 -0.70614325642E+03 -0.24035879884E+03  0.10962629665E+04  0.65864270000E+03 0.  0.
    8880022    1    1    2    0    0 -0.45996916714E+03  0.70614325642E+03 -0.18662925455E+04  0.20534481858E+04  0.15294330000E+03 0.  0.
<mgrwt>
<rscale>  0 0.10118011E+04</rscale>
<asrwt>0</asrwt>
<pdfrwt beam="1">  1        2 0.40433557E+00 0.10695888E+04</pdfrwt>
<pdfrwt beam="2">  1       -2 0.80235372E-01 0.10695888E+04</pdfrwt>
<totfact> 0.40361422E+00</totfact>
</mgrwt>
</event>
<event>
 4    5  0.1112901E-007  0.1070894E+04  0.7818608E-02  0.9294176E-01
         -2   -1    0    0    0  501 -0.00000000000E+00  0.00000000000E+00  0.33415173866E+03  0.33415173867E+03  0.25500000000E-02 0.  1.
          2   -1    0    0  501    0  0.00000000000E+00 -0.00000000000E+00 -0.44400150102E+04  0.44400150102E+04  0.25500000000E-02 0. -1.
    8880023    1    1    2    0    0  0.83695878869E+03 -0.11181964446E+03 -0.74265804625E+03  0.13032094332E+04  0.65864270000E+03 0.  1.
    8880022    1    1    2    0    0 -0.83695878869E+03  0.11181964446E+03 -0.33632052253E+04  0.34709573157E+04  0.15294330000E+03 0.  0.
<mgrwt>
<rscale>  0 0.10132083E+04</rscale>
<asrwt>0</asrwt>
<pdfrwt beam="1">  1        2 0.68307919E+00 0.10708940E+04</pdfrwt>
<pdfrwt beam="2">  1       -2 0.51407963E-01 0.10708940E+04</pdfrwt>
<totfact> 0.53241339E-01</totfact>
</mgrwt>
</event>
<event>
 4    5  0.1112901E-007  0.1654883E+04  0.7818608E-02  0.8807365E-01
          2   -1    0    0  501    0  0.00000000000E+00  0.00000000000E+00  0.23039429829E+04  0.23039429830E+04  0.25500000000E-02 0. -1.
         -2   -1    0    0    0  501 -0.00000000000E+00 -0.00000000000E+00 -0.12931550467E+04  0.12931550467E+04  0.25500000000E-02 0.  1.
    8880023    1    1    2    0    0  0.12535026430E+04  0.85648047704E+03 -0.17576604679E+03  0.16641909725E+04  0.65864270000E+03 0. -1.
    8880022    1    1    2    0    0 -0.12535026430E+04 -0.85648047704E+03  0.11865539831E+04  0.19329070571E+04  0.15294330000E+03 0.  0.
<mgrwt>
<rscale>  0 0.16216363E+04</rscale>
<asrwt>0</asrwt>
<pdfrwt beam="1">  1        2 0.35445276E+00 0.16548830E+04</pdfrwt>
<pdfrwt beam="2">  1       -2 0.19894694E+00 0.16548830E+04</pdfrwt>
<totfact> 0.56364924E-01</totfact>
</mgrwt>
</event>
<event>
 4    5  0.1112901E-007  0.1137646E+04  0.7818608E-02  0.9220255E-01
         -2   -1    0    0    0  501 -0.00000000000E+00  0.00000000000E+00  0.88606520613E+03  0.88606520613E+03  0.25500000000E-02 0.  1.
          2   -1    0    0  501    0  0.00000000000E+00 -0.00000000000E+00 -0.13729666578E+04  0.13729666578E+04  0.25500000000E-02 0. -1.
    8880023    1    1    2    0    0 -0.50052200213E+03  0.78096525018E+03  0.11389923233E+03  0.11433338261E+04  0.65864270000E+03 0.  0.
    8880022    1    1    2    0    0  0.50052200213E+03 -0.78096525018E+03 -0.60080068396E+03  0.11156980378E+04  0.15294330000E+03 0.  0.
<mgrwt>
<rscale>  0 0.10846784E+04</rscale>
<asrwt>0</asrwt>
<pdfrwt beam="1">  1        2 0.21122564E+00 0.11376463E+04</pdfrwt>
<pdfrwt beam="2">  1       -2 0.13631772E+00 0.11376463E+04</pdfrwt>
<totfact> 0.56499364E+00</totfact>
</mgrwt>
</event>
<event>
 4    5  0.1112901E-007  0.9420335E+03  0.7818608E-02  0.9461670E-01
          2   -1    0    0  501    0  0.00000000000E+00  0.00000000000E+00  0.19751957001E+04  0.19751957001E+04  0.25500000000E-02 0. -1.
         -2   -1    0    0    0  501 -0.00000000000E+00 -0.00000000000E+00 -0.41772960378E+03  0.41772960379E+03  0.25500000000E-02 0.  1.
    8880023    1    1    2    0    0 -0.67016453758E+03  0.67055811847E+02  0.13952159836E+04  0.16834651278E+04  0.65864270000E+03 0.  0.
    8880022    1    1    2    0    0  0.67016453758E+03 -0.67055811847E+02  0.16225011267E+03  0.70946017605E+03  0.15294330000E+03 0.  0.
<mgrwt>
<rscale>  0 0.87169701E+03</rscale>
<asrwt>0</asrwt>
<pdfrwt beam="1">  1        2 0.30387625E+00 0.94203354E+03</pdfrwt>
<pdfrwt beam="2">  1       -2 0.64266094E-01 0.94203354E+03</pdfrwt>
<totfact> 0.15573964E+01</totfact>
</mgrwt>
</event>
<event>
 4    5  0.1112901E-007  0.7395919E+03  0.7818608E-02  0.9861137E-01
          2   -1    0    0  501    0  0.00000000000E+00  0.00000000000E+00  0.24129739538E+04  0.24129739538E+04  0.25500000000E-02 0. -1.
         -2   -1    0    0    0  501 -0.00000000000E+00 -0.00000000000E+00 -0.99571899357E+03  0.99571899357E+03  0.25500000000E-02 0.  1.
    8880023    1    1    2    0    0  0.98470919056E+02 -0.32169777137E+03 -0.84126065255E+03  0.11201409152E+04  0.65864270000E+03 0.  1.
    8880022    1    1    2    0    0 -0.98470919056E+02  0.32169777137E+03  0.22585156128E+04  0.22885520322E+04  0.15294330000E+03 0.  0.
<mgrwt>
<rscale>  0 0.62182268E+03</rscale>
<asrwt>0</asrwt>
<pdfrwt beam="1">  1        2 0.37122676E+00 0.73959190E+03</pdfrwt>
<pdfrwt beam="2">  1       -2 0.15318754E+00 0.73959190E+03</pdfrwt>
<totfact> 0.11649099E+00</totfact>
</mgrwt>
</event>
<event>
 4    5  0.1112901E-007  0.7404317E+03  0.7818608E-02  0.9858691E-01
         -2   -1    0    0    0  501 -0.00000000000E+00  0.00000000000E+00  0.24809589852E+03  0.24809589854E+03  0.25500000000E-02 0.  1.
          2   -1    0    0  501    0  0.00000000000E+00 -0.00000000000E+00 -0.23533795294E+04  0.23533795294E+04  0.25500000000E-02 0. -1.
    8880023    1    1    2    0    0 -0.14896637595E+03  0.30370690926E+03 -0.37152126718E+03  0.82841241307E+03  0.65864270000E+03 0.  1.
    8880022    1    1    2    0    0  0.14896637595E+03 -0.30370690926E+03 -0.17337623637E+04  0.17730630149E+04  0.15294330000E+03 0.  0.
<mgrwt>
<rscale>  0 0.62305729E+03</rscale>
<asrwt>0</asrwt>
<pdfrwt beam="1">  1        2 0.36205837E+00 0.74043168E+03</pdfrwt>
<pdfrwt beam="2">  1       -2 0.38168601E-01 0.74043168E+03</pdfrwt>
<totfact> 0.28540207E+01</totfact>
</mgrwt>
</event>
<event>
 4    5  0.1112901E-007  0.7774441E+03  0.7818608E-02  0.9761876E-01
          2   -1    0    0  501    0  0.00000000000E+00  0.00000000000E+00  0.89973545538E+03  0.89973545539E+03  0.25500000000E-02 0. -1.
         -2   -1    0    0    0  501 -0.00000000000E+00 -0.00000000000E+00 -0.60905167310E+03  0.60905167311E+03  0.25500000000E-02 0.  1.
    8880023    1    1    2    0    0 -0.42030116403E+02  0.41090451343E+03 -0.24513177068E+03  0.81517411705E+03  0.65864270000E+03 0.  0.
    8880022    1    1    2    0    0  0.42030116403E+02 -0.41090451343E+03  0.53581555296E+03  0.69361301145E+03  0.15294330000E+03 0.  0.
<mgrwt>
<rscale>  0 0.67449273E+03</rscale>
<asrwt>0</asrwt>
<pdfrwt beam="1">  1        2 0.13842084E+00 0.77744405E+03</pdfrwt>
<pdfrwt beam="2">  1       -2 0.93700258E-01 0.77744405E+03</pdfrwt>
<totfact> 0.28587630E+01</totfact>
</mgrwt>
</event>
<event>
 4    5  0.1112901E-007  0.8810555E+03  0.7818608E-02  0.9557155E-01
          2   -1    0    0  501    0  0.00000000000E+00  0.00000000000E+00  0.12128639658E+04  0.12128639658E+04  0.25500000000E-02 0. -1.
         -2   -1    0    0    0  501 -0.00000000000E+00 -0.00000000000E+00 -0.56870976394E+03  0.56870976395E+03  0.25500000000E-02 0.  1.
    8880023    1    1    2    0    0  0.37624944451E+03 -0.44820185910E+03 -0.22607158887E+02  0.88134547193E+03  0.65864270000E+03 0.  0.
    8880022    1    1    2    0    0 -0.37624944451E+03  0.44820185910E+03  0.66676136078E+03  0.90022825785E+03  0.15294330000E+03 0.  0.
<mgrwt>
<rscale>  0 0.80198062E+03</rscale>
<asrwt>0</asrwt>
<pdfrwt beam="1">  1        2 0.18659445E+00 0.88105548E+03</pdfrwt>
<pdfrwt beam="2">  1       -2 0.87493811E-01 0.88105548E+03</pdfrwt>
<totfact> 0.21105769E+01</totfact>
</mgrwt>
</event>
<event>
 4    5  0.1112901E-007  0.1716991E+04  0.7818608E-02  0.8769899E-01
         -2   -1    0    0    0  501 -0.00000000000E+00  0.00000000000E+00  0.26229712910E+04  0.26229712910E+04  0.25500000000E-02 0.  1.
          2   -1    0    0  501    0  0.00000000000E+00 -0.00000000000E+00 -0.13604786680E+04  0.13604786680E+04  0.25500000000E-02 0. -1.
    8880023    1    1    2    0    0  0.13006419866E+04 -0.90696154025E+03  0.16091470768E+04  0.23531709105E+04  0.65864270000E+03 0.  0.
    8880022    1    1    2    0    0 -0.13006419866E+04  0.90696154025E+03 -0.34665445377E+03  0.16302790485E+04  0.15294330000E+03 0.  0.
<mgrwt>
<rscale>  0 0.16851161E+04</rscale>
<asrwt>0</asrwt>
<pdfrwt beam="1">  1        2 0.20930441E+00 0.17169913E+04</pdfrwt>
<pdfrwt beam="2">  1       -2 0.40353404E+00 0.17169913E+04</pdfrwt>
<totfact> 0.98870706E-02</totfact>
</mgrwt>
</event>
<event>
 4    5  0.1112901E-007  0.8150282E+03  0.7818608E-02  0.9679197E-01
          2   -1    0    0  501    0  0.00000000000E+00  0.00000000000E+00  0.11569665065E+04  0.11569665065E+04  0.25500000000E-02 0. -1.
         -2   -1    0    0    0  501 -0.00000000000E+00 -0.00000000000E+00 -0.49261369512E+03  0.49261369513E+03  0.25500000000E-02 0.  1.
    8880023    1    1    2    0    0  0.23207792028E+03  0.42023873133E+03 -0.94691673709E+00  0.81502874508E+03  0.65864270000E+03 0.  1.
    8880022    1    1    2    0    0 -0.23207792028E+03 -0.42023873133E+03  0.66529972811E+03  0.83455145655E+03  0.15294330000E+03 0.  0.
<mgrwt>
<rscale>  0 0.72269015E+03</rscale>
<asrwt>0</asrwt>
<pdfrwt beam="1">  1        2 0.17799485E+00 0.81502820E+03</pdfrwt>
<pdfrwt beam="2">  1       -2 0.75786723E-01 0.81502820E+03</pdfrwt>
<totfact> 0.31733154E+01</totfact>
</mgrwt>
</event>
<event>
 4    5  0.1112901E-007  0.9117841E+03  0.7818608E-02  0.9507373E-01
         -2   -1    0    0    0  501 -0.00000000000E+00  0.00000000000E+00  0.53003297775E+03  0.53003297775E+03  0.25500000000E-02 0.  1.
          2   -1    0    0  501    0  0.00000000000E+00 -0.00000000000E+00 -0.22751191304E+04  0.22751191304E+04  0.25500000000E-02 0. -1.
    8880023    1    1    2    0    0 -0.62873339420E+03 -0.47268226624E+02  0.33016330122E+02  0.91238163646E+03  0.65864270000E+03 0.  0.
    8880022    1    1    2    0    0  0.62873339420E+03  0.47268226624E+02 -0.17781024827E+04  0.18927704717E+04  0.15294330000E+03 0. -1.
<mgrwt>
<rscale>  0 0.83742407E+03</rscale>
<asrwt>0</asrwt>
<pdfrwt beam="1">  1        2 0.35001832E+00 0.91178406E+03</pdfrwt>
<pdfrwt beam="2">  1       -2 0.81543536E-01 0.91178406E+03</pdfrwt>
<totfact> 0.63107553E+00</totfact>
</mgrwt>
</event>
<event>
 4    5  0.1112901E-007  0.1316604E+04  0.7818608E-02  0.9051353E-01
          2   -1    0    0  501    0  0.00000000000E+00  0.00000000000E+00  0.58586289793E+03  0.58586289794E+03  0.25500000000E-02 0. -1.
         -2   -1    0    0    0  501 -0.00000000000E+00 -0.00000000000E+00 -0.32148437808E+04  0.32148437808E+04  0.25500000000E-02 0.  1.
    8880023    1    1    2    0    0 -0.10729358422E+04 -0.38528425392E+03 -0.22178563591E+04  0.25792115683E+04  0.65864270000E+03 0.  0.
    8880022    1    1    2    0    0  0.10729358422E+04  0.38528425392E+03 -0.41112452375E+03  0.12214951105E+04  0.15294330000E+03 0.  0.
<mgrwt>
<rscale>  0 0.12728798E+04</rscale>
<asrwt>0</asrwt>
<pdfrwt beam="1">  1        2 0.90132755E-01 0.13166038E+04</pdfrwt>
<pdfrwt beam="2">  1       -2 0.49459134E+00 0.13166038E+04</pdfrwt>
<totfact> 0.88379205E-02</totfact>
</mgrwt>
</event>
<event>
 4    5  0.1112901E-007  0.1205998E+04  0.7818608E-02  0.9151313E-01
          2   -1    0    0  501    0  0.00000000000E+00  0.00000000000E+00  0.14917396904E+04  0.14917396904E+04  0.25500000000E-02 0. -1.
         -2   -1    0    0    0  501 -0.00000000000E+00 -0.00000000000E+00 -0.25018359765E+04  0.25018359765E+04  0.25500000000E-02 0.  1.
    8880023    1    1    2    0    0 -0.13631006751E+03 -0.10010201964E+04 -0.21485261068E+04  0.24638580531E+04  0.65864270000E+03 0.  0.
    8880022    1    1    2    0    0  0.13631006751E+03  0.10010201964E+04  0.11384298207E+04  0.15297176137E+04  0.15294330000E+03 0.  0.
<mgrwt>
<rscale>  0 0.11570398E+04</rscale>
<asrwt>0</asrwt>
<pdfrwt beam="1">  1        2 0.22949841E+00 0.12059984E+04</pdfrwt>
<pdfrwt beam="2">  1       -2 0.38489784E+00 0.12059984E+04</pdfrwt>
<totfact> 0.11725745E-01</totfact>
</mgrwt>
</event>
<event>
 4    5  0.1112901E-007  0.9749321E+03  0.7818608E-02  0.9415115E-01
          2   -1    0    0  501    0  0.00000000000E+00  0.00000000000E+00  0.14983078547E+04  0.14983078547E+04  0.25500000000E-02 0. -1.
         -2   -1    0    0    0  501 -0.00000000000E+00 -0.00000000000E+00 -0.84045290409E+03  0.84045290409E+03  0.25500000000E-02 0.  1.
    8880023    1    1    2    0    0  0.71745227124E+03 -0.44098355859E+02 -0.39740630986E+03  0.10528173668E+04  0.65864270000E+03 0.  0.
    8880022    1    1    2    0    0 -0.71745227124E+03  0.44098355859E+02  0.10552612604E+04  0.12859433919E+04  0.15294330000E+03 0.  0.
<mgrwt>
<rscale>  0 0.90842160E+03</rscale>
<asrwt>0</asrwt>
<pdfrwt beam="1">  1        2 0.23050890E+00 0.97493212E+03</pdfrwt>
<pdfrwt beam="2">  1       -2 0.12930045E+00 0.97493212E+03</pdfrwt>
<totfact> 0.55801279E+00</totfact>
</mgrwt>
</event>
<event>
 4    5  0.1112901E-007  0.8792788E+03  0.7818608E-02  0.9560150E-01
          2   -1    0    0  501    0  0.00000000000E+00  0.00000000000E+00  0.16797813258E+04  0.16797813258E+04  0.25500000000E-02 0. -1.
         -2   -1    0    0    0  501 -0.00000000000E+00 -0.00000000000E+00 -0.85356481190E+03  0.85356481190E+03  0.25500000000E-02 0.  1.
    8880023    1    1    2    0    0  0.49879752327E+03  0.30086876768E+03 -0.54584236378E+03  0.10349275709E+04  0.65864270000E+03 0.  1.
    8880022    1    1    2    0    0 -0.49879752327E+03 -0.30086876768E+03  0.13720588777E+04  0.14984185669E+04  0.15294330000E+03 0.  0.
<mgrwt>
<rscale>  0 0.79990845E+03</rscale>
<asrwt>0</asrwt>
<pdfrwt beam="1">  1        2 0.25842789E+00 0.87927879E+03</pdfrwt>
<pdfrwt beam="2">  1       -2 0.13131766E+00 0.87927879E+03</pdfrwt>
<totfact> 0.43031326E+00</totfact>
</mgrwt>
</event>
<event>
 4    5  0.1112901E-007  0.8286357E+03  0.7818608E-02  0.9651993E-01
         -2   -1    0    0    0  501 -0.00000000000E+00  0.00000000000E+00  0.16688832421E+04  0.16688832421E+04  0.25500000000E-02 0.  1.
          2   -1    0    0  501    0  0.00000000000E+00 -0.00000000000E+00 -0.94525506161E+03  0.94525506161E+03  0.25500000000E-02 0. -1.
    8880023    1    1    2    0    0  0.24450642563E+02  0.50222407519E+03  0.14781775619E+04  0.16945931566E+04  0.65864270000E+03 0.  1.
    8880022    1    1    2    0    0 -0.24450642563E+02 -0.50222407519E+03 -0.75454938140E+03  0.91954514713E+03  0.15294330000E+03 0.  0.
<mgrwt>
<rscale>  0 0.73948490E+03</rscale>
<asrwt>0</asrwt>
<pdfrwt beam="1">  1        2 0.14542386E+00 0.82863566E+03</pdfrwt>
<pdfrwt beam="2">  1       -2 0.25675126E+00 0.82863566E+03</pdfrwt>
<totfact> 0.16321540E+00</totfact>
</mgrwt>
</event>
<event>
 4    5  0.1112901E-007  0.1112710E+04  0.7818608E-02  0.9247036E-01
         -2   -1    0    0    0  501 -0.00000000000E+00  0.00000000000E+00  0.13486971870E+04  0.13486971870E+04  0.25500000000E-02 0.  1.
          2   -1    0    0  501    0  0.00000000000E+00 -0.00000000000E+00 -0.18499002310E+04  0.18499002310E+04  0.25500000000E-02 0. -1.
    8880023    1    1    2    0    0  0.61604035155E+03 -0.65177231411E+03  0.96513031730E+03  0.14729560753E+04  0.65864270000E+03 0.  1.
    8880022    1    1    2    0    0 -0.61604035155E+03  0.65177231411E+03 -0.14663333613E+04  0.17256413427E+04  0.15294330000E+03 0.  0.
<mgrwt>
<rscale>  0 0.10580857E+04</rscale>
<asrwt>0</asrwt>
<pdfrwt beam="1">  1        2 0.28460004E+00 0.11127098E+04</pdfrwt>
<pdfrwt beam="2">  1       -2 0.20749187E+00 0.11127098E+04</pdfrwt>
<totfact> 0.94447979E-01</totfact>
</mgrwt>
</event>
<event>
 4    5  0.1112901E-007  0.1123426E+04  0.7818608E-02  0.9235412E-01
          2   -1    0    0  501    0  0.00000000000E+00  0.00000000000E+00  0.24620681748E+04  0.24620681748E+04  0.25500000000E-02 0. -1.
         -2   -1    0    0    0  501 -0.00000000000E+00 -0.00000000000E+00 -0.67890723687E+03  0.67890723688E+03  0.25500000000E-02 0.  1.
    8880023    1    1    2    0    0 -0.78556727420E+03 -0.45952044114E+03 -0.10892393894E+02  0.11234784504E+04  0.65864270000E+03 0.  1.
    8880022    1    1    2    0    0  0.78556727420E+03  0.45952044114E+03  0.17940533318E+04  0.20174969612E+04  0.15294330000E+03 0.  0.
<mgrwt>
<rscale>  0 0.10695275E+04</rscale>
<asrwt>0</asrwt>
<pdfrwt beam="1">  1        2 0.37877972E+00 0.11234256E+04</pdfrwt>
<pdfrwt beam="2">  1       -2 0.10444727E+00 0.11234256E+04</pdfrwt>
<totfact> 0.27023720E+00</totfact>
</mgrwt>
</event>
<event>
 4    5  0.1112901E-007  0.1068411E+04  0.7818608E-02  0.9297070E-01
          2   -1    0    0  501    0  0.00000000000E+00  0.00000000000E+00  0.17572925706E+04  0.17572925706E+04  0.25500000000E-02 0. -1.
         -2   -1    0    0    0  501 -0.00000000000E+00 -0.00000000000E+00 -0.57960232173E+03  0.57960232173E+03  0.25500000000E-02 0.  1.
    8880023    1    1    2    0    0  0.57479682495E+03  0.61424760938E+03  0.10004278962E+04  0.14636795063E+04  0.65864270000E+03 0.  0.
    8880022    1    1    2    0    0 -0.57479682495E+03 -0.61424760938E+03  0.17726235269E+03  0.87321538598E+03  0.15294330000E+03 0.  0.
<mgrwt>
<rscale>  0 0.10105308E+04</rscale>
<asrwt>0</asrwt>
<pdfrwt beam="1">  1        2 0.27035270E+00 0.10684108E+04</pdfrwt>
<pdfrwt beam="2">  1       -2 0.89169588E-01 0.10684108E+04</pdfrwt>
<totfact> 0.97556482E+00</totfact>
</mgrwt>
</event>
<event>
 4    5  0.1112901E-007  0.8650051E+03  0.7818608E-02  0.9584722E-01
          2   -1    0    0  501    0  0.00000000000E+00  0.00000000000E+00  0.54172314331E+03  0.54172314332E+03  0.25500000000E-02 0. -1.
         -2   -1    0    0    0  501 -0.00000000000E+00 -0.00000000000E+00 -0.10674609602E+04  0.10674609602E+04  0.25500000000E-02 0.  1.
    8880023    1    1    2    0    0  0.29471512457E+03 -0.47703949770E+03 -0.55412523015E+03  0.10272724390E+04  0.65864270000E+03 0.  0.
    8880022    1    1    2    0    0 -0.29471512457E+03  0.47703949770E+03  0.28387413285E+02  0.58191166448E+03  0.15294330000E+03 0.  0.
<mgrwt>
<rscale>  0 0.78315719E+03</rscale>
<asrwt>0</asrwt>
<pdfrwt beam="1">  1        2 0.83342022E-01 0.86500514E+03</pdfrwt>
<pdfrwt beam="2">  1       -2 0.16422476E+00 0.86500514E+03</pdfrwt>
<totfact> 0.13205672E+01</totfact>
</mgrwt>
</event>
<event>
 4    5  0.1112901E-007  0.1081175E+04  0.7818608E-02  0.9282310E-01
         -2   -1    0    0    0  501 -0.00000000000E+00  0.00000000000E+00  0.82437567127E+03  0.82437567127E+03  0.25500000000E-02 0.  1.
          2   -1    0    0  501    0  0.00000000000E+00 -0.00000000000E+00 -0.19701235594E+04  0.19701235594E+04  0.25500000000E-02 0. -1.
    8880023    1    1    2    0    0 -0.73099196972E+03  0.44808509260E+03  0.28627129797E+03  0.11184323727E+04  0.65864270000E+03 0.  0.
    8880022    1    1    2    0    0  0.73099196972E+03 -0.44808509260E+03 -0.14320191861E+04  0.16760668580E+04  0.15294330000E+03 0.  0.
<mgrwt>
<rscale>  0 0.10242784E+04</rscale>
<asrwt>0</asrwt>
<pdfrwt beam="1">  1        2 0.30309593E+00 0.10811752E+04</pdfrwt>
<pdfrwt beam="2">  1       -2 0.12682703E+00 0.10811752E+04</pdfrwt>
<totfact> 0.31717712E+00</totfact>
</mgrwt>
</event>
<event>
 4    5  0.1112901E-007  0.7496219E+03  0.7818608E-02  0.9832757E-01
         -2   -1    0    0    0  501 -0.00000000000E+00  0.00000000000E+00  0.56668588505E+03  0.56668588506E+03  0.25500000000E-02 0.  1.
          2   -1    0    0  501    0  0.00000000000E+00 -0.00000000000E+00 -0.14090756497E+04  0.14090756497E+04  0.25500000000E-02 0. -1.
    8880023    1    1    2    0    0  0.31749100798E+03 -0.16529432820E+03  0.27036687265E+03  0.79688845341E+03  0.65864270000E+03 0.  1.
    8880022    1    1    2    0    0 -0.31749100798E+03  0.16529432820E+03 -0.11127566373E+04  0.11788730814E+04  0.15294330000E+03 0.  0.
<mgrwt>
<rscale>  0 0.63633884E+03</rscale>
<asrwt>0</asrwt>
<pdfrwt beam="1">  1        2 0.21678087E+00 0.74962188E+03</pdfrwt>
<pdfrwt beam="2">  1       -2 0.87182444E-01 0.74962188E+03</pdfrwt>
<totfact> 0.16626129E+01</totfact>
</mgrwt>
</event>
<event>
 4    5  0.1112901E-007  0.6657190E+03  0.7818608E-02  0.1018938E+00
          2   -1    0    0  501    0  0.00000000000E+00  0.00000000000E+00  0.16840908201E+04  0.16840908201E+04  0.25500000000E-02 0. -1.
         -2   -1    0    0    0  501 -0.00000000000E+00 -0.00000000000E+00 -0.20774183177E+03  0.20774183179E+03  0.25500000000E-02 0.  1.
    8880023    1    1    2    0    0  0.68906982173E+02 -0.67995267099E+02  0.35208452115E+03  0.75309046259E+03  0.65864270000E+03 0.  1.
    8880022    1    1    2    0    0 -0.68906982173E+02  0.67995267099E+02  0.11242644672E+04  0.11387421893E+04  0.15294330000E+03 0.  0.
<mgrwt>
<rscale>  0 0.48071918E+03</rscale>
<asrwt>0</asrwt>
<pdfrwt beam="1">  1        2 0.25909090E+00 0.66571896E+03</pdfrwt>
<pdfrwt beam="2">  1       -2 0.31960282E-01 0.66571896E+03</pdfrwt>
<totfact> 0.93864440E+01</totfact>
</mgrwt>
</event>
<event>
 4    5  0.1112901E-007  0.1032669E+04  0.7818608E-02  0.9340012E-01
          2   -1    0    0  501    0  0.00000000000E+00  0.00000000000E+00  0.10966304384E+04  0.10966304384E+04  0.25500000000E-02 0. -1.
         -2   -1    0    0    0  501 -0.00000000000E+00 -0.00000000000E+00 -0.10367556133E+04  0.10367556133E+04  0.25500000000E-02 0.  1.
    8880023    1    1    2    0    0 -0.52807463664E+03  0.59475337755E+03 -0.50142713529E+03  0.11479694161E+04  0.65864270000E+03 0.  1.
    8880022    1    1    2    0    0  0.52807463664E+03 -0.59475337755E+03  0.56130196038E+03  0.98541663559E+03  0.15294330000E+03 0.  0.
<mgrwt>
<rscale>  0 0.97181272E+03</rscale>
<asrwt>0</asrwt>
<pdfrwt beam="1">  1        2 0.16871237E+00 0.10326687E+04</pdfrwt>
<pdfrwt beam="2">  1       -2 0.15950086E+00 0.10326687E+04</pdfrwt>
<totfact> 0.54938910E+00</totfact>
</mgrwt>
</event>
<event>
 4    5  0.1112901E-007  0.9792082E+03  0.7818608E-02  0.9409280E-01
          2   -1    0    0  501    0  0.00000000000E+00  0.00000000000E+00  0.10010319894E+04  0.10010319895E+04  0.25500000000E-02 0. -1.
         -2   -1    0    0    0  501 -0.00000000000E+00 -0.00000000000E+00 -0.15267700268E+04  0.15267700268E+04  0.25500000000E-02 0.  1.
    8880023    1    1    2    0    0  0.33514004208E+03 -0.64243257789E+03 -0.11843596499E+04  0.15367356479E+04  0.65864270000E+03 0.  0.
    8880022    1    1    2    0    0 -0.33514004208E+03  0.64243257789E+03  0.65862161256E+03  0.99106636836E+03  0.15294330000E+03 0.  0.
<mgrwt>
<rscale>  0 0.91315907E+03</rscale>
<asrwt>0</asrwt>
<pdfrwt beam="1">  1        2 0.15400492E+00 0.97920819E+03</pdfrwt>
<pdfrwt beam="2">  1       -2 0.23488770E+00 0.97920819E+03</pdfrwt>
<totfact> 0.19996213E+00</totfact>
</mgrwt>
</event>
<event>
 4    5  0.1112901E-007  0.1340522E+04  0.7818608E-02  0.9031334E-01
          2   -1    0    0  501    0  0.00000000000E+00  0.00000000000E+00  0.17634569289E+04  0.17634569289E+04  0.25500000000E-02 0. -1.
         -2   -1    0    0    0  501 -0.00000000000E+00 -0.00000000000E+00 -0.12842349443E+04  0.12842349443E+04  0.25500000000E-02 0.  1.
    8880023    1    1    2    0    0  0.98284949016E+03  0.63023425353E+03 -0.58303740942E+03  0.14618246002E+04  0.65864270000E+03 0.  0.
    8880022    1    1    2    0    0 -0.98284949016E+03 -0.63023425353E+03  0.10622593939E+04  0.15858672730E+04  0.15294330000E+03 0.  0.
<mgrwt>
<rscale>  0 0.12977723E+04</rscale>
<asrwt>0</asrwt>
<pdfrwt beam="1">  1        2 0.27130106E+00 0.13405217E+04</pdfrwt>
<pdfrwt beam="2">  1       -2 0.19757461E+00 0.13405217E+04</pdfrwt>
<totfact> 0.11919779E+00</totfact>
</mgrwt>
</event>
<event>
 4    5  0.1112901E-007  0.9456632E+03  0.7818608E-02  0.9456381E-01
          2   -1    0    0  501    0  0.00000000000E+00  0.00000000000E+00  0.10693332815E+04  0.10693332815E+04  0.25500000000E-02 0. -1.
         -2   -1    0    0    0  501 -0.00000000000E+00 -0.00000000000E+00 -0.63967141275E+03  0.63967141276E+03  0.25500000000E-02 0.  1.
    8880023    1    1    2    0    0  0.42013117787E+03  0.53287749995E+03  0.35213284344E+03  0.10090968151E+04  0.65864270000E+03 0.  0.
    8880022    1    1    2    0    0 -0.42013117787E+03 -0.53287749995E+03  0.77529025345E+02  0.69990787919E+03  0.15294330000E+03 0.  0.
<mgrwt>
<rscale>  0 0.87577462E+03</rscale>
<asrwt>0</asrwt>
<pdfrwt beam="1">  1        2 0.16451281E+00 0.94566318E+03</pdfrwt>
<pdfrwt beam="2">  1       -2 0.98410986E-01 0.94566318E+03</pdfrwt>
<totfact> 0.19501215E+01</totfact>
</mgrwt>
</event>
<event>
 4    5  0.1112901E-007  0.9287692E+03  0.7818608E-02  0.9481342E-01
          2   -1    0    0  501    0  0.00000000000E+00  0.00000000000E+00  0.11601153435E+04  0.11601153435E+04  0.25500000000E-02 0. -1.
         -2   -1    0    0    0  501 -0.00000000000E+00 -0.00000000000E+00 -0.62358253300E+03  0.62358253301E+03  0.25500000000E-02 0.  1.
    8880023    1    1    2    0    0  0.56574870032E+03  0.32974289773E+03  0.60396100608E+03  0.11078723183E+04  0.65864270000E+03 0. -1.
    8880022    1    1    2    0    0 -0.56574870032E+03 -0.32974289773E+03 -0.67428195608E+02  0.67582555818E+03  0.15294330000E+03 0.  0.
<mgrwt>
<rscale>  0 0.85673478E+03</rscale>
<asrwt>0</asrwt>
<pdfrwt beam="1">  1        2 0.17847928E+00 0.92876917E+03</pdfrwt>
<pdfrwt beam="2">  1       -2 0.95935775E-01 0.92876917E+03</pdfrwt>
<totfact> 0.18243188E+01</totfact>
</mgrwt>
</event>
<event>
 4    5  0.1112901E-007  0.1165375E+04  0.7818608E-02  0.9191538E-01
          2   -1    0    0  501    0  0.00000000000E+00  0.00000000000E+00  0.51061338298E+03  0.51061338299E+03  0.25500000000E-02 0. -1.
         -2   -1    0    0    0  501 -0.00000000000E+00 -0.00000000000E+00 -0.23143498511E+04  0.23143498511E+04  0.25500000000E-02 0.  1.
    8880023    1    1    2    0    0 -0.38375774292E+03  0.88148676477E+03 -0.12326490234E+04  0.16963262489E+04  0.65864270000E+03 0.  0.
    8880022    1    1    2    0    0  0.38375774292E+03 -0.88148676477E+03 -0.57108744475E+03  0.11286369852E+04  0.15294330000E+03 0.  0.
<mgrwt>
<rscale>  0 0.11141202E+04</rscale>
<asrwt>0</asrwt>
<pdfrwt beam="1">  1        2 0.78555906E-01 0.11653751E+04</pdfrwt>
<pdfrwt beam="2">  1       -2 0.35605382E+00 0.11653751E+04</pdfrwt>
<totfact> 0.85165091E-01</totfact>
</mgrwt>
</event>
<event>
 4    5  0.1112901E-007  0.7462763E+03  0.7818608E-02  0.9842028E-01
         -2   -1    0    0    0  501 -0.00000000000E+00  0.00000000000E+00  0.84770816378E+03  0.84770816378E+03  0.25500000000E-02 0.  1.
          2   -1    0    0  501    0  0.00000000000E+00 -0.00000000000E+00 -0.82648878615E+03  0.82648878616E+03  0.25500000000E-02 0. -1.
    8880023    1    1    2    0    0 -0.73073357131E+02 -0.34318865449E+03  0.61547673896E+03  0.96733654462E+03  0.65864270000E+03 0.  1.
    8880022    1    1    2    0    0  0.73073357131E+02  0.34318865449E+03 -0.59425736133E+03  0.70686040532E+03  0.15294330000E+03 0.  0.
<mgrwt>
<rscale>  0 0.63155052E+03</rscale>
<asrwt>0</asrwt>
<pdfrwt beam="1">  1        2 0.12715212E+00 0.74627634E+03</pdfrwt>
<pdfrwt beam="2">  1       -2 0.13041664E+00 0.74627634E+03</pdfrwt>
<totfact> 0.14427813E+01</totfact>
</mgrwt>
</event>
<event>
 4    5  0.1112901E-007  0.7965406E+03  0.7818608E-02  0.9718327E-01
          2   -1    0    0  501    0  0.00000000000E+00  0.00000000000E+00  0.26333792910E+03  0.26333792911E+03  0.25500000000E-02 0. -1.
         -2   -1    0    0    0  501 -0.00000000000E+00 -0.00000000000E+00 -0.26324420579E+04  0.26324420579E+04  0.25500000000E-02 0.  1.
    8880023    1    1    2    0    0  0.39260130961E+03  0.21571015768E+03 -0.22786583601E+04  0.24138684282E+04  0.65864270000E+03 0.  1.
    8880022    1    1    2    0    0 -0.39260130961E+03 -0.21571015768E+03 -0.90445768736E+02  0.48191155883E+03  0.15294330000E+03 0.  0.
<mgrwt>
<rscale>  0 0.69936043E+03</rscale>
<asrwt>0</asrwt>
<pdfrwt beam="1">  1        2 0.40513529E-01 0.79654056E+03</pdfrwt>
<pdfrwt beam="2">  1       -2 0.40499107E+00 0.79654056E+03</pdfrwt>
<totfact> 0.92116549E-01</totfact>
</mgrwt>
</event>
<event>
 4    5  0.1112901E-007  0.6749450E+03  0.7818608E-02  0.1012341E+00
          2   -1    0    0  501    0  0.00000000000E+00  0.00000000000E+00  0.12105267543E+04  0.12105267543E+04  0.25500000000E-02 0. -1.
         -2   -1    0    0    0  501 -0.00000000000E+00 -0.00000000000E+00 -0.36854824424E+03  0.36854824425E+03  0.25500000000E-02 0.  1.
    8880023    1    1    2    0    0  0.14147643711E+03  0.41533125384E+02 -0.35858836766E+02  0.67589691906E+03  0.65864270000E+03 0.  1.
    8880022    1    1    2    0    0 -0.14147643711E+03 -0.41533125384E+02  0.87783734683E+03  0.90317807948E+03  0.15294330000E+03 0.  0.
<mgrwt>
<rscale>  0 0.50554772E+03</rscale>
<asrwt>0</asrwt>
<pdfrwt beam="1">  1        2 0.18623489E+00 0.67494503E+03</pdfrwt>
<pdfrwt beam="2">  1       -2 0.56699730E-01 0.67494503E+03</pdfrwt>
<totfact> 0.55829594E+01</totfact>
</mgrwt>
</event>
<event>
 4    5  0.1112901E-007  0.1012710E+04  0.7818608E-02  0.9365115E-01
         -2   -1    0    0    0  501 -0.00000000000E+00  0.00000000000E+00  0.55627624625E+03  0.55627624625E+03  0.25500000000E-02 0.  1.
          2   -1    0    0  501    0  0.00000000000E+00 -0.00000000000E+00 -0.27842294624E+04  0.27842294624E+04  0.25500000000E-02 0. -1.
    8880023    1    1    2    0    0  0.66474180817E+03 -0.38715535583E+03 -0.36988145385E+02  0.10133850553E+04  0.65864270000E+03 0.  0.
    8880022    1    1    2    0    0 -0.66474180817E+03  0.38715535583E+03 -0.21909650707E+04  0.23271206534E+04  0.15294330000E+03 0.  0.
<mgrwt>
<rscale>  0 0.95003040E+03</rscale>
<asrwt>0</asrwt>
<pdfrwt beam="1">  1        2 0.42834299E+00 0.10127098E+04</pdfrwt>
<pdfrwt beam="2">  1       -2 0.85580962E-01 0.10127098E+04</pdfrwt>
<totfact> 0.28429082E+00</totfact>
</mgrwt>
</event>
<event>
 4    5  0.1112901E-007  0.8725038E+03  0.7818608E-02  0.9571697E-01
          2   -1    0    0  501    0  0.00000000000E+00  0.00000000000E+00  0.10344502666E+04  0.10344502667E+04  0.25500000000E-02 0. -1.
         -2   -1    0    0    0  501 -0.00000000000E+00 -0.00000000000E+00 -0.13807101472E+04  0.13807101472E+04  0.25500000000E-02 0.  1.
    8880023    1    1    2    0    0  0.35347766110E+03 -0.45000696146E+03 -0.11332235882E+04  0.14301953116E+04  0.65864270000E+03 0.  1.
    8880022    1    1    2    0    0 -0.35347766110E+03  0.45000696146E+03  0.78696370770E+03  0.98496510218E+03  0.15294330000E+03 0.  0.
<mgrwt>
<rscale>  0 0.79198110E+03</rscale>
<asrwt>0</asrwt>
<pdfrwt beam="1">  1        2 0.15914619E+00 0.87250383E+03</pdfrwt>
<pdfrwt beam="2">  1       -2 0.21241695E+00 0.87250383E+03</pdfrwt>
<totfact> 0.26685493E+00</totfact>
</mgrwt>
</event>
<event>
 4    5  0.1112901E-007  0.9427591E+03  0.7818608E-02  0.9460610E-01
         -2   -1    0    0    0  501 -0.00000000000E+00  0.00000000000E+00  0.15129095699E+04  0.15129095699E+04  0.25500000000E-02 0.  1.
          2   -1    0    0  501    0  0.00000000000E+00 -0.00000000000E+00 -0.18067562147E+04  0.18067562147E+04  0.25500000000E-02 0. -1.
    8880023    1    1    2    0    0  0.54085734864E+03 -0.40306056453E+03  0.12862914310E+04  0.15947853592E+04  0.65864270000E+03 0.  1.
    8880022    1    1    2    0    0 -0.54085734864E+03  0.40306056453E+03 -0.15801380758E+04  0.17248804254E+04  0.15294330000E+03 0.  0.
<mgrwt>
<rscale>  0 0.87251265E+03</rscale>
<asrwt>0</asrwt>
<pdfrwt beam="1">  1        2 0.27796249E+00 0.94275909E+03</pdfrwt>
<pdfrwt beam="2">  1       -2 0.23275532E+00 0.94275909E+03</pdfrwt>
<totfact> 0.70875666E-01</totfact>
</mgrwt>
</event>
<event>
 4    5  0.1112901E-007  0.1681569E+04  0.7818608E-02  0.8791042E-01
         -2   -1    0    0    0  501 -0.00000000000E+00  0.00000000000E+00  0.23978113491E+04  0.23978113491E+04  0.25500000000E-02 0.  1.
          2   -1    0    0  501    0  0.00000000000E+00 -0.00000000000E+00 -0.18363336614E+04  0.18363336614E+04  0.25500000000E-02 0. -1.
    8880023    1    1    2    0    0  0.10622753777E+04 -0.11249156248E+04  0.16345090340E+04  0.23450573830E+04  0.65864270000E+03 0.  0.
    8880022    1    1    2    0    0 -0.10622753777E+04  0.11249156248E+04 -0.10730313464E+04  0.18890876275E+04  0.15294330000E+03 0.  0.
<mgrwt>
<rscale>  0 0.16489267E+04</rscale>
<asrwt>0</asrwt>
<pdfrwt beam="1">  1        2 0.28251287E+00 0.16815690E+04</pdfrwt>
<pdfrwt beam="2">  1       -2 0.36889405E+00 0.16815690E+04</pdfrwt>
<totfact> 0.89412559E-02</totfact>
</mgrwt>
</event>
<event>
 4    5  0.1112901E-007  0.7605228E+03  0.7818608E-02  0.9803756E-01
         -2   -1    0    0    0  501 -0.00000000000E+00  0.00000000000E+00  0.34452965391E+03  0.34452965392E+03  0.25500000000E-02 0.  1.
          2   -1    0    0  501    0  0.00000000000E+00 -0.00000000000E+00 -0.17330246739E+04  0.17330246739E+04  0.25500000000E-02 0. -1.
    8880023    1    1    2    0    0  0.13131948164E+03 -0.35684715749E+03 -0.15287556395E+03  0.77573567945E+03  0.65864270000E+03 0.  1.
    8880022    1    1    2    0    0 -0.13131948164E+03  0.35684715749E+03 -0.12356194561E+04  0.13018186484E+04  0.15294330000E+03 0.  0.
<mgrwt>
<rscale>  0 0.65161368E+03</rscale>
<asrwt>0</asrwt>
<pdfrwt beam="1">  1        2 0.26661917E+00 0.76052278E+03</pdfrwt>
<pdfrwt beam="2">  1       -2 0.53004563E-01 0.76052278E+03</pdfrwt>
<totfact> 0.32369683E+01</totfact>
</mgrwt>
</event>
<event>
 4    5  0.1112901E-007  0.7463065E+03  0.7818608E-02  0.9841943E-01
          2   -1    0    0  501    0  0.00000000000E+00  0.00000000000E+00  0.19751185929E+04  0.19751185929E+04  0.25500000000E-02 0. -1.
         -2   -1    0    0    0  501 -0.00000000000E+00 -0.00000000000E+00 -0.49553547517E+03  0.49553547517E+03  0.25500000000E-02 0.  1.
    8880023    1    1    2    0    0  0.33634158810E+03  0.10018765403E+03 -0.17982003309E+03  0.76766443220E+03  0.65864270000E+03 0.  1.
    8880022    1    1    2    0    0 -0.33634158810E+03 -0.10018765403E+03  0.16594031509E+04  0.17029896359E+04  0.15294330000E+03 0.  0.
<mgrwt>
<rscale>  0 0.63159396E+03</rscale>
<asrwt>0</asrwt>
<pdfrwt beam="1">  1        2 0.30386440E+00 0.74630653E+03</pdfrwt>
<pdfrwt beam="2">  1       -2 0.76236227E-01 0.74630653E+03</pdfrwt>
<totfact> 0.10995366E+01</totfact>
</mgrwt>
</event>
<event>
 4    5  0.1112901E-007  0.7675913E+03  0.7818608E-02  0.9785837E-01
         -2   -1    0    0    0  501 -0.00000000000E+00  0.00000000000E+00  0.48084731394E+03  0.48084731395E+03  0.25500000000E-02 0.  1.
          2   -1    0    0  501    0  0.00000000000E+00 -0.00000000000E+00 -0.10772317395E+04  0.10772317395E+04  0.25500000000E-02 0. -1.
    8880023    1    1    2    0    0  0.17246267835E+03 -0.35446129469E+03  0.67961035301E+02  0.77059398741E+03  0.65864270000E+03 0.  1.
    8880022    1    1    2    0    0 -0.17246267835E+03  0.35446129469E+03 -0.66434546088E+03  0.78748506606E+03  0.15294330000E+03 0.  0.
<mgrwt>
<rscale>  0 0.66128206E+03</rscale>
<asrwt>0</asrwt>
<pdfrwt beam="1">  1        2 0.16572796E+00 0.76759129E+03</pdfrwt>
<pdfrwt beam="2">  1       -2 0.73976510E-01 0.76759129E+03</pdfrwt>
<totfact> 0.37609411E+01</totfact>
</mgrwt>
</event>
<event>
 4    5  0.2659795E-007  0.1537898E+04  0.7818608E-02  0.8883329E-01
          2   -1    0    0  501    0  0.00000000000E+00  0.00000000000E+00  0.21687601403E+04  0.21687601403E+04  0.25500000000E-02 0. -1.
         -2   -1    0    0    0  501 -0.00000000000E+00 -0.00000000000E+00 -0.23184526302E+04  0.23184526302E+04  0.25500000000E-02 0.  1.
    8880023    1    1    2    0    0 -0.85817505630E+03 -0.10930939777E+04 -0.17715253154E+04  0.23459392620E+04  0.65864270000E+03 0.  0.
    8880022    1    1    2    0    0  0.85817505630E+03  0.10930939777E+04  0.16218328255E+04  0.21412735085E+04  0.15294330000E+03 0.  0.
<mgrwt>
<rscale>  0 0.15016920E+04</rscale>
<asrwt>0</asrwt>
<pdfrwt beam="1">  1        2 0.33365541E+00 0.15378976E+04</pdfrwt>
<pdfrwt beam="2">  1       -2 0.35668502E+00 0.15378976E+04</pdfrwt>
<totfact> 0.70920240E-02</totfact>
</mgrwt>
</event>
<event>
 4    5  0.1112901E-007  0.1532361E+04  0.7818608E-02  0.8887116E-01
         -2   -1    0    0    0  501 -0.00000000000E+00  0.00000000000E+00  0.12421876680E+04  0.12421876680E+04  0.25500000000E-02 0.  1.
          2   -1    0    0  501    0  0.00000000000E+00 -0.00000000000E+00 -0.29208722412E+04  0.29208722412E+04  0.25500000000E-02 0. -1.
    8880023    1    1    2    0    0 -0.13835846642E+04  0.37578700518E+01  0.47004698404E+03  0.16028334343E+04  0.65864270000E+03 0.  1.
    8880022    1    1    2    0    0  0.13835846642E+04 -0.37578700518E+01 -0.21487315573E+04  0.25602264749E+04  0.15294330000E+03 0.  0.
<mgrwt>
<rscale>  0 0.14960015E+04</rscale>
<asrwt>0</asrwt>
<pdfrwt beam="1">  1        2 0.44936496E+00 0.15323612E+04</pdfrwt>
<pdfrwt beam="2">  1       -2 0.19110580E+00 0.15323612E+04</pdfrwt>
<totfact> 0.27903980E-01</totfact>
</mgrwt>
</event>
<event>
 4    5  0.1112901E-007  0.6664185E+03  0.7818608E-02  0.1018372E+00
         -2   -1    0    0    0  501 -0.00000000000E+00  0.00000000000E+00  0.59676981989E+03  0.59676981990E+03  0.25500000000E-02 0.  1.
          2   -1    0    0  501    0  0.00000000000E+00 -0.00000000000E+00 -0.67463023684E+03  0.67463023685E+03  0.25500000000E-02 0. -1.
    8880023    1    1    2    0    0 -0.52054945719E+02 -0.87141878681E+02  0.38767843904E+03  0.77097873041E+03  0.65864270000E+03 0.  0.
    8880022    1    1    2    0    0  0.52054945719E+02  0.87141878681E+02 -0.46553885599E+03  0.50042132633E+03  0.15294330000E+03 0.  0.
<mgrwt>
<rscale>  0 0.48278759E+03</rscale>
<asrwt>0</asrwt>
<pdfrwt beam="1">  1        2 0.10378927E+00 0.66641851E+03</pdfrwt>
<pdfrwt beam="2">  1       -2 0.91810741E-01 0.66641851E+03</pdfrwt>
<totfact> 0.44176194E+01</totfact>
</mgrwt>
</event>
<event>
 4    5  0.1112901E-007  0.8403584E+03  0.7818608E-02  0.9629505E-01
         -2   -1    0    0    0  501 -0.00000000000E+00  0.00000000000E+00  0.91853915402E+03  0.91853915403E+03  0.25500000000E-02 0.  1.
          2   -1    0    0  501    0  0.00000000000E+00 -0.00000000000E+00 -0.13107302812E+04  0.13107302812E+04  0.25500000000E-02 0. -1.
    8880023    1    1    2    0    0  0.30510535657E+02  0.52101933043E+03  0.64418724805E+03  0.10588576166E+04  0.65864270000E+03 0.  1.
    8880022    1    1    2    0    0 -0.30510535657E+02 -0.52101933043E+03 -0.10363783752E+04  0.11704118186E+04  0.15294330000E+03 0.  0.
<mgrwt>
<rscale>  0 0.75373761E+03</rscale>
<asrwt>0</asrwt>
<pdfrwt beam="1">  1        2 0.20165081E+00 0.84035840E+03</pdfrwt>
<pdfrwt beam="2">  1       -2 0.14131372E+00 0.84035840E+03</pdfrwt>
<totfact> 0.57706294E+00</totfact>
</mgrwt>
</event>
<event>
 4    5  0.1112901E-007  0.6607954E+03  0.7818608E-02  0.1023356E+00
          2   -1    0    0  501    0  0.00000000000E+00  0.00000000000E+00  0.30301269431E+04  0.30301269431E+04  0.25500000000E-02 0. -1.
         -2   -1    0    0    0  501 -0.00000000000E+00 -0.00000000000E+00 -0.56313811882E+02  0.56313811939E+02  0.25500000000E-02 0.  1.
    8880023    1    1    2    0    0  0.45822008198E+02 -0.27215435702E+02  0.22693503805E+04  0.23635993087E+04  0.65864270000E+03 0.  0.
    8880022    1    1    2    0    0 -0.45822008198E+02  0.27215435702E+02  0.70446275074E+03  0.72284144635E+03  0.15294330000E+03 0.  1.
<mgrwt>
<rscale>  0 0.46494776E+03</rscale>
<asrwt>0</asrwt>
<pdfrwt beam="1">  1        2 0.46617340E+00 0.66079539E+03</pdfrwt>
<pdfrwt beam="2">  1       -2 0.86636629E-02 0.66079539E+03</pdfrwt>
<totfact> 0.15417599E+02</totfact>
</mgrwt>
</event>
<event>
 4    5  0.1112901E-007  0.1217756E+04  0.7818608E-02  0.9140052E-01
         -2   -1    0    0    0  501 -0.00000000000E+00  0.00000000000E+00  0.77986919200E+03  0.77986919201E+03  0.25500000000E-02 0.  1.
          2   -1    0    0  501    0  0.00000000000E+00 -0.00000000000E+00 -0.19159334947E+04  0.19159334947E+04  0.25500000000E-02 0. -1.
    8880023    1    1    2    0    0  0.57901753600E+03 -0.84490184092E+03 -0.85726755992E+02  0.12207701302E+04  0.65864270000E+03 0. -1.
    8880022    1    1    2    0    0 -0.57901753600E+03  0.84490184092E+03 -0.10503375467E+04  0.14750325565E+04  0.15294330000E+03 0.  1.
<mgrwt>
<rscale>  0 0.11694202E+04</rscale>
<asrwt>0</asrwt>
<pdfrwt beam="1">  1        2 0.29475900E+00 0.12177564E+04</pdfrwt>
<pdfrwt beam="2">  1       -2 0.11997988E+00 0.12177564E+04</pdfrwt>
<totfact> 0.38501280E+00</totfact>
</mgrwt>
</event>
<event>
 4    5  0.1112901E-007  0.7941043E+03  0.7818608E-02  0.9723692E-01
         -2   -1    0    0    0  501 -0.00000000000E+00  0.00000000000E+00  0.13803497851E+04  0.13803497851E+04  0.25500000000E-02 0.  1.
          2   -1    0    0  501    0  0.00000000000E+00 -0.00000000000E+00 -0.20297115116E+04  0.20297115116E+04  0.25500000000E-02 0. -1.
    8880023    1    1    2    0    0 -0.38444289479E+03 -0.22134850901E+03  0.12349343386E+04  0.14682181475E+04  0.65864270000E+03 0.  1.
    8880022    1    1    2    0    0  0.38444289479E+03  0.22134850901E+03 -0.18842960651E+04  0.19418431492E+04  0.15294330000E+03 0.  0.
<mgrwt>
<rscale>  0 0.69623554E+03</rscale>
<asrwt>0</asrwt>
<pdfrwt beam="1">  1        2 0.31226331E+00 0.79410434E+03</pdfrwt>
<pdfrwt beam="2">  1       -2 0.21236151E+00 0.79410434E+03</pdfrwt>
<totfact> 0.73760266E-01</totfact>
</mgrwt>
</event>
<event>
 4    5  0.1112901E-007  0.7280367E+03  0.7818608E-02  0.9896275E-01
         -2   -1    0    0    0  501 -0.00000000000E+00  0.00000000000E+00  0.50535782419E+03  0.50535782419E+03  0.25500000000E-02 0.  1.
          2   -1    0    0  501    0  0.00000000000E+00 -0.00000000000E+00 -0.82692428360E+03  0.82692428361E+03  0.25500000000E-02 0. -1.
    8880023    1    1    2    0    0 -0.28765425087E+03 -0.11611324402E+03  0.15410175224E+03  0.74416719209E+03  0.65864270000E+03 0.  1.
    8880022    1    1    2    0    0  0.28765425087E+03  0.11611324402E+03 -0.47566821166E+03  0.58811491571E+03  0.15294330000E+03 0. -1.
<mgrwt>
<rscale>  0 0.60442155E+03</rscale>
<asrwt>0</asrwt>
<pdfrwt beam="1">  1        2 0.12721912E+00 0.72803672E+03</pdfrwt>
<pdfrwt beam="2">  1       -2 0.77747357E-01 0.72803672E+03</pdfrwt>
<totfact> 0.49323288E+01</totfact>
</mgrwt>
</event>
<event>
 4    5  0.1112901E-007  0.1104410E+04  0.7818608E-02  0.9256162E-01
          2   -1    0    0  501    0  0.00000000000E+00  0.00000000000E+00  0.25128748553E+04  0.25128748553E+04  0.25500000000E-02 0. -1.
         -2   -1    0    0    0  501 -0.00000000000E+00 -0.00000000000E+00 -0.43999997024E+03  0.43999997025E+03  0.25500000000E-02 0.  1.
    8880023    1    1    2    0    0 -0.47447990762E+03  0.74885208304E+03  0.15781344853E+04  0.19261955469E+04  0.65864270000E+03 0.  1.
    8880022    1    1    2    0    0  0.47447990762E+03 -0.74885208304E+03  0.49474039978E+03  0.10266792786E+04  0.15294330000E+03 0.  0.
<mgrwt>
<rscale>  0 0.10492078E+04</rscale>
<asrwt>0</asrwt>
<pdfrwt beam="1">  1        2 0.38659612E+00 0.11044097E+04</pdfrwt>
<pdfrwt beam="2">  1       -2 0.67692305E-01 0.11044097E+04</pdfrwt>
<totfact> 0.68343596E+00</totfact>
</mgrwt>
</event>
<event>
 4    5  0.1112901E-007  0.1123798E+04  0.7818608E-02  0.9235011E-01
         -2   -1    0    0    0  501 -0.00000000000E+00  0.00000000000E+00  0.63303796339E+03  0.63303796339E+03  0.25500000000E-02 0.  1.
          2   -1    0    0  501    0  0.00000000000E+00 -0.00000000000E+00 -0.34491072646E+04  0.34491072646E+04  0.25500000000E-02 0. -1.
    8880023    1    1    2    0    0  0.89634725051E+03 -0.16023119838E+03 -0.29428920603E+04  0.31501644902E+04  0.65864270000E+03 0.  0.
    8880022    1    1    2    0    0 -0.89634725051E+03  0.16023119838E+03  0.12682275907E+03  0.93198073782E+03  0.15294330000E+03 0.  0.
<mgrwt>
<rscale>  0 0.10699250E+04</rscale>
<asrwt>0</asrwt>
<pdfrwt beam="1">  1        2 0.53063188E+00 0.11237983E+04</pdfrwt>
<pdfrwt beam="2">  1       -2 0.97390458E-01 0.11237983E+04</pdfrwt>
<totfact> 0.78426780E-01</totfact>
</mgrwt>
</event>
<event>
 4    5  0.2708501E-007  0.8779838E+03  0.7818608E-02  0.9562341E-01
         -2   -1    0    0    0  501 -0.00000000000E+00  0.00000000000E+00  0.24002432351E+04  0.24002432351E+04  0.25500000000E-02 0.  1.
          2   -1    0    0  501    0  0.00000000000E+00 -0.00000000000E+00 -0.18857022886E+04  0.18857022886E+04  0.25500000000E-02 0. -1.
    8880023    1    1    2    0    0  0.54437054437E+03  0.20175738792E+03  0.22682894596E+04  0.24322813595E+04  0.65864270000E+03 0.  0.
    8880022    1    1    2    0    0 -0.54437054437E+03 -0.20175738792E+03 -0.17537485131E+04  0.18536641641E+04  0.15294330000E+03 0. -1.
<mgrwt>
<rscale>  0 0.79839635E+03</rscale>
<asrwt>0</asrwt>
<pdfrwt beam="1">  1        2 0.29010805E+00 0.87798379E+03</pdfrwt>
<pdfrwt beam="2">  1       -2 0.36926819E+00 0.87798379E+03</pdfrwt>
<totfact> 0.94954229E-02</totfact>
</mgrwt>
</event>
<event>
 4    5  0.1112901E-007  0.1070862E+04  0.7818608E-02  0.9294213E-01
          2   -1    0    0  501    0  0.00000000000E+00  0.00000000000E+00  0.21303100152E+04  0.21303100152E+04  0.25500000000E-02 0. -1.
         -2   -1    0    0    0  501 -0.00000000000E+00 -0.00000000000E+00 -0.52657510260E+03  0.52657510261E+03  0.25500000000E-02 0.  1.
    8880023    1    1    2    0    0  0.83940187348E+03 -0.91319165734E+02  0.14213850408E+04  0.17796292691E+04  0.65864270000E+03 0. -1.
    8880022    1    1    2    0    0 -0.83940187348E+03  0.91319165734E+02  0.18234987183E+03  0.87725584866E+03  0.15294330000E+03 0.  1.
<mgrwt>
<rscale>  0 0.10131736E+04</rscale>
<asrwt>0</asrwt>
<pdfrwt beam="1">  1        2 0.32774001E+00 0.10708618E+04</pdfrwt>
<pdfrwt beam="2">  1       -2 0.81011552E-01 0.10708618E+04</pdfrwt>
<totfact> 0.75608801E+00</totfact>
</mgrwt>
</event>
<event>
 4    5  0.1112901E-007  0.7118627E+03  0.7818608E-02  0.9951148E-01
         -2   -1    0    0    0  501 -0.00000000000E+00  0.00000000000E+00  0.29607844001E+03  0.29607844002E+03  0.25500000000E-02 0.  1.
          2   -1    0    0  501    0  0.00000000000E+00 -0.00000000000E+00 -0.12832085611E+04  0.12832085611E+04  0.25500000000E-02 0. -1.
    8880023    1    1    2    0    0 -0.26671668264E+03  0.42432781645E+02 -0.20956786000E+03  0.74206955467E+03  0.65864270000E+03 0.  1.
    8880022    1    1    2    0    0  0.26671668264E+03 -0.42432781645E+02 -0.77756226110E+03  0.83721744646E+03  0.15294330000E+03 0.  0.
<mgrwt>
<rscale>  0 0.57845206E+03</rscale>
<asrwt>0</asrwt>
<pdfrwt beam="1">  1        2 0.19741670E+00 0.71186272E+03</pdfrwt>
<pdfrwt beam="2">  1       -2 0.45550530E-01 0.71186272E+03</pdfrwt>
<totfact> 0.78873802E+01</totfact>
</mgrwt>
</event>
<event>
 4    5  0.1112901E-007  0.2025390E+04  0.7818608E-02  0.8607146E-01
          2   -1    0    0  501    0  0.00000000000E+00  0.00000000000E+00  0.31447965963E+04  0.31447965963E+04  0.25500000000E-02 0. -1.
         -2   -1    0    0    0  501 -0.00000000000E+00 -0.00000000000E+00 -0.14670309286E+04  0.14670309286E+04  0.25500000000E-02 0.  1.
    8880023    1    1    2    0    0  0.19114895021E+04  0.12084683116E+03  0.17677269995E+04  0.26883201120E+04  0.65864270000E+03 0.  1.
    8880022    1    1    2    0    0 -0.19114895021E+04 -0.12084683116E+03 -0.89961331823E+02  0.19235074129E+04  0.15294330000E+03 0.  1.
<mgrwt>
<rscale>  0 0.19988774E+04</rscale>
<asrwt>0</asrwt>
<pdfrwt beam="1">  1        2 0.48381485E+00 0.20253904E+04</pdfrwt>
<pdfrwt beam="2">  1       -2 0.22569707E+00 0.20253904E+04</pdfrwt>
<totfact> 0.11381317E-01</totfact>
</mgrwt>
</event>
<event>
 4    5  0.1112901E-007  0.8580814E+03  0.7818608E-02  0.9596985E-01
         -2   -1    0    0    0  501 -0.00000000000E+00  0.00000000000E+00  0.27130886494E+03  0.27130886495E+03  0.25500000000E-02 0.  1.
          2   -1    0    0  501    0  0.00000000000E+00 -0.00000000000E+00 -0.28102638412E+04  0.28102638412E+04  0.25500000000E-02 0. -1.
    8880023    1    1    2    0    0 -0.48114484521E+02 -0.54788543701E+03 -0.56661029580E+03  0.10282756874E+04  0.65864270000E+03 0.  0.
    8880022    1    1    2    0    0  0.48114484521E+02  0.54788543701E+03 -0.19723446805E+04  0.20532970188E+04  0.15294330000E+03 0.  0.
<mgrwt>
<rscale>  0 0.77496025E+03</rscale>
<asrwt>0</asrwt>
<pdfrwt beam="1">  1        2 0.43234826E+00 0.85808138E+03</pdfrwt>
<pdfrwt beam="2">  1       -2 0.41739827E-01 0.85808138E+03</pdfrwt>
<totfact> 0.12873178E+01</totfact>
</mgrwt>
</event>
<event>
 4    5  0.1112901E-007  0.8304752E+03  0.7818608E-02  0.9648409E-01
          2   -1    0    0  501    0  0.00000000000E+00  0.00000000000E+00  0.26497217506E+04  0.26497217506E+04  0.25500000000E-02 0. -1.
         -2   -1    0    0    0  501 -0.00000000000E+00 -0.00000000000E+00 -0.31592077422E+03  0.31592077423E+03  0.25500000000E-02 0.  1.
    8880023    1    1    2    0    0 -0.38703721830E+03 -0.32570081284E+03  0.33051960507E+03  0.89383009764E+03  0.65864270000E+03 0.  1.
    8880022    1    1    2    0    0  0.38703721830E+03  0.32570081284E+03  0.20032813713E+04  0.20718124272E+04  0.15294330000E+03 0.  0.
<mgrwt>
<rscale>  0 0.74173389E+03</rscale>
<asrwt>0</asrwt>
<pdfrwt beam="1">  1        2 0.40764947E+00 0.83047519E+03</pdfrwt>
<pdfrwt beam="2">  1       -2 0.48603199E-01 0.83047519E+03</pdfrwt>
<totfact> 0.11846784E+01</totfact>
</mgrwt>
</event>
<event>
 4    5  0.1112901E-007  0.1957877E+04  0.7818608E-02  0.8639892E-01
         -2   -1    0    0    0  501 -0.00000000000E+00  0.00000000000E+00  0.28594917971E+04  0.28594917971E+04  0.25500000000E-02 0.  1.
          2   -1    0    0  501    0  0.00000000000E+00 -0.00000000000E+00 -0.17564185839E+04  0.17564185839E+04  0.25500000000E-02 0. -1.
    8880023    1    1    2    0    0 -0.83268976381E+02 -0.18418840769E+04  0.17797959637E+04  0.26459316986E+04  0.65864270000E+03 0.  0.
    8880022    1    1    2    0    0  0.83268976381E+02  0.18418840769E+04 -0.67672275047E+03  0.19699786824E+04  0.15294330000E+03 0.  0.
<mgrwt>
<rscale>  0 0.19303572E+04</rscale>
<asrwt>0</asrwt>
<pdfrwt beam="1">  1        2 0.27021825E+00 0.19578766E+04</pdfrwt>
<pdfrwt beam="2">  1       -2 0.43992181E+00 0.19578766E+04</pdfrwt>
<totfact> 0.32881290E-02</totfact>
</mgrwt>
</event>
<event>
 4    5  0.1112901E-007  0.1005454E+04  0.7818608E-02  0.9374457E-01
         -2   -1    0    0    0  501 -0.00000000000E+00  0.00000000000E+00  0.73464426175E+03  0.73464426176E+03  0.25500000000E-02 0.  1.
          2   -1    0    0  501    0  0.00000000000E+00 -0.00000000000E+00 -0.14793693429E+04  0.14793693429E+04  0.25500000000E-02 0. -1.
    8880023    1    1    2    0    0  0.25158080157E+03 -0.71682235032E+03  0.16507789817E+03  0.10189151586E+04  0.65864270000E+03 0.  1.
    8880022    1    1    2    0    0 -0.25158080157E+03  0.71682235032E+03 -0.90980297927E+03  0.11950984460E+04  0.15294330000E+03 0.  0.
<mgrwt>
<rscale>  0 0.94207922E+03</rscale>
<asrwt>0</asrwt>
<pdfrwt beam="1">  1        2 0.22759528E+00 0.10054538E+04</pdfrwt>
<pdfrwt beam="2">  1       -2 0.11302219E+00 0.10054538E+04</pdfrwt>
<totfact> 0.79716281E+00</totfact>
</mgrwt>
</event>
<event>
 4    5  0.1112901E-007  0.7026767E+03  0.7818608E-02  0.9986273E-01
          2   -1    0    0  501    0  0.00000000000E+00  0.00000000000E+00  0.16089541542E+04  0.16089541542E+04  0.25500000000E-02 0. -1.
         -2   -1    0    0    0  501 -0.00000000000E+00 -0.00000000000E+00 -0.50282273687E+03  0.50282273688E+03  0.25500000000E-02 0.  1.
    8880023    1    1    2    0    0  0.34753930791E+02  0.24235613803E+03 -0.23422462267E+03  0.74068597494E+03  0.65864270000E+03 0.  1.
    8880022    1    1    2    0    0 -0.34753930791E+02 -0.24235613803E+03  0.13403560400E+04  0.13710909162E+04  0.15294330000E+03 0.  0.
<mgrwt>
<rscale>  0 0.56256244E+03</rscale>
<asrwt>0</asrwt>
<pdfrwt beam="1">  1        2 0.24753141E+00 0.70267670E+03</pdfrwt>
<pdfrwt beam="2">  1       -2 0.77357345E-01 0.70267670E+03</pdfrwt>
<totfact> 0.16968348E+01</totfact>
</mgrwt>
</event>
<event>
 4    5  0.1112901E-007  0.8394712E+03  0.7818608E-02  0.9631178E-01
          2   -1    0    0  501    0  0.00000000000E+00  0.00000000000E+00  0.55033865865E+03  0.55033865866E+03  0.25500000000E-02 0. -1.
         -2   -1    0    0    0  501 -0.00000000000E+00 -0.00000000000E+00 -0.11804803693E+04  0.11804803693E+04  0.25500000000E-02 0.  1.
    8880023    1    1    2    0    0 -0.51006592021E+03 -0.10360685083E+03 -0.80276682976E+03  0.11615276199E+04  0.65864270000E+03 0.  1.
    8880022    1    1    2    0    0  0.51006592021E+03  0.10360685083E+03  0.17262511915E+03  0.56929140805E+03  0.15294330000E+03 0.  0.
<mgrwt>
<rscale>  0 0.75266527E+03</rscale>
<asrwt>0</asrwt>
<pdfrwt beam="1">  1        2 0.84667486E-01 0.83947116E+03</pdfrwt>
<pdfrwt beam="2">  1       -2 0.18161236E+00 0.83947116E+03</pdfrwt>
<totfact> 0.98008916E+00</totfact>
</mgrwt>
</event>
<event>
 4    5  0.1112901E-007  0.9150653E+03  0.7818608E-02  0.9502267E-01
         -2   -1    0    0    0  501 -0.00000000000E+00  0.00000000000E+00  0.93019863568E+03  0.93019863569E+03  0.25500000000E-02 0.  1.
          2   -1    0    0  501    0  0.00000000000E+00 -0.00000000000E+00 -0.13200275821E+04  0.13200275821E+04  0.25500000000E-02 0. -1.
    8880023    1    1    2    0    0  0.60498885105E+03 -0.19370818434E+03  0.57811720714E+03  0.10823881383E+04  0.65864270000E+03 0.  0.
    8880022    1    1    2    0    0 -0.60498885105E+03  0.19370818434E+03 -0.96794615352E+03  0.11678380794E+04  0.15294330000E+03 0.  0.
<mgrwt>
<rscale>  0 0.84116880E+03</rscale>
<asrwt>0</asrwt>
<pdfrwt beam="1">  1        2 0.20308117E+00 0.91506534E+03</pdfrwt>
<pdfrwt beam="2">  1       -2 0.14310748E+00 0.91506534E+03</pdfrwt>
<totfact> 0.54654691E+00</totfact>
</mgrwt>
</event>
<event>
 4    5  0.1112901E-007  0.7363385E+03  0.7818608E-02  0.9870744E-01
         -2   -1    0    0    0  501 -0.00000000000E+00  0.00000000000E+00  0.36062857596E+03  0.36062857597E+03  0.25500000000E-02 0.  1.
          2   -1    0    0  501    0  0.00000000000E+00 -0.00000000000E+00 -0.18749459739E+04  0.18749459739E+04  0.25500000000E-02 0. -1.
    8880023    1    1    2    0    0 -0.27837597316E+03  0.17575839043E+03 -0.62414367344E+02  0.73897899412E+03  0.65864270000E+03 0.  1.
    8880022    1    1    2    0    0  0.27837597316E+03 -0.17575839043E+03 -0.14519030306E+04  0.14965955558E+04  0.15294330000E+03 0.  0.
<mgrwt>
<rscale>  0 0.61700348E+03</rscale>
<asrwt>0</asrwt>
<pdfrwt beam="1">  1        2 0.28845322E+00 0.73633851E+03</pdfrwt>
<pdfrwt beam="2">  1       -2 0.55481320E-01 0.73633851E+03</pdfrwt>
<totfact> 0.24717616E+01</totfact>
</mgrwt>
</event>
<event>
 4    5  0.1112901E-007  0.7733411E+03  0.7818608E-02  0.9771718E-01
          2   -1    0    0  501    0  0.00000000000E+00  0.00000000000E+00  0.14170401894E+04  0.14170401894E+04  0.25500000000E-02 0. -1.
         -2   -1    0    0    0  501 -0.00000000000E+00 -0.00000000000E+00 -0.28961671647E+03  0.28961671648E+03  0.25500000000E-02 0.  1.
    8880023    1    1    2    0    0  0.38212835235E+03  0.13499712951E+03  0.42777786755E+03  0.88377056574E+03  0.65864270000E+03 0.  1.
    8880022    1    1    2    0    0 -0.38212835235E+03 -0.13499712951E+03  0.69964560540E+03  0.82288634016E+03  0.15294330000E+03 0. -1.
<mgrwt>
<rscale>  0 0.66902665E+03</rscale>
<asrwt>0</asrwt>
<pdfrwt beam="1">  1        2 0.21800619E+00 0.77334113E+03</pdfrwt>
<pdfrwt beam="2">  1       -2 0.44556417E-01 0.77334113E+03</pdfrwt>
<totfact> 0.68739298E+01</totfact>
</mgrwt>
</event>
<event>
 4    5  0.1112901E-007  0.7318027E+03  0.7818608E-02  0.9884503E-01
         -2   -1    0    0    0  501 -0.00000000000E+00  0.00000000000E+00  0.68134852413E+03  0.68134852414E+03  0.25500000000E-02 0.  1.
          2   -1    0    0  501    0  0.00000000000E+00 -0.00000000000E+00 -0.18463915543E+04  0.18463915543E+04  0.25500000000E-02 0. -1.
    8880023    1    1    2    0    0  0.43784103278E+01 -0.31891347148E+03  0.46018306580E+03  0.86446725391E+03  0.65864270000E+03 0.  0.
    8880022    1    1    2    0    0 -0.43784103278E+01  0.31891347148E+03 -0.16252260960E+04  0.16632728245E+04  0.15294330000E+03 0.  0.
<mgrwt>
<rscale>  0 0.61018269E+03</rscale>
<asrwt>0</asrwt>
<pdfrwt beam="1">  1        2 0.28406024E+00 0.73180269E+03</pdfrwt>
<pdfrwt beam="2">  1       -2 0.10482285E+00 0.73180269E+03</pdfrwt>
<totfact> 0.62134161E+00</totfact>
</mgrwt>
</event>
<event>
 4    5  0.1297980E-007  0.1305171E+04  0.7818608E-02  0.9061108E-01
         -2   -1    0    0    0  501 -0.00000000000E+00  0.00000000000E+00  0.40072771139E+04  0.40072771139E+04  0.25500000000E-02 0.  1.
          2   -1    0    0  501    0  0.00000000000E+00 -0.00000000000E+00 -0.14873851197E+04  0.14873851197E+04  0.25500000000E-02 0. -1.
    8880023    1    1    2    0    0 -0.11210703911E+04  0.11340778604E+03  0.36591891014E+04  0.38849884470E+04  0.65864270000E+03 0.  1.
    8880022    1    1    2    0    0  0.11210703911E+04 -0.11340778604E+03 -0.11392971071E+04  0.16096737865E+04  0.15294330000E+03 0.  0.
<mgrwt>
<rscale>  0 0.12609633E+04</rscale>
<asrwt>0</asrwt>
<pdfrwt beam="1">  1        2 0.22882848E+00 0.13051706E+04</pdfrwt>
<pdfrwt beam="2">  1       -2 0.61650416E+00 0.13051706E+04</pdfrwt>
<totfact> 0.52942364E-03</totfact>
</mgrwt>
</event>
<event>
 4    5  0.1112901E-007  0.9673257E+03  0.7818608E-02  0.9425612E-01
         -2   -1    0    0    0  501 -0.00000000000E+00  0.00000000000E+00  0.63662973265E+03  0.63662973266E+03  0.25500000000E-02 0.  1.
          2   -1    0    0  501    0  0.00000000000E+00 -0.00000000000E+00 -0.20705999102E+04  0.20705999102E+04  0.25500000000E-02 0. -1.
    8880023    1    1    2    0    0  0.61125548476E+03 -0.35815578065E+03  0.13714317479E+03  0.97699912360E+03  0.65864270000E+03 0.  1.
    8880022    1    1    2    0    0 -0.61125548476E+03  0.35815578065E+03 -0.15711133523E+04  0.17302305192E+04  0.15294330000E+03 0.  0.
<mgrwt>
<rscale>  0 0.89997516E+03</rscale>
<asrwt>0</asrwt>
<pdfrwt beam="1">  1        2 0.31855383E+00 0.96732571E+03</pdfrwt>
<pdfrwt beam="2">  1       -2 0.97943036E-01 0.96732571E+03</pdfrwt>
<totfact> 0.53246810E+00</totfact>
</mgrwt>
</event>
<event>
 4    5  0.1170287E-007  0.8772512E+03  0.7818608E-02  0.9563584E-01
          2   -1    0    0  501    0  0.00000000000E+00  0.00000000000E+00  0.28969304440E+04  0.28969304440E+04  0.25500000000E-02 0. -1.
         -2   -1    0    0    0  501 -0.00000000000E+00 -0.00000000000E+00 -0.14497948987E+04  0.14497948987E+04  0.25500000000E-02 0.  1.
    8880023    1    1    2    0    0 -0.29813438275E+03 -0.49686553394E+03 -0.12815290991E+04  0.15530249538E+04  0.65864270000E+03 0.  1.
    8880022    1    1    2    0    0  0.29813438275E+03  0.49686553394E+03  0.27286646443E+04  0.27937003890E+04  0.15294330000E+03 0.  0.
<mgrwt>
<rscale>  0 0.79754029E+03</rscale>
<asrwt>0</asrwt>
<pdfrwt beam="1">  1        2 0.44568161E+00 0.87725120E+03</pdfrwt>
<pdfrwt beam="2">  1       -2 0.22304537E+00 0.87725120E+03</pdfrwt>
<totfact> 0.19904166E-01</totfact>
</mgrwt>
</event>
<event>
 4    5  0.1112901E-007  0.8083486E+03  0.7818608E-02  0.9693027E-01
          2   -1    0    0  501    0  0.00000000000E+00  0.00000000000E+00  0.41681645470E+03  0.41681645471E+03  0.25500000000E-02 0. -1.
         -2   -1    0    0    0  501 -0.00000000000E+00 -0.00000000000E+00 -0.11537619478E+04  0.11537619478E+04  0.25500000000E-02 0.  1.
    8880023    1    1    2    0    0 -0.17170705852E+03  0.43604351273E+03 -0.71164409154E+03  0.10769701845E+04  0.65864270000E+03 0.  1.
    8880022    1    1    2    0    0  0.17170705852E+03 -0.43604351273E+03 -0.25301401516E+02  0.49360821800E+03  0.15294330000E+03 0.  0.
<mgrwt>
<rscale>  0 0.71433478E+03</rscale>
<asrwt>0</asrwt>
<pdfrwt beam="1">  1        2 0.64125609E-01 0.80834860E+03</pdfrwt>
<pdfrwt beam="2">  1       -2 0.17750184E+00 0.80834860E+03</pdfrwt>
<totfact> 0.14470694E+01</totfact>
</mgrwt>
</event>
<event>
 4    5  0.1112901E-007  0.1096733E+04  0.7818608E-02  0.9264702E-01
          2   -1    0    0  501    0  0.00000000000E+00  0.00000000000E+00  0.61983353650E+03  0.61983353650E+03  0.25500000000E-02 0. -1.
         -2   -1    0    0    0  501 -0.00000000000E+00 -0.00000000000E+00 -0.23964472668E+04  0.23964472668E+04  0.25500000000E-02 0.  1.
    8880023    1    1    2    0    0 -0.11132186187E+03  0.86983907945E+03 -0.18201633306E+04  0.21250452554E+04  0.65864270000E+03 0.  1.
    8880022    1    1    2    0    0  0.11132186187E+03 -0.86983907945E+03  0.43549600361E+02  0.89123554787E+03  0.15294330000E+03 0.  0.
<mgrwt>
<rscale>  0 0.10409838E+04</rscale>
<asrwt>0</asrwt>
<pdfrwt beam="1">  1        2 0.95359007E-01 0.10967328E+04</pdfrwt>
<pdfrwt beam="2">  1       -2 0.36868419E+00 0.10967328E+04</pdfrwt>
<totfact> 0.56570516E-01</totfact>
</mgrwt>
</event>
<event>
 4    5  0.1112901E-007  0.9069374E+03  0.7818608E-02  0.9514985E-01
         -2   -1    0    0    0  501 -0.00000000000E+00  0.00000000000E+00  0.72085443399E+03  0.72085443399E+03  0.25500000000E-02 0.  1.
          2   -1    0    0  501    0  0.00000000000E+00 -0.00000000000E+00 -0.15926870119E+04  0.15926870119E+04  0.25500000000E-02 0. -1.
    8880023    1    1    2    0    0  0.23643376691E+03  0.57690932710E+03  0.31841364675E+03  0.96120900668E+03  0.65864270000E+03 0.  1.
    8880022    1    1    2    0    0 -0.23643376691E+03 -0.57690932710E+03 -0.11902462247E+04  0.13523324392E+04  0.15294330000E+03 0.  0.
<mgrwt>
<rscale>  0 0.83187975E+03</rscale>
<asrwt>0</asrwt>
<pdfrwt beam="1">  1        2 0.24502877E+00 0.90693743E+03</pdfrwt>
<pdfrwt beam="2">  1       -2 0.11090068E+00 0.90693743E+03</pdfrwt>
<totfact> 0.72939901E+00</totfact>
</mgrwt>
</event>
<event>
 4    5  0.1112901E-007  0.1306812E+04  0.7818608E-02  0.9059699E-01
         -2   -1    0    0    0  501 -0.00000000000E+00  0.00000000000E+00  0.11421166778E+04  0.11421166778E+04  0.25500000000E-02 0.  1.
          2   -1    0    0  501    0  0.00000000000E+00 -0.00000000000E+00 -0.29286912325E+04  0.29286912325E+04  0.25500000000E-02 0. -1.
    8880023    1    1    2    0    0 -0.81466979537E+03 -0.78119194902E+03  0.59118765804E+03  0.14343154430E+04  0.65864270000E+03 0.  1.
    8880022    1    1    2    0    0  0.81466979537E+03  0.78119194902E+03 -0.23777622127E+04  0.26364924673E+04  0.15294330000E+03 0.  0.
<mgrwt>
<rscale>  0 0.12626750E+04</rscale>
<asrwt>0</asrwt>
<pdfrwt beam="1">  1        2 0.45056788E+00 0.13068121E+04</pdfrwt>
<pdfrwt beam="2">  1       -2 0.17571026E+00 0.13068121E+04</pdfrwt>
<totfact> 0.36241591E-01</totfact>
</mgrwt>
</event>
<event>
 4    5  0.1112901E-007  0.1274947E+04  0.7818608E-02  0.9087502E-01
          2   -1    0    0  501    0  0.00000000000E+00  0.00000000000E+00  0.12439959746E+04  0.12439959746E+04  0.25500000000E-02 0. -1.
         -2   -1    0    0    0  501 -0.00000000000E+00 -0.00000000000E+00 -0.29075630519E+04  0.29075630519E+04  0.25500000000E-02 0.  1.
    8880023    1    1    2    0    0 -0.88053594901E+03 -0.64524075213E+03 -0.24741362196E+04  0.27833144675E+04  0.65864270000E+03 0.  0.
    8880022    1    1    2    0    0  0.88053594901E+03  0.64524075213E+03  0.81056914225E+03  0.13682445590E+04  0.15294330000E+03 0.  0.
<mgrwt>
<rscale>  0 0.12294030E+04</rscale>
<asrwt>0</asrwt>
<pdfrwt beam="1">  1        2 0.19138400E+00 0.12749468E+04</pdfrwt>
<pdfrwt beam="2">  1       -2 0.44731739E+00 0.12749468E+04</pdfrwt>
<totfact> 0.62703539E-02</totfact>
</mgrwt>
</event>
<event>
 4    5  0.1112901E-007  0.1027302E+04  0.7818608E-02  0.9346678E-01
         -2   -1    0    0    0  501 -0.00000000000E+00  0.00000000000E+00  0.11634379807E+04  0.11634379807E+04  0.25500000000E-02 0.  1.
          2   -1    0    0  501    0  0.00000000000E+00 -0.00000000000E+00 -0.13241218344E+04  0.13241218344E+04  0.25500000000E-02 0. -1.
    8880023    1    1    2    0    0  0.71683232432E+03  0.32816353255E+03  0.75105550456E+03  0.12725700226E+04  0.65864270000E+03 0.  0.
    8880022    1    1    2    0    0 -0.71683232432E+03 -0.32816353255E+03 -0.91173935830E+03  0.12149897925E+04  0.15294330000E+03 0.  0.
<mgrwt>
<rscale>  0 0.96596838E+03</rscale>
<asrwt>0</asrwt>
<pdfrwt beam="1">  1        2 0.20371105E+00 0.10273023E+04</pdfrwt>
<pdfrwt beam="2">  1       -2 0.17899046E+00 0.10273023E+04</pdfrwt>
<totfact> 0.29157922E+00</totfact>
</mgrwt>
</event>
<event>
 4    5  0.1112901E-007  0.1165329E+04  0.7818608E-02  0.9191584E-01
         -2   -1    0    0    0  501 -0.00000000000E+00  0.00000000000E+00  0.19770782526E+04  0.19770782526E+04  0.25500000000E-02 0.  1.
          2   -1    0    0  501    0  0.00000000000E+00 -0.00000000000E+00 -0.11725380984E+04  0.11725380985E+04  0.25500000000E-02 0. -1.
    8880023    1    1    2    0    0  0.84890892648E+03 -0.45114868335E+03  0.15388361464E+04  0.19302871268E+04  0.65864270000E+03 0.  0.
    8880022    1    1    2    0    0 -0.84890892648E+03  0.45114868335E+03 -0.73429599227E+03  0.12193292243E+04  0.15294330000E+03 0.  0.
<mgrwt>
<rscale>  0 0.11140714E+04</rscale>
<asrwt>0</asrwt>
<pdfrwt beam="1">  1        2 0.18039048E+00 0.11653290E+04</pdfrwt>
<pdfrwt beam="2">  1       -2 0.30416588E+00 0.11653290E+04</pdfrwt>
<totfact> 0.57872715E-01</totfact>
</mgrwt>
</event>
<event>
 4    5  0.1112901E-007  0.7191770E+03  0.7818608E-02  0.9925381E-01
         -2   -1    0    0    0  501 -0.00000000000E+00  0.00000000000E+00  0.11562527872E+04  0.11562527872E+04  0.25500000000E-02 0.  1.
          2   -1    0    0  501    0  0.00000000000E+00 -0.00000000000E+00 -0.58947256598E+03  0.58947256598E+03  0.25500000000E-02 0. -1.
    8880023    1    1    2    0    0 -0.26298399559E+03 -0.11935117515E+03  0.98208936519E+03  0.12172571677E+04  0.65864270000E+03 0.  1.
    8880022    1    1    2    0    0  0.26298399559E+03  0.11935117515E+03 -0.41530914397E+03  0.52846818544E+03  0.15294330000E+03 0.  0.
<mgrwt>
<rscale>  0 0.59046842E+03</rscale>
<asrwt>0</asrwt>
<pdfrwt beam="1">  1        2 0.90688087E-01 0.71917695E+03</pdfrwt>
<pdfrwt beam="2">  1       -2 0.17788504E+00 0.71917695E+03</pdfrwt>
<totfact> 0.96979916E+00</totfact>
</mgrwt>
</event>
<event>
 4    5  0.1112901E-007  0.1446201E+04  0.7818608E-02  0.8948590E-01
         -2   -1    0    0    0  501 -0.00000000000E+00  0.00000000000E+00  0.67814866757E+03  0.67814866758E+03  0.25500000000E-02 0.  1.
          2   -1    0    0  501    0  0.00000000000E+00 -0.00000000000E+00 -0.30081797584E+04  0.30081797584E+04  0.25500000000E-02 0. -1.
    8880023    1    1    2    0    0 -0.10443657773E+04 -0.75298497048E+03 -0.17379703657E+04  0.22609815216E+04  0.65864270000E+03 0.  1.
    8880022    1    1    2    0    0  0.10443657773E+04  0.75298497048E+03 -0.59206072515E+03  0.14253469044E+04  0.15294330000E+03 0.  0.
<mgrwt>
<rscale>  0 0.14072456E+04</rscale>
<asrwt>0</asrwt>
<pdfrwt beam="1">  1        2 0.46279688E+00 0.14462007E+04</pdfrwt>
<pdfrwt beam="2">  1       -2 0.10433057E+00 0.14462007E+04</pdfrwt>
<totfact> 0.12347195E+00</totfact>
</mgrwt>
</event>
<event>
 4    5  0.1112901E-007  0.1103680E+04  0.7818608E-02  0.9256970E-01
         -2   -1    0    0    0  501 -0.00000000000E+00  0.00000000000E+00  0.60068418227E+03  0.60068418227E+03  0.25500000000E-02 0.  1.
          2   -1    0    0  501    0  0.00000000000E+00 -0.00000000000E+00 -0.25763306019E+04  0.25763306019E+04  0.25500000000E-02 0. -1.
    8880023    1    1    2    0    0 -0.57650025807E+03 -0.67227009374E+03 -0.11370195631E+03  0.11095215039E+04  0.65864270000E+03 0.  0.
    8880022    1    1    2    0    0  0.57650025807E+03  0.67227009374E+03 -0.18619444634E+04  0.20674932803E+04  0.15294330000E+03 0.  0.
<mgrwt>
<rscale>  0 0.10484267E+04</rscale>
<asrwt>0</asrwt>
<pdfrwt beam="1">  1        2 0.39635855E+00 0.11036801E+04</pdfrwt>
<pdfrwt beam="2">  1       -2 0.92412953E-01 0.11036801E+04</pdfrwt>
<totfact> 0.31135094E+00</totfact>
</mgrwt>
</event>
<event>
 4    5  0.1112901E-007  0.9675835E+03  0.7818608E-02  0.9425254E-01
          2   -1    0    0  501    0  0.00000000000E+00  0.00000000000E+00  0.26609517200E+04  0.26609517200E+04  0.25500000000E-02 0. -1.
         -2   -1    0    0    0  501 -0.00000000000E+00 -0.00000000000E+00 -0.31224062306E+03  0.31224062307E+03  0.25500000000E-02 0.  1.
    8880023    1    1    2    0    0  0.48679890900E+03  0.51520336385E+03  0.77230860628E+03  0.12380139230E+04  0.65864270000E+03 0. -1.
    8880022    1    1    2    0    0 -0.48679890900E+03 -0.51520336385E+03  0.15764024907E+04  0.17351784201E+04  0.15294330000E+03 0.  0.
<mgrwt>
<rscale>  0 0.90026187E+03</rscale>
<asrwt>0</asrwt>
<pdfrwt beam="1">  1        2 0.40937718E+00 0.96758353E+03</pdfrwt>
<pdfrwt beam="2">  1       -2 0.48037020E-01 0.96758353E+03</pdfrwt>
<totfact> 0.11726360E+01</totfact>
</mgrwt>
</event>
<event>
 4    5  0.1112901E-007  0.6654775E+03  0.7818608E-02  0.1019136E+00
         -2   -1    0    0    0  501 -0.00000000000E+00  0.00000000000E+00  0.88158998640E+03  0.88158998640E+03  0.25500000000E-02 0.  1.
          2   -1    0    0  501    0  0.00000000000E+00 -0.00000000000E+00 -0.26667148842E+03  0.26667148843E+03  0.25500000000E-02 0. -1.
    8880023    1    1    2    0    0  0.93991719828E+02  0.14685090716E+02  0.68496317199E+03  0.95500515629E+03  0.65864270000E+03 0.  1.
    8880022    1    1    2    0    0 -0.93991719828E+02 -0.14685090716E+02 -0.70044674009E+02  0.19325631854E+03  0.15294330000E+03 0.  0.
<mgrwt>
<rscale>  0 0.47999649E+03</rscale>
<asrwt>0</asrwt>
<pdfrwt beam="1">  1        2 0.41026383E-01 0.66547750E+03</pdfrwt>
<pdfrwt beam="2">  1       -2 0.13562923E+00 0.66547750E+03</pdfrwt>
<totfact> 0.49577572E+01</totfact>
</mgrwt>
</event>
<event>
 4    5  0.1112901E-007  0.1933682E+04  0.7818608E-02  0.8651984E-01
         -2   -1    0    0    0  501 -0.00000000000E+00  0.00000000000E+00  0.10025613406E+04  0.10025613406E+04  0.25500000000E-02 0.  1.
          2   -1    0    0  501    0  0.00000000000E+00 -0.00000000000E+00 -0.37542173535E+04  0.37542173535E+04  0.25500000000E-02 0. -1.
    8880023    1    1    2    0    0  0.99931911620E+03 -0.15187750312E+04 -0.20047296526E+04  0.27853307663E+04  0.65864270000E+03 0.  0.
    8880022    1    1    2    0    0 -0.99931911620E+03  0.15187750312E+04 -0.74692636029E+03  0.19714479279E+04  0.15294330000E+03 0.  0.
<mgrwt>
<rscale>  0 0.19057822E+04</rscale>
<asrwt>0</asrwt>
<pdfrwt beam="1">  1        2 0.57757189E+00 0.19336821E+04</pdfrwt>
<pdfrwt beam="2">  1       -2 0.15424021E+00 0.19336821E+04</pdfrwt>
<totfact> 0.13448248E-01</totfact>
</mgrwt>
</event>
<event>
 4    5  0.1112901E-007  0.7074152E+03  0.7818608E-02  0.9967727E-01
          2   -1    0    0  501    0  0.00000000000E+00  0.00000000000E+00  0.10344401407E+04  0.10344401407E+04  0.25500000000E-02 0. -1.
         -2   -1    0    0    0  501 -0.00000000000E+00 -0.00000000000E+00 -0.34476973406E+03  0.34476973407E+03  0.25500000000E-02 0.  1.
    8880023    1    1    2    0    0  0.25003852963E+03 -0.64084499192E+02  0.95825735360E+02  0.71387594662E+03  0.65864270000E+03 0.  1.
    8880022    1    1    2    0    0 -0.25003852963E+03  0.64084499192E+02  0.59384467126E+03  0.66533392814E+03  0.15294330000E+03 0.  0.
<mgrwt>
<rscale>  0 0.57088261E+03</rscale>
<asrwt>0</asrwt>
<pdfrwt beam="1">  1        2 0.15914464E+00 0.70741522E+03</pdfrwt>
<pdfrwt beam="2">  1       -2 0.53041497E-01 0.70741522E+03</pdfrwt>
<totfact> 0.81706166E+01</totfact>
</mgrwt>
</event>
<event>
 4    5  0.1112901E-007  0.6664524E+03  0.7818608E-02  0.1018345E+00
         -2   -1    0    0    0  501 -0.00000000000E+00  0.00000000000E+00  0.55440823672E+03  0.55440823673E+03  0.25500000000E-02 0.  1.
          2   -1    0    0  501    0  0.00000000000E+00 -0.00000000000E+00 -0.83271851840E+03  0.83271851841E+03  0.25500000000E-02 0. -1.
    8880023    1    1    2    0    0 -0.76358190047E+02 -0.67215997993E+02  0.33570272679E+03  0.74622723792E+03  0.65864270000E+03 0.  0.
    8880022    1    1    2    0    0  0.76358190047E+02  0.67215997993E+02 -0.61401300848E+03  0.64089951722E+03  0.15294330000E+03 0. -1.
<mgrwt>
<rscale>  0 0.48288679E+03</rscale>
<asrwt>0</asrwt>
<pdfrwt beam="1">  1        2 0.12811054E+00 0.66645238E+03</pdfrwt>
<pdfrwt beam="2">  1       -2 0.85293575E-01 0.66645238E+03</pdfrwt>
<totfact> 0.39871327E+01</totfact>
</mgrwt>
</event>
<event>
 4    5  0.1112901E-007  0.8313500E+03  0.7818608E-02  0.9646711E-01
          2   -1    0    0  501    0  0.00000000000E+00  0.00000000000E+00  0.23327996647E+04  0.23327996647E+04  0.25500000000E-02 0. -1.
         -2   -1    0    0    0  501 -0.00000000000E+00 -0.00000000000E+00 -0.29847912813E+03  0.29847912815E+03  0.25500000000E-02 0.  1.
    8880023    1    1    2    0    0 -0.17277227815E+03 -0.47695119025E+03  0.41837265045E+03  0.93068715414E+03  0.65864270000E+03 0.  1.
    8880022    1    1    2    0    0  0.17277227815E+03  0.47695119025E+03  0.16159478861E+04  0.17005916387E+04  0.15294330000E+03 0.  0.
<mgrwt>
<rscale>  0 0.74280181E+03</rscale>
<asrwt>0</asrwt>
<pdfrwt beam="1">  1        2 0.35889227E+00 0.83135005E+03</pdfrwt>
<pdfrwt beam="2">  1       -2 0.45919864E-01 0.83135005E+03</pdfrwt>
<totfact> 0.20112046E+01</totfact>
</mgrwt>
</event>
<event>
 4    5  0.1112901E-007  0.2236370E+04  0.7818608E-02  0.8513218E-01
         -2   -1    0    0    0  501 -0.00000000000E+00  0.00000000000E+00  0.46076540771E+04  0.46076540771E+04  0.25500000000E-02 0.  1.
          2   -1    0    0  501    0  0.00000000000E+00 -0.00000000000E+00 -0.16027056000E+04  0.16027056000E+04  0.25500000000E-02 0. -1.
    8880023    1    1    2    0    0 -0.17604581431E+04  0.12117451933E+04  0.33622989447E+04  0.40381188302E+04  0.65864270000E+03 0.  0.
    8880022    1    1    2    0    0  0.17604581431E+04 -0.12117451933E+04 -0.35735046753E+03  0.21722408469E+04  0.15294330000E+03 0.  0.
<mgrwt>
<rscale>  0 0.22125612E+04</rscale>
<asrwt>0</asrwt>
<pdfrwt beam="1">  1        2 0.24657009E+00 0.22363697E+04</pdfrwt>
<pdfrwt beam="2">  1       -2 0.70886985E+00 0.22363697E+04</pdfrwt>
<totfact> 0.20032948E-03</totfact>
</mgrwt>
</event>
<event>
 4    5  0.1112901E-007  0.6877683E+03  0.7818608E-02  0.1005232E+00
         -2   -1    0    0    0  501 -0.00000000000E+00  0.00000000000E+00  0.11528174061E+04  0.11528174061E+04  0.25500000000E-02 0.  1.
          2   -1    0    0  501    0  0.00000000000E+00 -0.00000000000E+00 -0.14994449023E+04  0.14994449023E+04  0.25500000000E-02 0. -1.
    8880023    1    1    2    0    0  0.74721604356E+02 -0.18338958452E+03  0.10380166352E+04  0.12451922740E+04  0.65864270000E+03 0.  1.
    8880022    1    1    2    0    0 -0.74721604356E+02  0.18338958452E+03 -0.13846441315E+04  0.14070700344E+04  0.15294330000E+03 0.  0.
<mgrwt>
<rscale>  0 0.53414509E+03</rscale>
<asrwt>0</asrwt>
<pdfrwt beam="1">  1        2 0.23068383E+00 0.68776832E+03</pdfrwt>
<pdfrwt beam="2">  1       -2 0.17735652E+00 0.68776832E+03</pdfrwt>
<totfact> 0.25003581E+00</totfact>
</mgrwt>
</event>
<event>
 4    5  0.1112901E-007  0.9059938E+03  0.7818608E-02  0.9516477E-01
          2   -1    0    0  501    0  0.00000000000E+00  0.00000000000E+00  0.14306275500E+04  0.14306275500E+04  0.25500000000E-02 0. -1.
         -2   -1    0    0    0  501 -0.00000000000E+00 -0.00000000000E+00 -0.50848796207E+03  0.50848796208E+03  0.25500000000E-02 0.  1.
    8880023    1    1    2    0    0  0.20586414604E+03 -0.58705587142E+03  0.12208945395E+03  0.91418306910E+03  0.65864270000E+03 0.  0.
    8880022    1    1    2    0    0 -0.20586414604E+03  0.58705587142E+03  0.80005013403E+03  0.10249324430E+04  0.15294330000E+03 0.  0.
<mgrwt>
<rscale>  0 0.83079847E+03</rscale>
<asrwt>0</asrwt>
<pdfrwt beam="1">  1        2 0.22009654E+00 0.90599385E+03</pdfrwt>
<pdfrwt beam="2">  1       -2 0.78228919E-01 0.90599385E+03</pdfrwt>
<totfact> 0.20316268E+01</totfact>
</mgrwt>
</event>
<event>
 4    5  0.1112901E-007  0.2137903E+04  0.7818608E-02  0.8555579E-01
          2   -1    0    0  501    0  0.00000000000E+00  0.00000000000E+00  0.17853763685E+04  0.17853763685E+04  0.25500000000E-02 0. -1.
         -2   -1    0    0    0  501 -0.00000000000E+00 -0.00000000000E+00 -0.26331722011E+04  0.26331722011E+04  0.25500000000E-02 0.  1.
    8880023    1    1    2    0    0  0.16403081943E+04  0.12025839910E+04  0.15925446267E+03  0.21438263497E+04  0.65864270000E+03 0.  0.
    8880022    1    1    2    0    0 -0.16403081943E+04 -0.12025839910E+04 -0.10070502953E+04  0.22747222199E+04  0.15294330000E+03 0.  0.
<mgrwt>
<rscale>  0 0.21129072E+04</rscale>
<asrwt>0</asrwt>
<pdfrwt beam="1">  1        2 0.27467329E+00 0.21379030E+04</pdfrwt>
<pdfrwt beam="2">  1       -2 0.40510341E+00 0.21379030E+04</pdfrwt>
<totfact> 0.53004813E-02</totfact>
</mgrwt>
</event>
<event>
 4    5  0.1112901E-007  0.7915578E+03  0.7818608E-02  0.9729356E-01
          2   -1    0    0  501    0  0.00000000000E+00  0.00000000000E+00  0.12275127965E+04  0.12275127965E+04  0.25500000000E-02 0. -1.
         -2   -1    0    0    0  501 -0.00000000000E+00 -0.00000000000E+00 -0.39843220139E+03  0.39843220140E+03  0.25500000000E-02 0.  1.
    8880023    1    1    2    0    0  0.17313020326E+03 -0.40345929694E+03  0.15421570688E+03  0.80644042687E+03  0.65864270000E+03 0.  1.
    8880022    1    1    2    0    0 -0.17313020326E+03  0.40345929694E+03  0.67486488824E+03  0.81950457105E+03  0.15294330000E+03 0. -1.
<mgrwt>
<rscale>  0 0.69295516E+03</rscale>
<asrwt>0</asrwt>
<pdfrwt beam="1">  1        2 0.18884812E+00 0.79155775E+03</pdfrwt>
<pdfrwt beam="2">  1       -2 0.61297263E-01 0.79155775E+03</pdfrwt>
<totfact> 0.45786010E+01</totfact>
</mgrwt>
</event>
<event>
 4    5  0.1112901E-007  0.8087170E+03  0.7818608E-02  0.9692256E-01
          2   -1    0    0  501    0  0.00000000000E+00  0.00000000000E+00  0.36709827845E+04  0.36709827845E+04  0.25500000000E-02 0. -1.
         -2   -1    0    0    0  501 -0.00000000000E+00 -0.00000000000E+00 -0.32280145298E+03  0.32280145299E+03  0.25500000000E-02 0.  1.
    8880023    1    1    2    0    0 -0.30658946139E+03 -0.35526877690E+03  0.23563217474E+03  0.84234537436E+03  0.65864270000E+03 0.  1.
    8880022    1    1    2    0    0  0.30658946139E+03  0.35526877690E+03  0.31125491568E+04  0.31514388632E+04  0.15294330000E+03 0.  0.
<mgrwt>
<rscale>  0 0.71479768E+03</rscale>
<asrwt>0</asrwt>
<pdfrwt beam="1">  1        2 0.56476658E+00 0.80871701E+03</pdfrwt>
<pdfrwt beam="2">  1       -2 0.49661762E-01 0.80871701E+03</pdfrwt>
<totfact> 0.25412378E+00</totfact>
</mgrwt>
</event>
<event>
 4    5  0.1112901E-007  0.1271138E+04  0.7818608E-02  0.9090894E-01
          2   -1    0    0  501    0  0.00000000000E+00  0.00000000000E+00  0.13095084615E+04  0.13095084615E+04  0.25500000000E-02 0. -1.
         -2   -1    0    0    0  501 -0.00000000000E+00 -0.00000000000E+00 -0.21178985408E+04  0.21178985408E+04  0.25500000000E-02 0.  1.
    8880023    1    1    2    0    0  0.76098350857E+03 -0.77645668955E+03 -0.16221132597E+04  0.20608353948E+04  0.65864270000E+03 0.  0.
    8880022    1    1    2    0    0 -0.76098350857E+03  0.77645668955E+03  0.81372318040E+03  0.13665716075E+04  0.15294330000E+03 0.  0.
<mgrwt>
<rscale>  0 0.12254190E+04</rscale>
<asrwt>0</asrwt>
<pdfrwt beam="1">  1        2 0.20146284E+00 0.12711377E+04</pdfrwt>
<pdfrwt beam="2">  1       -2 0.32583054E+00 0.12711377E+04</pdfrwt>
<totfact> 0.34858156E-01</totfact>
</mgrwt>
</event>
<event>
 4    5  0.1112901E-007  0.8696547E+03  0.7818608E-02  0.9576615E-01
          2   -1    0    0  501    0  0.00000000000E+00  0.00000000000E+00  0.64666765883E+03  0.64666765884E+03  0.25500000000E-02 0. -1.
         -2   -1    0    0    0  501 -0.00000000000E+00 -0.00000000000E+00 -0.92275905322E+03  0.92275905322E+03  0.25500000000E-02 0.  1.
    8880023    1    1    2    0    0  0.11859601106E+02  0.56775742188E+03 -0.41730470958E+03  0.96459450918E+03  0.65864270000E+03 0.  0.
    8880022    1    1    2    0    0 -0.11859601106E+02 -0.56775742188E+03  0.14121331519E+03  0.60483220288E+03  0.15294330000E+03 0.  0.
<mgrwt>
<rscale>  0 0.78863483E+03</rscale>
<asrwt>0</asrwt>
<pdfrwt beam="1">  1        2 0.99487332E-01 0.86965473E+03</pdfrwt>
<pdfrwt beam="2">  1       -2 0.14196293E+00 0.86965473E+03</pdfrwt>
<totfact> 0.15725816E+01</totfact>
</mgrwt>
</event>
<event>
 4    5  0.1112901E-007  0.1643389E+04  0.7818608E-02  0.8814504E-01
         -2   -1    0    0    0  501 -0.00000000000E+00  0.00000000000E+00  0.14216303108E+04  0.14216303108E+04  0.25500000000E-02 0.  1.
          2   -1    0    0  501    0  0.00000000000E+00 -0.00000000000E+00 -0.27879616905E+04  0.27879616905E+04  0.25500000000E-02 0. -1.
    8880023    1    1    2    0    0  0.11505459906E+03  0.15012263144E+04  0.58123955609E+03  0.17431487704E+04  0.65864270000E+03 0.  0.
    8880022    1    1    2    0    0 -0.11505459906E+03 -0.15012263144E+04 -0.19475709359E+04  0.24664432309E+04  0.15294330000E+03 0.  0.
<mgrwt>
<rscale>  0 0.16098748E+04</rscale>
<asrwt>0</asrwt>
<pdfrwt beam="1">  1        2 0.42891718E+00 0.16433892E+04</pdfrwt>
<pdfrwt beam="2">  1       -2 0.21871236E+00 0.16433892E+04</pdfrwt>
<totfact> 0.21892994E-01</totfact>
</mgrwt>
</event>
<event>
 4    5  0.1112901E-007  0.8881161E+03  0.7818608E-02  0.9545385E-01
          2   -1    0    0  501    0  0.00000000000E+00  0.00000000000E+00  0.30245655972E+04  0.30245655972E+04  0.25500000000E-02 0. -1.
         -2   -1    0    0    0  501 -0.00000000000E+00 -0.00000000000E+00 -0.34740868882E+03  0.34740868883E+03  0.25500000000E-02 0.  1.
    8880023    1    1    2    0    0  0.38809416444E+03 -0.45202097322E+03  0.33304770370E+03  0.94850989447E+03  0.65864270000E+03 0.  1.
    8880022    1    1    2    0    0 -0.38809416444E+03  0.45202097322E+03  0.23441092047E+04  0.24234643916E+04  0.15294330000E+03 0.  0.
<mgrwt>
<rscale>  0 0.81018912E+03</rscale>
<asrwt>0</asrwt>
<pdfrwt beam="1">  1        2 0.46531777E+00 0.88811612E+03</pdfrwt>
<pdfrwt beam="2">  1       -2 0.53447492E-01 0.88811612E+03</pdfrwt>
<totfact> 0.57707920E+00</totfact>
</mgrwt>
</event>
<event>
 4    5  0.1112901E-007  0.1229601E+04  0.7818608E-02  0.9128872E-01
          2   -1    0    0  501    0  0.00000000000E+00  0.00000000000E+00  0.37212661273E+04  0.37212661273E+04  0.25500000000E-02 0. -1.
         -2   -1    0    0    0  501 -0.00000000000E+00 -0.00000000000E+00 -0.38146485197E+03  0.38146485197E+03  0.25500000000E-02 0.  1.
    8880023    1    1    2    0    0 -0.67102984846E+03  0.79235514263E+03  0.11935740326E+04  0.17136326640E+04  0.65864270000E+03 0.  0.
    8880022    1    1    2    0    0  0.67102984846E+03 -0.79235514263E+03  0.21462272428E+04  0.23890983153E+04  0.15294330000E+03 0.  0.
<mgrwt>
<rscale>  0 0.11818738E+04</rscale>
<asrwt>0</asrwt>
<pdfrwt beam="1">  1        2 0.57250251E+00 0.12296007E+04</pdfrwt>
<pdfrwt beam="2">  1       -2 0.58686897E-01 0.12296007E+04</pdfrwt>
<totfact> 0.15397096E+00</totfact>
</mgrwt>
</event>
<event>
 4    5  0.1112901E-007  0.6673623E+03  0.7818608E-02  0.1017629E+00
          2   -1    0    0  501    0  0.00000000000E+00  0.00000000000E+00  0.59877583273E+03  0.59877583273E+03  0.25500000000E-02 0. -1.
         -2   -1    0    0    0  501 -0.00000000000E+00 -0.00000000000E+00 -0.11071627902E+04  0.11071627902E+04  0.25500000000E-02 0.  1.
    8880023    1    1    2    0    0  0.68385388461E+02 -0.82980321250E+02 -0.98737526527E+03  0.11917560219E+04  0.65864270000E+03 0.  1.
    8880022    1    1    2    0    0 -0.68385388461E+02  0.82980321250E+02  0.47898830784E+03  0.51418260096E+03  0.15294330000E+03 0.  0.
<mgrwt>
<rscale>  0 0.48552132E+03</rscale>
<asrwt>0</asrwt>
<pdfrwt beam="1">  1        2 0.92119359E-01 0.66736235E+03</pdfrwt>
<pdfrwt beam="2">  1       -2 0.17033274E+00 0.66736235E+03</pdfrwt>
<totfact> 0.10809934E+01</totfact>
</mgrwt>
</event>
<event>
 4    5  0.1112901E-007  0.7799205E+03  0.7818608E-02  0.9756024E-01
          2   -1    0    0  501    0  0.00000000000E+00  0.00000000000E+00  0.15932614943E+04  0.15932614943E+04  0.25500000000E-02 0. -1.
         -2   -1    0    0    0  501 -0.00000000000E+00 -0.00000000000E+00 -0.65275752875E+03  0.65275752875E+03  0.25500000000E-02 0.  1.
    8880023    1    1    2    0    0  0.39868030092E+03 -0.12457845749E+03 -0.36916193015E+03  0.86287688076E+03  0.65864270000E+03 0.  0.
    8880022    1    1    2    0    0 -0.39868030092E+03  0.12457845749E+03  0.13096658957E+04  0.13831421423E+04  0.15294330000E+03 0.  0.
<mgrwt>
<rscale>  0 0.67776915E+03</rscale>
<asrwt>0</asrwt>
<pdfrwt beam="1">  1        2 0.24511715E+00 0.77992050E+03</pdfrwt>
<pdfrwt beam="2">  1       -2 0.10042424E+00 0.77992050E+03</pdfrwt>
<totfact> 0.94041415E+00</totfact>
</mgrwt>
</event>
<event>
 4    5  0.1112901E-007  0.1260741E+04  0.7818608E-02  0.9100226E-01
          2   -1    0    0  501    0  0.00000000000E+00  0.00000000000E+00  0.31585399081E+04  0.31585399081E+04  0.25500000000E-02 0. -1.
         -2   -1    0    0    0  501 -0.00000000000E+00 -0.00000000000E+00 -0.76319170752E+03  0.76319170753E+03  0.25500000000E-02 0.  1.
    8880023    1    1    2    0    0  0.95288233590E+03  0.49766795731E+03 -0.33529725568E+02  0.12611869768E+04  0.65864270000E+03 0.  0.
    8880022    1    1    2    0    0 -0.95288233590E+03 -0.49766795731E+03  0.24288779261E+04  0.26605446388E+04  0.15294330000E+03 0.  0.
<mgrwt>
<rscale>  0 0.12145376E+04</rscale>
<asrwt>0</asrwt>
<pdfrwt beam="1">  1        2 0.48592921E+00 0.12607412E+04</pdfrwt>
<pdfrwt beam="2">  1       -2 0.11741411E+00 0.12607412E+04</pdfrwt>
<totfact> 0.75990086E-01</totfact>
</mgrwt>
</event>
<event>
 4    5  0.1112901E-007  0.7321958E+03  0.7818608E-02  0.9883292E-01
         -2   -1    0    0    0  501 -0.00000000000E+00  0.00000000000E+00  0.85733658459E+03  0.85733658459E+03  0.25500000000E-02 0.  1.
          2   -1    0    0  501    0  0.00000000000E+00 -0.00000000000E+00 -0.19447114537E+04  0.19447114537E+04  0.25500000000E-02 0. -1.
    8880023    1    1    2    0    0  0.99716258867E+02 -0.30390319595E+03  0.68012631199E+03  0.99934102854E+03  0.65864270000E+03 0.  1.
    8880022    1    1    2    0    0 -0.99716258867E+02  0.30390319595E+03 -0.17675011811E+04  0.18027070098E+04  0.15294330000E+03 0.  0.
<mgrwt>
<rscale>  0 0.61077878E+03</rscale>
<asrwt>0</asrwt>
<pdfrwt beam="1">  1        2 0.29918638E+00 0.73219580E+03</pdfrwt>
<pdfrwt beam="2">  1       -2 0.13189794E+00 0.73219580E+03</pdfrwt>
<totfact> 0.31182932E+00</totfact>
</mgrwt>
</event>
<event>
 4    5  0.1112901E-007  0.8578857E+03  0.7818608E-02  0.9597336E-01
         -2   -1    0    0    0  501 -0.00000000000E+00  0.00000000000E+00  0.76889267313E+03  0.76889267313E+03  0.25500000000E-02 0.  1.
          2   -1    0    0  501    0  0.00000000000E+00 -0.00000000000E+00 -0.22974674297E+04  0.22974674297E+04  0.25500000000E-02 0. -1.
    8880023    1    1    2    0    0 -0.49212154533E+03 -0.24489598096E+03  0.47674056036E+03  0.98145271156E+03  0.65864270000E+03 0.  1.
    8880022    1    1    2    0    0  0.49212154533E+03  0.24489598096E+03 -0.20053153169E+04  0.20849073912E+04  0.15294330000E+03 0.  0.
<mgrwt>
<rscale>  0 0.77472785E+03</rscale>
<asrwt>0</asrwt>
<pdfrwt beam="1">  1        2 0.35345652E+00 0.85788569E+03</pdfrwt>
<pdfrwt beam="2">  1       -2 0.11829118E+00 0.85788569E+03</pdfrwt>
<totfact> 0.25657176E+00</totfact>
</mgrwt>
</event>
<event>
 4    5  0.1112901E-007  0.1059876E+04  0.7818608E-02  0.9307102E-01
          2   -1    0    0  501    0  0.00000000000E+00  0.00000000000E+00  0.12427936259E+04  0.12427936259E+04  0.25500000000E-02 0. -1.
         -2   -1    0    0    0  501 -0.00000000000E+00 -0.00000000000E+00 -0.10766669154E+04  0.10766669154E+04  0.25500000000E-02 0.  1.
    8880023    1    1    2    0    0  0.64287706636E+03 -0.52558138326E+03 -0.56632705869E+03  0.12016918309E+04  0.65864270000E+03 0.  1.
    8880022    1    1    2    0    0 -0.64287706636E+03  0.52558138326E+03  0.73245376922E+03  0.11177687104E+04  0.15294330000E+03 0.  0.
<mgrwt>
<rscale>  0 0.10013162E+04</rscale>
<asrwt>0</asrwt>
<pdfrwt beam="1">  1        2 0.19119902E+00 0.10598759E+04</pdfrwt>
<pdfrwt beam="2">  1       -2 0.16564106E+00 0.10598759E+04</pdfrwt>
<totfact> 0.40301031E+00</totfact>
</mgrwt>
</event>
<event>
 4    5  0.1112901E-007  0.7186971E+03  0.7818608E-02  0.9927019E-01
         -2   -1    0    0    0  501 -0.00000000000E+00  0.00000000000E+00  0.59442850007E+03  0.59442850008E+03  0.25500000000E-02 0.  1.
          2   -1    0    0  501    0  0.00000000000E+00 -0.00000000000E+00 -0.13667941980E+04  0.13667941980E+04  0.25500000000E-02 0. -1.
    8880023    1    1    2    0    0  0.85052044450E+02  0.27473899393E+03  0.34509330492E+03  0.79725463963E+03  0.65864270000E+03 0.  0.
    8880022    1    1    2    0    0 -0.85052044450E+02 -0.27473899393E+03 -0.11174590028E+04  0.11639680584E+04  0.15294330000E+03 0.  0.
<mgrwt>
<rscale>  0 0.58969500E+03</rscale>
<asrwt>0</asrwt>
<pdfrwt beam="1">  1        2 0.21027603E+00 0.71869713E+03</pdfrwt>
<pdfrwt beam="2">  1       -2 0.91450539E-01 0.71869713E+03</pdfrwt>
<totfact> 0.15798154E+01</totfact>
</mgrwt>
</event>
<event>
 4    5  0.1112901E-007  0.6708810E+03  0.7818608E-02  0.1015039E+00
         -2   -1    0    0    0  501 -0.00000000000E+00  0.00000000000E+00  0.32207418178E+03  0.32207418179E+03  0.25500000000E-02 0.  1.
          2   -1    0    0  501    0  0.00000000000E+00 -0.00000000000E+00 -0.17379370072E+04  0.17379370072E+04  0.25500000000E-02 0. -1.
    8880023    1    1    2    0    0 -0.66975586723E+02 -0.10856049140E+03 -0.42437781318E+02  0.67222189867E+03  0.65864270000E+03 0.  1.
    8880022    1    1    2    0    0  0.66975586723E+02  0.10856049140E+03 -0.13734250441E+04  0.13877892903E+04  0.15294330000E+03 0.  0.
<mgrwt>
<rscale>  0 0.49520154E+03</rscale>
<asrwt>0</asrwt>
<pdfrwt beam="1">  1        2 0.26737492E+00 0.67088100E+03</pdfrwt>
<pdfrwt beam="2">  1       -2 0.49549875E-01 0.67088100E+03</pdfrwt>
<totfact> 0.37340400E+01</totfact>
</mgrwt>
</event>
<event>
 4    5  0.1112901E-007  0.7898524E+03  0.7818608E-02  0.9733183E-01
         -2   -1    0    0    0  501 -0.00000000000E+00  0.00000000000E+00  0.12695594797E+04  0.12695594797E+04  0.25500000000E-02 0.  1.
          2   -1    0    0  501    0  0.00000000000E+00 -0.00000000000E+00 -0.10692450473E+04  0.10692450473E+04  0.25500000000E-02 0. -1.
    8880023    1    1    2    0    0  0.39067196921E+03 -0.19347365490E+03  0.10842331106E+04  0.13414277048E+04  0.65864270000E+03 0.  1.
    8880022    1    1    2    0    0 -0.39067196921E+03  0.19347365490E+03 -0.88391867829E+03  0.99737682222E+03  0.15294330000E+03 0.  0.
<mgrwt>
<rscale>  0 0.69075025E+03</rscale>
<asrwt>0</asrwt>
<pdfrwt beam="1">  1        2 0.16449924E+00 0.78985242E+03</pdfrwt>
<pdfrwt beam="2">  1       -2 0.19531684E+00 0.78985242E+03</pdfrwt>
<totfact> 0.33115800E+00</totfact>
</mgrwt>
</event>
<event>
 4    5  0.1112901E-007  0.7728331E+03  0.7818608E-02  0.9772950E-01
          2   -1    0    0  501    0  0.00000000000E+00  0.00000000000E+00  0.21082698166E+04  0.21082698166E+04  0.25500000000E-02 0. -1.
         -2   -1    0    0    0  501 -0.00000000000E+00 -0.00000000000E+00 -0.35382657598E+03  0.35382657599E+03  0.25500000000E-02 0.  1.
    8880023    1    1    2    0    0 -0.39064222910E+03 -0.10420831284E+03  0.13321453819E+03  0.78423022325E+03  0.65864270000E+03 0.  0.
    8880022    1    1    2    0    0  0.39064222910E+03  0.10420831284E+03  0.16212287025E+04  0.16778661694E+04  0.15294330000E+03 0.  0.
<mgrwt>
<rscale>  0 0.66834637E+03</rscale>
<asrwt>0</asrwt>
<pdfrwt beam="1">  1        2 0.32434920E+00 0.77283305E+03</pdfrwt>
<pdfrwt beam="2">  1       -2 0.54434858E-01 0.77283305E+03</pdfrwt>
<totfact> 0.19081468E+01</totfact>
</mgrwt>
</event>
<event>
 4    5  0.1112901E-007  0.7045078E+03  0.7818608E-02  0.9978991E-01
         -2   -1    0    0    0  501 -0.00000000000E+00  0.00000000000E+00  0.21629698713E+03  0.21629698714E+03  0.25500000000E-02 0.  1.
          2   -1    0    0  501    0  0.00000000000E+00 -0.00000000000E+00 -0.19995201062E+04  0.19995201062E+04  0.25500000000E-02 0. -1.
    8880023    1    1    2    0    0  0.23801561987E+03 -0.76613215744E+02 -0.41734980656E+03  0.81884802462E+03  0.65864270000E+03 0.  1.
    8880022    1    1    2    0    0 -0.23801561987E+03  0.76613215744E+02 -0.13658733125E+04  0.13969690687E+04  0.15294330000E+03 0.  0.
<mgrwt>
<rscale>  0 0.56581115E+03</rscale>
<asrwt>0</asrwt>
<pdfrwt beam="1">  1        2 0.30761847E+00 0.70450779E+03</pdfrwt>
<pdfrwt beam="2">  1       -2 0.33276461E-01 0.70450779E+03</pdfrwt>
<totfact> 0.58344528E+01</totfact>
</mgrwt>
</event>
<event>
 4    5  0.1112901E-007  0.1743778E+04  0.7818608E-02  0.8754291E-01
         -2   -1    0    0    0  501 -0.00000000000E+00  0.00000000000E+00  0.84580501687E+03  0.84580501687E+03  0.25500000000E-02 0.  1.
          2   -1    0    0  501    0  0.00000000000E+00 -0.00000000000E+00 -0.34391882369E+04  0.34391882369E+04  0.25500000000E-02 0. -1.
    8880023    1    1    2    0    0 -0.15999722038E+04  0.21688863075E+03 -0.99396477673E+03  0.20071691296E+04  0.65864270000E+03 0.  0.
    8880022    1    1    2    0    0  0.15999722038E+04 -0.21688863075E+03 -0.15994184433E+04  0.22778241242E+04  0.15294330000E+03 0.  0.
<mgrwt>
<rscale>  0 0.17124581E+04</rscale>
<asrwt>0</asrwt>
<pdfrwt beam="1">  1        2 0.52910587E+00 0.17437781E+04</pdfrwt>
<pdfrwt beam="2">  1       -2 0.13012385E+00 0.17437781E+04</pdfrwt>
<totfact> 0.36101834E-01</totfact>
</mgrwt>
</event>
<event>
 4    5  0.1112901E-007  0.1342837E+04  0.7818608E-02  0.9029423E-01
          2   -1    0    0  501    0  0.00000000000E+00  0.00000000000E+00  0.29703605920E+04  0.29703605920E+04  0.25500000000E-02 0. -1.
         -2   -1    0    0    0  501 -0.00000000000E+00 -0.00000000000E+00 -0.91047926184E+03  0.91047926185E+03  0.25500000000E-02 0.  1.
    8880023    1    1    2    0    0 -0.54232861304E+03  0.10369576117E+04 -0.17430881413E+03  0.13541030914E+04  0.65864270000E+03 0.  1.
    8880022    1    1    2    0    0  0.54232861304E+03 -0.10369576117E+04  0.22341901442E+04  0.25267367625E+04  0.15294330000E+03 0.  0.
<mgrwt>
<rscale>  0 0.13001796E+04</rscale>
<asrwt>0</asrwt>
<pdfrwt beam="1">  1        2 0.45697855E+00 0.13428372E+04</pdfrwt>
<pdfrwt beam="2">  1       -2 0.14007373E+00 0.13428372E+04</pdfrwt>
<totfact> 0.63008685E-01</totfact>
</mgrwt>
</event>
<event>
 4    5  0.1112901E-007  0.1035556E+04  0.7818608E-02  0.9336450E-01
          2   -1    0    0  501    0  0.00000000000E+00  0.00000000000E+00  0.15717614705E+04  0.15717614705E+04  0.25500000000E-02 0. -1.
         -2   -1    0    0    0  501 -0.00000000000E+00 -0.00000000000E+00 -0.11901655471E+04  0.11901655471E+04  0.25500000000E-02 0.  1.
    8880023    1    1    2    0    0  0.78439787603E+03  0.15259598777E+03 -0.81301274976E+03  0.13165733937E+04  0.65864270000E+03 0.  1.
    8880022    1    1    2    0    0 -0.78439787603E+03 -0.15259598777E+03  0.11946086732E+04  0.14453536240E+04  0.15294330000E+03 0.  0.
<mgrwt>
<rscale>  0 0.97495341E+03</rscale>
<asrwt>0</asrwt>
<pdfrwt beam="1">  1        2 0.24180946E+00 0.10355558E+04</pdfrwt>
<pdfrwt beam="2">  1       -2 0.18310239E+00 0.10355558E+04</pdfrwt>
<totfact> 0.19743564E+00</totfact>
</mgrwt>
</event>
<event>
 4    5  0.1112901E-007  0.1046046E+04  0.7818608E-02  0.9323649E-01
         -2   -1    0    0    0  501 -0.00000000000E+00  0.00000000000E+00  0.51988473624E+03  0.51988473625E+03  0.25500000000E-02 0.  1.
          2   -1    0    0  501    0  0.00000000000E+00 -0.00000000000E+00 -0.20515170831E+04  0.20515170831E+04  0.25500000000E-02 0. -1.
    8880023    1    1    2    0    0  0.45340892880E+03  0.67440567244E+03 -0.13784491223E+04  0.17304146488E+04  0.65864270000E+03 0. -1.
    8880022    1    1    2    0    0 -0.45340892880E+03 -0.67440567244E+03 -0.15318322456E+03  0.84098717056E+03  0.15294330000E+03 0.  1.
<mgrwt>
<rscale>  0 0.98634505E+03</rscale>
<asrwt>0</asrwt>
<pdfrwt beam="1">  1        2 0.31561801E+00 0.10460463E+04</pdfrwt>
<pdfrwt beam="2">  1       -2 0.79982268E-01 0.10460463E+04</pdfrwt>
<totfact> 0.86286750E+00</totfact>
</mgrwt>
</event>
<event>
 4    5  0.1112901E-007  0.8085988E+03  0.7818608E-02  0.9692503E-01
          2   -1    0    0  501    0  0.00000000000E+00  0.00000000000E+00  0.15666876815E+04  0.15666876815E+04  0.25500000000E-02 0. -1.
         -2   -1    0    0    0  501 -0.00000000000E+00 -0.00000000000E+00 -0.51288871408E+03  0.51288871408E+03  0.25500000000E-02 0.  1.
    8880023    1    1    2    0    0 -0.42420922133E+03 -0.20017086494E+03 -0.10949982058E+03  0.81597932302E+03  0.65864270000E+03 0.  1.
    8880022    1    1    2    0    0  0.42420922133E+03  0.20017086494E+03  0.11632987880E+04  0.12635970726E+04  0.15294330000E+03 0.  0.
<mgrwt>
<rscale>  0 0.71464919E+03</rscale>
<asrwt>0</asrwt>
<pdfrwt beam="1">  1        2 0.24102887E+00 0.80859882E+03</pdfrwt>
<pdfrwt beam="2">  1       -2 0.78905958E-01 0.80859882E+03</pdfrwt>
<totfact> 0.16898361E+01</totfact>
</mgrwt>
</event>
<event>
 4    5  0.1112901E-007  0.9951843E+03  0.7818608E-02  0.9387885E-01
          2   -1    0    0  501    0  0.00000000000E+00  0.00000000000E+00  0.13951848406E+04  0.13951848406E+04  0.25500000000E-02 0. -1.
         -2   -1    0    0    0  501 -0.00000000000E+00 -0.00000000000E+00 -0.83444482116E+03  0.83444482117E+03  0.25500000000E-02 0.  1.
    8880023    1    1    2    0    0  0.19396647566E+03  0.72038783298E+03 -0.33855617547E+03  0.10511955640E+04  0.65864270000E+03 0.  1.
    8880022    1    1    2    0    0 -0.19396647566E+03 -0.72038783298E+03  0.89929619496E+03  0.11784340978E+04  0.15294330000E+03 0.  0.
<mgrwt>
<rscale>  0 0.93079414E+03</rscale>
<asrwt>0</asrwt>
<pdfrwt beam="1">  1        2 0.21464382E+00 0.99518432E+03</pdfrwt>
<pdfrwt beam="2">  1       -2 0.12837613E+00 0.99518432E+03</pdfrwt>
<totfact> 0.64861978E+00</totfact>
</mgrwt>
</event>
<event>
 4    5  0.1112901E-007  0.9455447E+03  0.7818608E-02  0.9456553E-01
          2   -1    0    0  501    0  0.00000000000E+00  0.00000000000E+00  0.94123711121E+03  0.94123711121E+03  0.25500000000E-02 0. -1.
         -2   -1    0    0    0  501 -0.00000000000E+00 -0.00000000000E+00 -0.13752654313E+04  0.13752654313E+04  0.25500000000E-02 0.  1.
    8880023    1    1    2    0    0  0.65352561132E+03  0.18206846378E+03 -0.10317541664E+04  0.13994897343E+04  0.65864270000E+03 0.  1.
    8880022    1    1    2    0    0 -0.65352561132E+03 -0.18206846378E+03  0.59772584631E+03  0.91701280826E+03  0.15294330000E+03 0.  0.
<mgrwt>
<rscale>  0 0.87564168E+03</rscale>
<asrwt>0</asrwt>
<pdfrwt beam="1">  1        2 0.14480571E+00 0.94554474E+03</pdfrwt>
<pdfrwt beam="2">  1       -2 0.21157930E+00 0.94554474E+03</pdfrwt>
<totfact> 0.30755005E+00</totfact>
</mgrwt>
</event>
<event>
 4    5  0.1112901E-007  0.1281564E+04  0.7818608E-02  0.9081646E-01
         -2   -1    0    0    0  501 -0.00000000000E+00  0.00000000000E+00  0.12722646618E+04  0.12722646618E+04  0.25500000000E-02 0.  1.
          2   -1    0    0  501    0  0.00000000000E+00 -0.00000000000E+00 -0.20299234130E+04  0.20299234130E+04  0.25500000000E-02 0. -1.
    8880023    1    1    2    0    0  0.14445855088E+03 -0.10898296583E+04  0.70764322851E+03  0.14639556353E+04  0.65864270000E+03 0.  0.
    8880022    1    1    2    0    0 -0.14445855088E+03  0.10898296583E+04 -0.14653019796E+04  0.18382324395E+04  0.15294330000E+03 0.  0.
<mgrwt>
<rscale>  0 0.12363207E+04</rscale>
<asrwt>0</asrwt>
<pdfrwt beam="1">  1        2 0.31229591E+00 0.12815643E+04</pdfrwt>
<pdfrwt beam="2">  1       -2 0.19573303E+00 0.12815643E+04</pdfrwt>
<totfact> 0.87779055E-01</totfact>
</mgrwt>
</event>
<event>
 4    5  0.1112901E-007  0.1093027E+04  0.7818608E-02  0.9268859E-01
          2   -1    0    0  501    0  0.00000000000E+00  0.00000000000E+00  0.12405202961E+04  0.12405202961E+04  0.25500000000E-02 0. -1.
         -2   -1    0    0    0  501 -0.00000000000E+00 -0.00000000000E+00 -0.11218092879E+04  0.11218092879E+04  0.25500000000E-02 0.  1.
    8880023    1    1    2    0    0  0.33402451048E+03 -0.80580760465E+03 -0.57715058970E+03  0.12360466329E+04  0.65864270000E+03 0.  0.
    8880022    1    1    2    0    0 -0.33402451048E+03  0.80580760465E+03  0.69586159792E+03  0.11262829510E+04  0.15294330000E+03 0.  0.
<mgrwt>
<rscale>  0 0.10370097E+04</rscale>
<asrwt>0</asrwt>
<pdfrwt beam="1">  1        2 0.19084928E+00 0.10930272E+04</pdfrwt>
<pdfrwt beam="2">  1       -2 0.17258605E+00 0.10930272E+04</pdfrwt>
<totfact> 0.35935817E+00</totfact>
</mgrwt>
</event>
<event>
 4    5  0.1112901E-007  0.6650789E+03  0.7818608E-02  0.1019467E+00
          2   -1    0    0  501    0  0.00000000000E+00  0.00000000000E+00  0.13554221103E+04  0.13554221103E+04  0.25500000000E-02 0. -1.
         -2   -1    0    0    0  501 -0.00000000000E+00 -0.00000000000E+00 -0.45981293873E+03  0.45981293873E+03  0.25500000000E-02 0.  1.
    8880023    1    1    2    0    0 -0.79845114973E+02 -0.46308707974E+02 -0.20832344686E+03  0.69694232444E+03  0.65864270000E+03 0.  1.
    8880022    1    1    2    0    0  0.79845114973E+02  0.46308707974E+02  0.11039326185E+04  0.11182927246E+04  0.15294330000E+03 0.  0.
<mgrwt>
<rscale>  0 0.47879334E+03</rscale>
<asrwt>0</asrwt>
<pdfrwt beam="1">  1        2 0.20852648E+00 0.66507890E+03</pdfrwt>
<pdfrwt beam="2">  1       -2 0.70740452E-01 0.66507890E+03</pdfrwt>
<totfact> 0.28758382E+01</totfact>
</mgrwt>
</event>
<event>
 4    5  0.1112901E-007  0.8986036E+03  0.7818608E-02  0.9528277E-01
         -2   -1    0    0    0  501 -0.00000000000E+00  0.00000000000E+00  0.40672000239E+03  0.40672000240E+03  0.25500000000E-02 0.  1.
          2   -1    0    0  501    0  0.00000000000E+00 -0.00000000000E+00 -0.22800379645E+04  0.22800379645E+04  0.25500000000E-02 0. -1.
    8880023    1    1    2    0    0  0.22291099321E+03 -0.56920025828E+03 -0.23117209714E+03  0.92786259202E+03  0.65864270000E+03 0.  0.
    8880022    1    1    2    0    0 -0.22291099321E+03  0.56920025828E+03 -0.16421458650E+04  0.17588953749E+04  0.15294330000E+03 0.  0.
<mgrwt>
<rscale>  0 0.82230795E+03</rscale>
<asrwt>0</asrwt>
<pdfrwt beam="1">  1        2 0.35077506E+00 0.89860361E+03</pdfrwt>
<pdfrwt beam="2">  1       -2 0.62572310E-01 0.89860361E+03</pdfrwt>
<totfact> 0.11246630E+01</totfact>
</mgrwt>
</event>
<event>
 4    5  0.1112901E-007  0.8544430E+03  0.7818608E-02  0.9603526E-01
         -2   -1    0    0    0  501 -0.00000000000E+00  0.00000000000E+00  0.99512593306E+03  0.99512593306E+03  0.25500000000E-02 0.  1.
          2   -1    0    0  501    0  0.00000000000E+00 -0.00000000000E+00 -0.80769972248E+03  0.80769972249E+03  0.25500000000E-02 0. -1.
    8880023    1    1    2    0    0 -0.51135652144E+03 -0.18648650582E+03  0.64898794657E+03  0.10729670405E+04  0.65864270000E+03 0.  1.
    8880022    1    1    2    0    0  0.51135652144E+03  0.18648650582E+03 -0.46156173599E+03  0.72985861509E+03  0.15294330000E+03 0.  0.
<mgrwt>
<rscale>  0 0.77063267E+03</rscale>
<asrwt>0</asrwt>
<pdfrwt beam="1">  1        2 0.12426150E+00 0.85444304E+03</pdfrwt>
<pdfrwt beam="2">  1       -2 0.15309630E+00 0.85444304E+03</pdfrwt>
<totfact> 0.97004127E+00</totfact>
</mgrwt>
</event>
<event>
 4    5  0.1112901E-007  0.7262257E+03  0.7818608E-02  0.9902057E-01
          2   -1    0    0  501    0  0.00000000000E+00  0.00000000000E+00  0.18497668617E+04  0.18497668617E+04  0.25500000000E-02 0. -1.
         -2   -1    0    0    0  501 -0.00000000000E+00 -0.00000000000E+00 -0.17856541404E+03  0.17856541406E+03  0.25500000000E-02 0.  1.
    8880023    1    1    2    0    0 -0.28867968718E+03 -0.10127957649E+03  0.74232063882E+03  0.10384814160E+04  0.65864270000E+03 0.  1.
    8880022    1    1    2    0    0  0.28867968718E+03  0.10127957649E+03  0.92888080884E+03  0.98985085970E+03  0.15294330000E+03 0.  0.
<mgrwt>
<rscale>  0 0.60161693E+03</rscale>
<asrwt>0</asrwt>
<pdfrwt beam="1">  1        2 0.28457953E+00 0.72622567E+03</pdfrwt>
<pdfrwt beam="2">  1       -2 0.27471601E-01 0.72622567E+03</pdfrwt>
<totfact> 0.10024629E+02</totfact>
</mgrwt>
</event>
<event>
 4    5  0.1112901E-007  0.8410593E+03  0.7818608E-02  0.9628186E-01
         -2   -1    0    0    0  501 -0.00000000000E+00  0.00000000000E+00  0.54288757977E+03  0.54288757978E+03  0.25500000000E-02 0.  1.
          2   -1    0    0  501    0  0.00000000000E+00 -0.00000000000E+00 -0.13100927808E+04  0.13100927808E+04  0.25500000000E-02 0. -1.
    8880023    1    1    2    0    0 -0.30136116473E+03 -0.42749498762E+03  0.80846253691E+02  0.84493599701E+03  0.65864270000E+03 0.  1.
    8880022    1    1    2    0    0  0.30136116473E+03  0.42749498762E+03 -0.84805145470E+03  0.10080443635E+04  0.15294330000E+03 0.  0.
<mgrwt>
<rscale>  0 0.75458401E+03</rscale>
<asrwt>0</asrwt>
<pdfrwt beam="1">  1        2 0.20155273E+00 0.84105929E+03</pdfrwt>
<pdfrwt beam="2">  1       -2 0.83521167E-01 0.84105929E+03</pdfrwt>
<totfact> 0.20670004E+01</totfact>
</mgrwt>
</event>
<event>
 4    5  0.1112901E-007  0.8154419E+03  0.7818608E-02  0.9678351E-01
         -2   -1    0    0    0  501 -0.00000000000E+00  0.00000000000E+00  0.26278280676E+04  0.26278280676E+04  0.25500000000E-02 0.  1.
          2   -1    0    0  501    0  0.00000000000E+00 -0.00000000000E+00 -0.21330657508E+03  0.21330657509E+03  0.25500000000E-02 0. -1.
    8880023    1    1    2    0    0  0.47531819333E+03  0.72165752773E+02  0.20843743604E+04  0.22382050758E+04  0.65864270000E+03 0.  0.
    8880022    1    1    2    0    0 -0.47531819333E+03 -0.72165752773E+02  0.33014713215E+03  0.60292956692E+03  0.15294330000E+03 0.  0.
<mgrwt>
<rscale>  0 0.72320511E+03</rscale>
<asrwt>0</asrwt>
<pdfrwt beam="1">  1        2 0.32816398E-01 0.81544190E+03</pdfrwt>
<pdfrwt beam="2">  1       -2 0.40428122E+00 0.81544190E+03</pdfrwt>
<totfact> 0.11755561E+00</totfact>
</mgrwt>
</event>
<event>
 4    5  0.1112901E-007  0.1375956E+04  0.7818608E-02  0.9002595E-01
          2   -1    0    0  501    0  0.00000000000E+00  0.00000000000E+00  0.15240964889E+04  0.15240964889E+04  0.25500000000E-02 0. -1.
         -2   -1    0    0    0  501 -0.00000000000E+00 -0.00000000000E+00 -0.16307165446E+04  0.16307165446E+04  0.25500000000E-02 0.  1.
    8880023    1    1    2    0    0  0.69252664277E+03 -0.98987423562E+03 -0.95132149730E+03  0.16728021254E+04  0.65864270000E+03 0.  0.
    8880022    1    1    2    0    0 -0.69252664277E+03  0.98987423562E+03  0.84470144160E+03  0.14820109081E+04  0.15294330000E+03 0.  0.
<mgrwt>
<rscale>  0 0.13345658E+04</rscale>
<asrwt>0</asrwt>
<pdfrwt beam="1">  1        2 0.23447638E+00 0.13759558E+04</pdfrwt>
<pdfrwt beam="2">  1       -2 0.25087947E+00 0.13759558E+04</pdfrwt>
<totfact> 0.74352135E-01</totfact>
</mgrwt>
</event>
<event>
 4    5  0.1112901E-007  0.1158173E+04  0.7818608E-02  0.9198893E-01
         -2   -1    0    0    0  501 -0.00000000000E+00  0.00000000000E+00  0.10724786323E+04  0.10724786323E+04  0.25500000000E-02 0.  1.
          2   -1    0    0  501    0  0.00000000000E+00 -0.00000000000E+00 -0.18277554781E+04  0.18277554781E+04  0.25500000000E-02 0. -1.
    8880023    1    1    2    0    0  0.20628302188E+03 -0.93005517962E+03  0.54587990413E+03  0.12803711955E+04  0.65864270000E+03 0.  0.
    8880022    1    1    2    0    0 -0.20628302188E+03  0.93005517962E+03 -0.13011567499E+04  0.16198629149E+04  0.15294330000E+03 0.  0.
<mgrwt>
<rscale>  0 0.11064857E+04</rscale>
<asrwt>0</asrwt>
<pdfrwt beam="1">  1        2 0.28119315E+00 0.11581734E+04</pdfrwt>
<pdfrwt beam="2">  1       -2 0.16499671E+00 0.11581734E+04</pdfrwt>
<totfact> 0.18821960E+00</totfact>
</mgrwt>
</event>
<event>
 4    5  0.1112901E-007  0.8401961E+03  0.7818608E-02  0.9629811E-01
         -2   -1    0    0    0  501 -0.00000000000E+00  0.00000000000E+00  0.12541600063E+04  0.12541600063E+04  0.25500000000E-02 0.  1.
          2   -1    0    0  501    0  0.00000000000E+00 -0.00000000000E+00 -0.10240007078E+04  0.10240007078E+04  0.25500000000E-02 0. -1.
    8880023    1    1    2    0    0  0.50064805646E+03  0.14652905026E+03  0.10186464854E+04  0.13204431482E+04  0.65864270000E+03 0.  1.
    8880022    1    1    2    0    0 -0.50064805646E+03 -0.14652905026E+03 -0.78848718699E+03  0.95771756592E+03  0.15294330000E+03 0.  0.
<mgrwt>
<rscale>  0 0.75354150E+03</rscale>
<asrwt>0</asrwt>
<pdfrwt beam="1">  1        2 0.15753857E+00 0.84019608E+03</pdfrwt>
<pdfrwt beam="2">  1       -2 0.19294769E+00 0.84019608E+03</pdfrwt>
<totfact> 0.36398119E+00</totfact>
</mgrwt>
</event>
<event>
 4    5  0.1112901E-007  0.1091349E+04  0.7818608E-02  0.9270750E-01
         -2   -1    0    0    0  501 -0.00000000000E+00  0.00000000000E+00  0.92852888054E+03  0.92852888055E+03  0.25500000000E-02 0.  1.
          2   -1    0    0  501    0  0.00000000000E+00 -0.00000000000E+00 -0.14943983989E+04  0.14943983989E+04  0.25500000000E-02 0. -1.
    8880023    1    1    2    0    0  0.58061994254E+03 -0.64816050935E+03  0.35414257389E+03  0.11473703554E+04  0.65864270000E+03 0.  0.
    8880022    1    1    2    0    0 -0.58061994254E+03  0.64816050935E+03 -0.92001209221E+03  0.12755569240E+04  0.15294330000E+03 0.  0.
<mgrwt>
<rscale>  0 0.10352084E+04</rscale>
<asrwt>0</asrwt>
<pdfrwt beam="1">  1        2 0.22990745E+00 0.10913486E+04</pdfrwt>
<pdfrwt beam="2">  1       -2 0.14285060E+00 0.10913486E+04</pdfrwt>
<totfact> 0.42835692E+00</totfact>
</mgrwt>
</event>
<event>
 4    5  0.1112901E-007  0.8801254E+03  0.7818608E-02  0.9558721E-01
         -2   -1    0    0    0  501 -0.00000000000E+00  0.00000000000E+00  0.18260046563E+04  0.18260046563E+04  0.25500000000E-02 0.  1.
          2   -1    0    0  501    0  0.00000000000E+00 -0.00000000000E+00 -0.52210197910E+03  0.52210197910E+03  0.25500000000E-02 0. -1.
    8880023    1    1    2    0    0 -0.58364678328E+03  0.12922090742E+02  0.14778238148E+04  0.17200534823E+04  0.65864270000E+03 0.  1.
    8880022    1    1    2    0    0  0.58364678328E+03 -0.12922090742E+02 -0.17392113757E+03  0.62805315314E+03  0.15294330000E+03 0.  0.
<mgrwt>
<rscale>  0 0.80089622E+03</rscale>
<asrwt>0</asrwt>
<pdfrwt beam="1">  1        2 0.80323381E-01 0.88012542E+03</pdfrwt>
<pdfrwt beam="2">  1       -2 0.28092380E+00 0.88012542E+03</pdfrwt>
<totfact> 0.24782024E+00</totfact>
</mgrwt>
</event>
<event>
 4    5  0.1112901E-007  0.7639635E+03  0.7818608E-02  0.9794952E-01
         -2   -1    0    0    0  501 -0.00000000000E+00  0.00000000000E+00  0.12391726693E+03  0.12391726696E+03  0.25500000000E-02 0.  1.
          2   -1    0    0  501    0  0.00000000000E+00 -0.00000000000E+00 -0.30157674401E+04  0.30157674401E+04  0.25500000000E-02 0. -1.
    8880023    1    1    2    0    0 -0.18871929949E+03 -0.33795711485E+03 -0.14497084270E+04  0.16386868875E+04  0.65864270000E+03 0.  0.
    8880022    1    1    2    0    0  0.18871929949E+03  0.33795711485E+03 -0.14421417461E+04  0.15009978196E+04  0.15294330000E+03 0.  0.
<mgrwt>
<rscale>  0 0.65634127E+03</rscale>
<asrwt>0</asrwt>
<pdfrwt beam="1">  1        2 0.46396416E+00 0.76396348E+03</pdfrwt>
<pdfrwt beam="2">  1       -2 0.19064197E-01 0.76396348E+03</pdfrwt>
<totfact> 0.41646575E+01</totfact>
</mgrwt>
</event>
<event>
 4    5  0.1112901E-007  0.8895462E+03  0.7818608E-02  0.9543026E-01
          2   -1    0    0  501    0  0.00000000000E+00  0.00000000000E+00  0.10783195138E+04  0.10783195138E+04  0.25500000000E-02 0. -1.
         -2   -1    0    0    0  501 -0.00000000000E+00 -0.00000000000E+00 -0.10989448676E+04  0.10989448676E+04  0.25500000000E-02 0.  1.
    8880023    1    1    2    0    0 -0.56422613289E+03  0.19781565275E+03 -0.79086526882E+03  0.11902773799E+04  0.65864270000E+03 0.  1.
    8880022    1    1    2    0    0  0.56422613289E+03 -0.19781565275E+03  0.77023991499E+03  0.98698700152E+03  0.15294330000E+03 0.  0.
<mgrwt>
<rscale>  0 0.81184666E+03</rscale>
<asrwt>0</asrwt>
<pdfrwt beam="1">  1        2 0.16589531E+00 0.88954616E+03</pdfrwt>
<pdfrwt beam="2">  1       -2 0.16906844E+00 0.88954616E+03</pdfrwt>
<totfact> 0.48787841E+00</totfact>
</mgrwt>
</event>
<event>
 4    5  0.1112901E-007  0.2344021E+04  0.7818608E-02  0.8469537E-01
         -2   -1    0    0    0  501 -0.00000000000E+00  0.00000000000E+00  0.27214653447E+04  0.27214653447E+04  0.25500000000E-02 0.  1.
          2   -1    0    0  501    0  0.00000000000E+00 -0.00000000000E+00 -0.22948322723E+04  0.22948322723E+04  0.25500000000E-02 0. -1.
    8880023    1    1    2    0    0 -0.62249908895E+03 -0.21617397761E+04 -0.76539355410E+03  0.24658186215E+04  0.65864270000E+03 0. -1.
    8880022    1    1    2    0    0  0.62249908895E+03  0.21617397761E+04  0.11920266265E+04  0.25504789955E+04  0.15294330000E+03 0.  0.
<mgrwt>
<rscale>  0 0.23213839E+04</rscale>
<asrwt>0</asrwt>
<pdfrwt beam="1">  1        2 0.35305112E+00 0.23440209E+04</pdfrwt>
<pdfrwt beam="2">  1       -2 0.41868697E+00 0.23440209E+04</pdfrwt>
<totfact> 0.21766847E-02</totfact>
</mgrwt>
</event>
<event>
 4    5  0.1112901E-007  0.1820092E+04  0.7818608E-02  0.8711503E-01
          2   -1    0    0  501    0  0.00000000000E+00  0.00000000000E+00  0.26604232970E+04  0.26604232970E+04  0.25500000000E-02 0. -1.
         -2   -1    0    0    0  501 -0.00000000000E+00 -0.00000000000E+00 -0.12082369872E+04  0.12082369872E+04  0.25500000000E-02 0.  1.
    8880023    1    1    2    0    0  0.15159446174E+04  0.76212686134E+03  0.11073764861E+04  0.21304972011E+04  0.65864270000E+03 0.  0.
    8880022    1    1    2    0    0 -0.15159446174E+04 -0.76212686134E+03  0.34480982376E+03  0.17381630831E+04  0.15294330000E+03 0. -1.
<mgrwt>
<rscale>  0 0.17902478E+04</rscale>
<asrwt>0</asrwt>
<pdfrwt beam="1">  1        2 0.40929589E+00 0.18200922E+04</pdfrwt>
<pdfrwt beam="2">  1       -2 0.18588262E+00 0.18200922E+04</pdfrwt>
<totfact> 0.42216663E-01</totfact>
</mgrwt>
</event>
<event>
 4    5  0.1112901E-007  0.1960842E+04  0.7818608E-02  0.8638423E-01
          2   -1    0    0  501    0  0.00000000000E+00  0.00000000000E+00  0.22433559469E+04  0.22433559469E+04  0.25500000000E-02 0. -1.
         -2   -1    0    0    0  501 -0.00000000000E+00 -0.00000000000E+00 -0.19823964503E+04  0.19823964503E+04  0.25500000000E-02 0.  1.
    8880023    1    1    2    0    0  0.62886812561E+03  0.17365533202E+04 -0.76817227958E+03  0.21059419295E+04  0.65864270000E+03 0.  0.
    8880022    1    1    2    0    0 -0.62886812561E+03 -0.17365533202E+04  0.10291317762E+04  0.21198104677E+04  0.15294330000E+03 0.  0.
<mgrwt>
<rscale>  0 0.19333688E+04</rscale>
<asrwt>0</asrwt>
<pdfrwt beam="1">  1        2 0.34513168E+00 0.19608424E+04</pdfrwt>
<pdfrwt beam="2">  1       -2 0.30498407E+00 0.19608424E+04</pdfrwt>
<totfact> 0.12891613E-01</totfact>
</mgrwt>
</event>
<event>
 4    5  0.1112901E-007  0.7522703E+03  0.7818608E-02  0.9825546E-01
         -2   -1    0    0    0  501 -0.00000000000E+00  0.00000000000E+00  0.15839863394E+03  0.15839863396E+03  0.25500000000E-02 0.  1.
          2   -1    0    0  501    0  0.00000000000E+00 -0.00000000000E+00 -0.27983112330E+04  0.27983112330E+04  0.25500000000E-02 0. -1.
    8880023    1    1    2    0    0  0.21315744475E+03 -0.29438797717E+03 -0.23494711240E+04  0.24669667907E+04  0.65864270000E+03 0. -1.
    8880022    1    1    2    0    0 -0.21315744475E+03  0.29438797717E+03 -0.29044147506E+03  0.48974307632E+03  0.15294330000E+03 0.  1.
<mgrwt>
<rscale>  0 0.64009428E+03</rscale>
<asrwt>0</asrwt>
<pdfrwt beam="1">  1        2 0.43050938E+00 0.75227029E+03</pdfrwt>
<pdfrwt beam="2">  1       -2 0.24369023E-01 0.75227029E+03</pdfrwt>
<totfact> 0.36535221E+01</totfact>
</mgrwt>
</event>
<event>
 4    5  0.1112901E-007  0.1286185E+04  0.7818608E-02  0.9077583E-01
         -2   -1    0    0    0  501 -0.00000000000E+00  0.00000000000E+00  0.63263993782E+03  0.63263993783E+03  0.25500000000E-02 0.  1.
          2   -1    0    0  501    0  0.00000000000E+00 -0.00000000000E+00 -0.48055168981E+04  0.48055168981E+04  0.25500000000E-02 0. -1.
    8880023    1    1    2    0    0  0.84998821601E+03  0.70567751160E+03 -0.18763521758E+03  0.12997991764E+04  0.65864270000E+03 0.  1.
    8880022    1    1    2    0    0 -0.84998821601E+03 -0.70567751160E+03 -0.39852417427E+04  0.41383576595E+04  0.15294330000E+03 0.  0.
<mgrwt>
<rscale>  0 0.12411481E+04</rscale>
<asrwt>0</asrwt>
<pdfrwt beam="1">  1        2 0.73931027E+00 0.12861846E+04</pdfrwt>
<pdfrwt beam="2">  1       -2 0.97329224E-01 0.12861846E+04</pdfrwt>
<totfact> 0.52990321E-02</totfact>
</mgrwt>
</event>
<event>
 4    5  0.1112901E-007  0.8491113E+03  0.7818608E-02  0.9613234E-01
          2   -1    0    0  501    0  0.00000000000E+00  0.00000000000E+00  0.14941118513E+04  0.14941118513E+04  0.25500000000E-02 0. -1.
         -2   -1    0    0    0  501 -0.00000000000E+00 -0.00000000000E+00 -0.77277065706E+03  0.77277065707E+03  0.25500000000E-02 0.  1.
    8880023    1    1    2    0    0 -0.49050176538E+03  0.21584205517E+03 -0.45636208522E+03  0.96397942598E+03  0.65864270000E+03 0.  1.
    8880022    1    1    2    0    0  0.49050176538E+03 -0.21584205517E+03  0.11777032794E+04  0.13029030823E+04  0.15294330000E+03 0.  0.
<mgrwt>
<rscale>  0 0.76426443E+03</rscale>
<asrwt>0</asrwt>
<pdfrwt beam="1">  1        2 0.22986336E+00 0.84911129E+03</pdfrwt>
<pdfrwt beam="2">  1       -2 0.11888779E+00 0.84911129E+03</pdfrwt>
<totfact> 0.70307626E+00</totfact>
</mgrwt>
</event>
<event>
 4    5  0.1112901E-007  0.7444952E+03  0.7818608E-02  0.9847041E-01
         -2   -1    0    0    0  501 -0.00000000000E+00  0.00000000000E+00  0.16183776083E+04  0.16183776083E+04  0.25500000000E-02 0.  1.
          2   -1    0    0  501    0  0.00000000000E+00 -0.00000000000E+00 -0.35901475758E+03  0.35901475759E+03  0.25500000000E-02 0. -1.
    8880023    1    1    2    0    0  0.33796636130E+03  0.79004294121E+02  0.13895188505E+04  0.15763996263E+04  0.65864270000E+03 0.  1.
    8880022    1    1    2    0    0 -0.33796636130E+03 -0.79004294121E+02 -0.13015599977E+03  0.40099273952E+03  0.15294330000E+03 0.  0.
<mgrwt>
<rscale>  0 0.62898010E+03</rscale>
<asrwt>0</asrwt>
<pdfrwt beam="1">  1        2 0.55233040E-01 0.74449523E+03</pdfrwt>
<pdfrwt beam="2">  1       -2 0.24898117E+00 0.74449523E+03</pdfrwt>
<totfact> 0.60216611E+00</totfact>
</mgrwt>
</event>
<event>
 4    5  0.1112901E-007  0.1586327E+04  0.7818608E-02  0.8850966E-01
          2   -1    0    0  501    0  0.00000000000E+00  0.00000000000E+00  0.38538487058E+04  0.38538487058E+04  0.25500000000E-02 0. -1.
         -2   -1    0    0    0  501 -0.00000000000E+00 -0.00000000000E+00 -0.68719698917E+03  0.68719698918E+03  0.25500000000E-02 0.  1.
    8880023    1    1    2    0    0 -0.27514906089E+03 -0.14166563785E+04  0.82981006288E+03  0.17902561959E+04  0.65864270000E+03 0.  0.
    8880022    1    1    2    0    0  0.27514906089E+03  0.14166563785E+04  0.23368416537E+04  0.27507894990E+04  0.15294330000E+03 0.  0.
<mgrwt>
<rscale>  0 0.15514120E+04</rscale>
<asrwt>0</asrwt>
<pdfrwt beam="1">  1        2 0.59289980E+00 0.15863267E+04</pdfrwt>
<pdfrwt beam="2">  1       -2 0.10572261E+00 0.15863267E+04</pdfrwt>
<totfact> 0.30868485E-01</totfact>
</mgrwt>
</event>
<event>
 4    5  0.1112901E-007  0.1188715E+04  0.7818608E-02  0.9168171E-01
          2   -1    0    0  501    0  0.00000000000E+00  0.00000000000E+00  0.75872076940E+03  0.75872076940E+03  0.25500000000E-02 0. -1.
         -2   -1    0    0    0  501 -0.00000000000E+00 -0.00000000000E+00 -0.16450075999E+04  0.16450075999E+04  0.25500000000E-02 0.  1.
    8880023    1    1    2    0    0 -0.64356050698E+03  0.75170609414E+03 -0.71698943152E+03  0.13882061192E+04  0.65864270000E+03 0.  0.
    8880022    1    1    2    0    0  0.64356050698E+03 -0.75170609414E+03 -0.16929739894E+03  0.10155222501E+04  0.15294330000E+03 0.  0.
<mgrwt>
<rscale>  0 0.11388078E+04</rscale>
<asrwt>0</asrwt>
<pdfrwt beam="1">  1        2 0.11672627E+00 0.11887146E+04</pdfrwt>
<pdfrwt beam="2">  1       -2 0.25307809E+00 0.11887146E+04</pdfrwt>
<totfact> 0.22237416E+00</totfact>
</mgrwt>
</event>
<event>
 4    5  0.1112901E-007  0.1187804E+04  0.7818608E-02  0.9169070E-01
         -2   -1    0    0    0  501 -0.00000000000E+00  0.00000000000E+00  0.69836345427E+03  0.69836345428E+03  0.25500000000E-02 0.  1.
          2   -1    0    0  501    0  0.00000000000E+00 -0.00000000000E+00 -0.21802213138E+04  0.21802213138E+04  0.25500000000E-02 0. -1.
    8880023    1    1    2    0    0 -0.49241178288E+03  0.85708668965E+03 -0.12708714902E+03  0.11945829009E+04  0.65864270000E+03 0.  0.
    8880022    1    1    2    0    0  0.49241178288E+03 -0.85708668965E+03 -0.13547707105E+04  0.16840018672E+04  0.15294330000E+03 0.  0.
<mgrwt>
<rscale>  0 0.11378456E+04</rscale>
<asrwt>0</asrwt>
<pdfrwt beam="1">  1        2 0.33541866E+00 0.11878035E+04</pdfrwt>
<pdfrwt beam="2">  1       -2 0.10744053E+00 0.11878035E+04</pdfrwt>
<totfact> 0.36127833E+00</totfact>
</mgrwt>
</event>
<event>
 4    5  0.1112901E-007  0.1074901E+04  0.7818608E-02  0.9289529E-01
          2   -1    0    0  501    0  0.00000000000E+00  0.00000000000E+00  0.41567416268E+04  0.41567416268E+04  0.25500000000E-02 0. -1.
         -2   -1    0    0    0  501 -0.00000000000E+00 -0.00000000000E+00 -0.52779520867E+03  0.52779520867E+03  0.25500000000E-02 0.  1.
    8880023    1    1    2    0    0  0.83707193356E+03 -0.14460867302E+03  0.13238938788E+03  0.10830227359E+04  0.65864270000E+03 0.  1.
    8880022    1    1    2    0    0 -0.83707193356E+03  0.14460867302E+03  0.34965570302E+04  0.36015140995E+04  0.15294330000E+03 0.  0.
<mgrwt>
<rscale>  0 0.10175253E+04</rscale>
<asrwt>0</asrwt>
<pdfrwt beam="1">  1        2 0.63949871E+00 0.10749006E+04</pdfrwt>
<pdfrwt beam="2">  1       -2 0.81199263E-01 0.10749006E+04</pdfrwt>
<totfact> 0.35349157E-01</totfact>
</mgrwt>
</event>
<event>
 4    5  0.1112901E-007  0.9402090E+03  0.7818608E-02  0.9464343E-01
         -2   -1    0    0    0  501 -0.00000000000E+00  0.00000000000E+00  0.41005465861E+03  0.41005465862E+03  0.25500000000E-02 0.  1.
          2   -1    0    0  501    0  0.00000000000E+00 -0.00000000000E+00 -0.28587308730E+04  0.28587308730E+04  0.25500000000E-02 0. -1.
    8880023    1    1    2    0    0 -0.32178318168E+03 -0.58875995880E+03 -0.26149263036E+03  0.97589513120E+03  0.65864270000E+03 0.  1.
    8880022    1    1    2    0    0  0.32178318168E+03  0.58875995880E+03 -0.21871835840E+04  0.22928904004E+04  0.15294330000E+03 0.  0.
<mgrwt>
<rscale>  0 0.86964462E+03</rscale>
<asrwt>0</asrwt>
<pdfrwt beam="1">  1        2 0.43980474E+00 0.94020897E+03</pdfrwt>
<pdfrwt beam="2">  1       -2 0.63085334E-01 0.94020897E+03</pdfrwt>
<totfact> 0.50962969E+00</totfact>
</mgrwt>
</event>
<event>
 4    5  0.1112901E-007  0.1101169E+04  0.7818608E-02  0.9259756E-01
          2   -1    0    0  501    0  0.00000000000E+00  0.00000000000E+00  0.30611216414E+04  0.30611216414E+04  0.25500000000E-02 0. -1.
         -2   -1    0    0    0  501 -0.00000000000E+00 -0.00000000000E+00 -0.22609029102E+04  0.22609029102E+04  0.25500000000E-02 0.  1.
    8880023    1    1    2    0    0 -0.49273822766E+03 -0.73210088872E+03  0.28660975648E+04  0.30703563522E+04  0.65864270000E+03 0. -1.
    8880022    1    1    2    0    0  0.49273822766E+03  0.73210088872E+03 -0.20658788335E+04  0.22516681994E+04  0.15294330000E+03 0.  0.
<mgrwt>
<rscale>  0 0.10457375E+04</rscale>
<asrwt>0</asrwt>
<pdfrwt beam="1">  1        2 0.47094179E+00 0.11011689E+04</pdfrwt>
<pdfrwt beam="2">  1       -2 0.34783122E+00 0.11011689E+04</pdfrwt>
<totfact> 0.25956046E-02</totfact>
</mgrwt>
</event>
<event>
 4    5  0.1112901E-007  0.1404866E+04  0.7818608E-02  0.8979911E-01
          2   -1    0    0  501    0  0.00000000000E+00  0.00000000000E+00  0.18700404010E+04  0.18700404010E+04  0.25500000000E-02 0. -1.
         -2   -1    0    0    0  501 -0.00000000000E+00 -0.00000000000E+00 -0.16295801747E+04  0.16295801747E+04  0.25500000000E-02 0.  1.
    8880023    1    1    2    0    0  0.12013221945E+04 -0.31090646150E+03 -0.10108339746E+04  0.17307320339E+04  0.65864270000E+03 0.  1.
    8880022    1    1    2    0    0 -0.12013221945E+04  0.31090646150E+03  0.12512942009E+04  0.17688885417E+04  0.15294330000E+03 0.  0.
<mgrwt>
<rscale>  0 0.13645171E+04</rscale>
<asrwt>0</asrwt>
<pdfrwt beam="1">  1        2 0.28769852E+00 0.14048658E+04</pdfrwt>
<pdfrwt beam="2">  1       -2 0.25070464E+00 0.14048658E+04</pdfrwt>
<totfact> 0.47584992E-01</totfact>
</mgrwt>
</event>
<event>
 4    5  0.1112901E-007  0.8469222E+03  0.7818608E-02  0.9617263E-01
          2   -1    0    0  501    0  0.00000000000E+00  0.00000000000E+00  0.19963503614E+04  0.19963503614E+04  0.25500000000E-02 0. -1.
         -2   -1    0    0    0  501 -0.00000000000E+00 -0.00000000000E+00 -0.44297112578E+03  0.44297112579E+03  0.25500000000E-02 0.  1.
    8880023    1    1    2    0    0 -0.29461508038E+03 -0.44347373408E+03  0.62927226116E+02  0.84925675767E+03  0.65864270000E+03 0.  0.
    8880022    1    1    2    0    0  0.29461508038E+03  0.44347373408E+03  0.14904520095E+04  0.15900647295E+04  0.15294330000E+03 0. -1.
<mgrwt>
<rscale>  0 0.76164033E+03</rscale>
<asrwt>0</asrwt>
<pdfrwt beam="1">  1        2 0.30713083E+00 0.84692220E+03</pdfrwt>
<pdfrwt beam="2">  1       -2 0.68149404E-01 0.84692220E+03</pdfrwt>
<totfact> 0.13509496E+01</totfact>
</mgrwt>
</event>
<event>
 4    5  0.1112901E-007  0.1341350E+04  0.7818608E-02  0.9030650E-01
          2   -1    0    0  501    0  0.00000000000E+00  0.00000000000E+00  0.26214501416E+04  0.26214501416E+04  0.25500000000E-02 0. -1.
         -2   -1    0    0    0  501 -0.00000000000E+00 -0.00000000000E+00 -0.68380353126E+03  0.68380353127E+03  0.25500000000E-02 0.  1.
    8880023    1    1    2    0    0  0.84474266509E+03  0.80735332429E+03  0.46619429627E+03  0.14200552414E+04  0.65864270000E+03 0.  1.
    8880022    1    1    2    0    0 -0.84474266509E+03 -0.80735332429E+03  0.14714523140E+04  0.18851984315E+04  0.15294330000E+03 0.  0.
<mgrwt>
<rscale>  0 0.12986335E+04</rscale>
<asrwt>0</asrwt>
<pdfrwt beam="1">  1        2 0.40330001E+00 0.13413500E+04</pdfrwt>
<pdfrwt beam="2">  1       -2 0.10520055E+00 0.13413500E+04</pdfrwt>
<totfact> 0.20948541E+00</totfact>
</mgrwt>
</event>
<event>
 4    5  0.1112901E-007  0.8201671E+03  0.7818608E-02  0.9668776E-01
         -2   -1    0    0    0  501 -0.00000000000E+00  0.00000000000E+00  0.16315496475E+04  0.16315496475E+04  0.25500000000E-02 0.  1.
          2   -1    0    0  501    0  0.00000000000E+00 -0.00000000000E+00 -0.67866374438E+03  0.67866374438E+03  0.25500000000E-02 0. -1.
    8880023    1    1    2    0    0 -0.39516548130E+03 -0.28759009153E+03  0.14051431901E+04  0.16269915210E+04  0.65864270000E+03 0.  1.
    8880022    1    1    2    0    0  0.39516548130E+03  0.28759009153E+03 -0.45225728694E+03  0.68322187096E+03  0.15294330000E+03 0.  0.
<mgrwt>
<rscale>  0 0.72906679E+03</rscale>
<asrwt>0</asrwt>
<pdfrwt beam="1">  1        2 0.10440981E+00 0.82016707E+03</pdfrwt>
<pdfrwt beam="2">  1       -2 0.25100764E+00 0.82016707E+03</pdfrwt>
<totfact> 0.27547475E+00</totfact>
</mgrwt>
</event>
<event>
 4    5  0.1112901E-007  0.1305021E+04  0.7818608E-02  0.9061236E-01
         -2   -1    0    0    0  501 -0.00000000000E+00  0.00000000000E+00  0.10813740121E+04  0.10813740121E+04  0.25500000000E-02 0.  1.
          2   -1    0    0  501    0  0.00000000000E+00 -0.00000000000E+00 -0.14573334882E+04  0.14573334882E+04  0.25500000000E-02 0. -1.
    8880023    1    1    2    0    0  0.11228424862E+04  0.92162513529E+02  0.94115737456E+02  0.13084101635E+04  0.65864270000E+03 0.  0.
    8880022    1    1    2    0    0 -0.11228424862E+04 -0.92162513529E+02 -0.47007521352E+03  0.12302973368E+04  0.15294330000E+03 0.  0.
<mgrwt>
<rscale>  0 0.12608071E+04</rscale>
<asrwt>0</asrwt>
<pdfrwt beam="1">  1        2 0.22420515E+00 0.13050208E+04</pdfrwt>
<pdfrwt beam="2">  1       -2 0.16636523E+00 0.13050208E+04</pdfrwt>
<totfact> 0.29201636E+00</totfact>
</mgrwt>
</event>
<event>
 4    5  0.1112901E-007  0.7442159E+03  0.7818608E-02  0.9847832E-01
          2   -1    0    0  501    0  0.00000000000E+00  0.00000000000E+00  0.27710946610E+04  0.27710946610E+04  0.25500000000E-02 0. -1.
         -2   -1    0    0    0  501 -0.00000000000E+00 -0.00000000000E+00 -0.52083963692E+03  0.52083963693E+03  0.25500000000E-02 0.  1.
    8880023    1    1    2    0    0 -0.12333209683E+03  0.32378429832E+03 -0.23309846243E+03  0.77986676900E+03  0.65864270000E+03 0.  1.
    8880022    1    1    2    0    0  0.12333209683E+03 -0.32378429832E+03  0.24833534865E+04  0.25120675289E+04  0.15294330000E+03 0.  0.
<mgrwt>
<rscale>  0 0.62857558E+03</rscale>
<asrwt>0</asrwt>
<pdfrwt beam="1">  1        2 0.42632224E+00 0.74421589E+03</pdfrwt>
<pdfrwt beam="2">  1       -2 0.80129177E-01 0.74421589E+03</pdfrwt>
<totfact> 0.35147254E+00</totfact>
</mgrwt>
</event>
<event>
 4    5  0.1112901E-007  0.6711049E+03  0.7818608E-02  0.1014883E+00
          2   -1    0    0  501    0  0.00000000000E+00  0.00000000000E+00  0.31664489071E+04  0.31664489071E+04  0.25500000000E-02 0. -1.
         -2   -1    0    0    0  501 -0.00000000000E+00 -0.00000000000E+00 -0.22642523669E+03  0.22642523671E+03  0.25500000000E-02 0.  1.
    8880023    1    1    2    0    0 -0.66077538958E+02 -0.11047758069E+03  0.28298920773E+03  0.72833003161E+03  0.65864270000E+03 0.  1.
    8880022    1    1    2    0    0  0.66077538958E+02  0.11047758069E+03  0.26570344627E+04  0.26645441122E+04  0.15294330000E+03 0.  0.
<mgrwt>
<rscale>  0 0.49579291E+03</rscale>
<asrwt>0</asrwt>
<pdfrwt beam="1">  1        2 0.48714603E+00 0.67110487E+03</pdfrwt>
<pdfrwt beam="2">  1       -2 0.34834649E-01 0.67110487E+03</pdfrwt>
<totfact> 0.11427082E+01</totfact>
</mgrwt>
</event>
<event>
 4    5  0.1112901E-007  0.7156243E+03  0.7818608E-02  0.9937680E-01
          2   -1    0    0  501    0  0.00000000000E+00  0.00000000000E+00  0.30102328494E+04  0.30102328494E+04  0.25500000000E-02 0. -1.
         -2   -1    0    0    0  501 -0.00000000000E+00 -0.00000000000E+00 -0.11101236480E+03  0.11101236483E+03  0.25500000000E-02 0.  1.
    8880023    1    1    2    0    0 -0.17846234587E+03  0.21554364862E+03  0.12402397057E+04  0.14318912693E+04  0.65864270000E+03 0.  0.
    8880022    1    1    2    0    0  0.17846234587E+03 -0.21554364862E+03  0.16589807790E+04  0.16893539450E+04  0.15294330000E+03 0.  0.
<mgrwt>
<rscale>  0 0.58469403E+03</rscale>
<asrwt>0</asrwt>
<pdfrwt beam="1">  1        2 0.46311278E+00 0.71562426E+03</pdfrwt>
<pdfrwt beam="2">  1       -2 0.17078824E-01 0.71562426E+03</pdfrwt>
<totfact> 0.51115107E+01</totfact>
</mgrwt>
</event>
<event>
 4    5  0.1112901E-007  0.7645622E+03  0.7818608E-02  0.9793436E-01
         -2   -1    0    0    0  501 -0.00000000000E+00  0.00000000000E+00  0.34169297776E+03  0.34169297777E+03  0.25500000000E-02 0.  1.
          2   -1    0    0  501    0  0.00000000000E+00 -0.00000000000E+00 -0.30010244631E+04  0.30010244631E+04  0.25500000000E-02 0. -1.
    8880023    1    1    2    0    0  0.57088918594E+01 -0.38821721357E+03 -0.12554904891E+03  0.77480188842E+03  0.65864270000E+03 0.  0.
    8880022    1    1    2    0    0 -0.57088918594E+01  0.38821721357E+03 -0.25337824364E+04  0.25679155525E+04  0.15294330000E+03 0.  0.
<mgrwt>
<rscale>  0 0.65715976E+03</rscale>
<asrwt>0</asrwt>
<pdfrwt beam="1">  1        2 0.46169605E+00 0.76456223E+03</pdfrwt>
<pdfrwt beam="2">  1       -2 0.52568153E-01 0.76456223E+03</pdfrwt>
<totfact> 0.63067583E+00</totfact>
</mgrwt>
</event>
<event>
 4    5  0.1112901E-007  0.9457459E+03  0.7818608E-02  0.9456261E-01
          2   -1    0    0  501    0  0.00000000000E+00  0.00000000000E+00  0.22910461042E+04  0.22910461042E+04  0.25500000000E-02 0. -1.
         -2   -1    0    0    0  501 -0.00000000000E+00 -0.00000000000E+00 -0.91503844239E+03  0.91503844239E+03  0.25500000000E-02 0.  1.
    8880023    1    1    2    0    0 -0.53344552195E+03 -0.41959615381E+03 -0.59401764267E+03  0.11168223777E+04  0.65864270000E+03 0.  0.
    8880022    1    1    2    0    0  0.53344552195E+03  0.41959615381E+03  0.19700253045E+04  0.20892621690E+04  0.15294330000E+03 0.  0.
<mgrwt>
<rscale>  0 0.87586745E+03</rscale>
<asrwt>0</asrwt>
<pdfrwt beam="1">  1        2 0.35246863E+00 0.94574588E+03</pdfrwt>
<pdfrwt beam="2">  1       -2 0.14077515E+00 0.94574588E+03</pdfrwt>
<totfact> 0.16410119E+00</totfact>
</mgrwt>
</event>
<event>
 4    5  0.1112901E-007  0.1045305E+04  0.7818608E-02  0.9324547E-01
         -2   -1    0    0    0  501 -0.00000000000E+00  0.00000000000E+00  0.47983821379E+03  0.47983821379E+03  0.25500000000E-02 0.  1.
          2   -1    0    0  501    0  0.00000000000E+00 -0.00000000000E+00 -0.27308742349E+04  0.27308742349E+04  0.25500000000E-02 0. -1.
    8880023    1    1    2    0    0  0.21031686416E+03  0.78397668488E+03 -0.29300578650E+03  0.10855944100E+04  0.65864270000E+03 0.  0.
    8880022    1    1    2    0    0 -0.21031686416E+03 -0.78397668488E+03 -0.19580302346E+04  0.21251180387E+04  0.15294330000E+03 0.  0.
<mgrwt>
<rscale>  0 0.98554124E+03</rscale>
<asrwt>0</asrwt>
<pdfrwt beam="1">  1        2 0.42013449E+00 0.10453051E+04</pdfrwt>
<pdfrwt beam="2">  1       -2 0.73821265E-01 0.10453051E+04</pdfrwt>
<totfact> 0.42478958E+00</totfact>
</mgrwt>
</event>
<event>
 4    5  0.1112901E-007  0.1020226E+04  0.7818608E-02  0.9355561E-01
          2   -1    0    0  501    0  0.00000000000E+00  0.00000000000E+00  0.24724461900E+04  0.24724461900E+04  0.25500000000E-02 0. -1.
         -2   -1    0    0    0  501 -0.00000000000E+00 -0.00000000000E+00 -0.67022039571E+03  0.67022039571E+03  0.25500000000E-02 0.  1.
    8880023    1    1    2    0    0  0.50336832200E+03  0.59470328069E+03 -0.15368367100E+03  0.10317366605E+04  0.65864270000E+03 0.  1.
    8880022    1    1    2    0    0 -0.50336832200E+03 -0.59470328069E+03  0.19559094653E+04  0.21109299252E+04  0.15294330000E+03 0.  0.
<mgrwt>
<rscale>  0 0.95824854E+03</rscale>
<asrwt>0</asrwt>
<pdfrwt beam="1">  1        2 0.38037633E+00 0.10202264E+04</pdfrwt>
<pdfrwt beam="2">  1       -2 0.10311083E+00 0.10202264E+04</pdfrwt>
<totfact> 0.27867208E+00</totfact>
</mgrwt>
</event>
<event>
 4    5  0.1112901E-007  0.7584069E+03  0.7818608E-02  0.9809249E-01
          2   -1    0    0  501    0  0.00000000000E+00  0.00000000000E+00  0.21945173583E+04  0.21945173583E+04  0.25500000000E-02 0. -1.
         -2   -1    0    0    0  501 -0.00000000000E+00 -0.00000000000E+00 -0.21974455682E+03  0.21974455684E+03  0.25500000000E-02 0.  1.
    8880023    1    1    2    0    0 -0.36512409232E+03 -0.89751051600E+02  0.56092859418E+03  0.94330374116E+03  0.65864270000E+03 0.  1.
    8880022    1    1    2    0    0  0.36512409232E+03  0.89751051600E+02  0.14138442073E+04  0.14709581739E+04  0.15294330000E+03 0.  0.
<mgrwt>
<rscale>  0 0.64868524E+03</rscale>
<asrwt>0</asrwt>
<pdfrwt beam="1">  1        2 0.33761807E+00 0.75840692E+03</pdfrwt>
<pdfrwt beam="2">  1       -2 0.33806854E-01 0.75840692E+03</pdfrwt>
<totfact> 0.43985277E+01</totfact>
</mgrwt>
</event>
<event>
 4    5  0.1112901E-007  0.6588688E+03  0.7818608E-02  0.1025347E+00
         -2   -1    0    0    0  501 -0.00000000000E+00  0.00000000000E+00  0.57372284955E+03  0.57372284956E+03  0.25500000000E-02 0.  1.
          2   -1    0    0  501    0  0.00000000000E+00 -0.00000000000E+00 -0.22530820788E+04  0.22530820788E+04  0.25500000000E-02 0. -1.
    8880023    1    1    2    0    0 -0.14539336574E+02 -0.92981253712E+01  0.38073796318E+03  0.76096612954E+03  0.65864270000E+03 0.  1.
    8880022    1    1    2    0    0  0.14539336574E+02  0.92981253712E+01 -0.20600971924E+04  0.20658387988E+04  0.15294330000E+03 0.  0.
<mgrwt>
<rscale>  0 0.45805611E+03</rscale>
<asrwt>0</asrwt>
<pdfrwt beam="1">  1        2 0.34662801E+00 0.65886877E+03</pdfrwt>
<pdfrwt beam="2">  1       -2 0.88265055E-01 0.65886877E+03</pdfrwt>
<totfact> 0.56474161E+00</totfact>
</mgrwt>
</event>
<event>
 4    5  0.1112901E-007  0.8342108E+03  0.7818608E-02  0.9641194E-01
          2   -1    0    0  501    0  0.00000000000E+00  0.00000000000E+00  0.12393408802E+04  0.12393408802E+04  0.25500000000E-02 0. -1.
         -2   -1    0    0    0  501 -0.00000000000E+00 -0.00000000000E+00 -0.98421070192E+03  0.98421070193E+03  0.25500000000E-02 0.  1.
    8880023    1    1    2    0    0 -0.44311639774E+03  0.25640853795E+03 -0.72631222373E+03  0.11060909243E+04  0.65864270000E+03 0.  0.
    8880022    1    1    2    0    0  0.44311639774E+03 -0.25640853795E+03  0.98144240199E+03  0.11174606578E+04  0.15294330000E+03 0.  0.
<mgrwt>
<rscale>  0 0.74628646E+03</rscale>
<asrwt>0</asrwt>
<pdfrwt beam="1">  1        2 0.19066783E+00 0.83421082E+03</pdfrwt>
<pdfrwt beam="2">  1       -2 0.15141703E+00 0.83421082E+03</pdfrwt>
<totfact> 0.52997901E+00</totfact>
</mgrwt>
</event>
<event>
 4    5  0.1112901E-007  0.6854765E+03  0.7818608E-02  0.1006381E+00
          2   -1    0    0  501    0  0.00000000000E+00  0.00000000000E+00  0.54172543673E+03  0.54172543674E+03  0.25500000000E-02 0. -1.
         -2   -1    0    0    0  501 -0.00000000000E+00 -0.00000000000E+00 -0.55514068678E+03  0.55514068678E+03  0.25500000000E-02 0.  1.
    8880023    1    1    2    0    0  0.49294528470E+02  0.18340645628E+03  0.25761668579E+03  0.73228713071E+03  0.65864270000E+03 0. -1.
    8880022    1    1    2    0    0 -0.49294528470E+02 -0.18340645628E+03 -0.27103193584E+03  0.36457899281E+03  0.15294330000E+03 0.  0.
<mgrwt>
<rscale>  0 0.52938561E+03</rscale>
<asrwt>0</asrwt>
<pdfrwt beam="1">  1        2 0.83342375E-01 0.68547654E+03</pdfrwt>
<pdfrwt beam="2">  1       -2 0.85406259E-01 0.68547654E+03</pdfrwt>
<totfact> 0.67868762E+01</totfact>
</mgrwt>
</event>
<event>
 4    5  0.1112901E-007  0.1138796E+04  0.7818608E-02  0.9219043E-01
          2   -1    0    0  501    0  0.00000000000E+00  0.00000000000E+00  0.12769162499E+04  0.12769162499E+04  0.25500000000E-02 0. -1.
         -2   -1    0    0    0  501 -0.00000000000E+00 -0.00000000000E+00 -0.88614104151E+03  0.88614104152E+03  0.25500000000E-02 0.  1.
    8880023    1    1    2    0    0 -0.87471181692E+03 -0.31293015733E+03 -0.12381931393E+02  0.11388632774E+04  0.65864270000E+03 0.  0.
    8880022    1    1    2    0    0  0.87471181692E+03  0.31293015733E+03  0.40315713976E+03  0.10241940140E+04  0.15294330000E+03 0.  0.
<mgrwt>
<rscale>  0 0.10859016E+04</rscale>
<asrwt>0</asrwt>
<pdfrwt beam="1">  1        2 0.19644865E+00 0.11387960E+04</pdfrwt>
<pdfrwt beam="2">  1       -2 0.13632939E+00 0.11387960E+04</pdfrwt>
<totfact> 0.64235572E+00</totfact>
</mgrwt>
</event>
<event>
 4    5  0.1112901E-007  0.6741120E+03  0.7818608E-02  0.1012872E+00
          2   -1    0    0  501    0  0.00000000000E+00  0.00000000000E+00  0.20299771800E+04  0.20299771800E+04  0.25500000000E-02 0. -1.
         -2   -1    0    0    0  501 -0.00000000000E+00 -0.00000000000E+00 -0.12612847735E+03  0.12612847737E+03  0.25500000000E-02 0.  1.
    8880023    1    1    2    0    0 -0.13499872831E+03  0.48909050901E+02  0.86692392441E+03  0.10981730505E+04  0.65864270000E+03 0.  0.
    8880022    1    1    2    0    0  0.13499872831E+03 -0.48909050901E+02  0.10369247782E+04  0.10579326068E+04  0.15294330000E+03 0.  0.
<mgrwt>
<rscale>  0 0.50349016E+03</rscale>
<asrwt>0</asrwt>
<pdfrwt beam="1">  1        2 0.31230418E+00 0.67411198E+03</pdfrwt>
<pdfrwt beam="2">  1       -2 0.19404382E-01 0.67411198E+03</pdfrwt>
<totfact> 0.14949247E+02</totfact>
</mgrwt>
</event>
<event>
 4    5  0.1112901E-007  0.7766008E+03  0.7818608E-02  0.9763883E-01
          2   -1    0    0  501    0  0.00000000000E+00  0.00000000000E+00  0.94840344772E+03  0.94840344772E+03  0.25500000000E-02 0. -1.
         -2   -1    0    0    0  501 -0.00000000000E+00 -0.00000000000E+00 -0.59302497356E+03  0.59302497356E+03  0.25500000000E-02 0.  1.
    8880023    1    1    2    0    0  0.31453934645E+03  0.26526130062E+03 -0.22981824465E+03  0.80989208535E+03  0.65864270000E+03 0.  1.
    8880022    1    1    2    0    0 -0.31453934645E+03 -0.26526130062E+03  0.58519671882E+03  0.73153633594E+03  0.15294330000E+03 0.  0.
<mgrwt>
<rscale>  0 0.67337319E+03</rscale>
<asrwt>0</asrwt>
<pdfrwt beam="1">  1        2 0.14590822E+00 0.77660078E+03</pdfrwt>
<pdfrwt beam="2">  1       -2 0.91234612E-01 0.77660078E+03</pdfrwt>
<totfact> 0.28234482E+01</totfact>
</mgrwt>
</event>
<event>
 4    5  0.1112901E-007  0.1025750E+04  0.7818608E-02  0.9348618E-01
          2   -1    0    0  501    0  0.00000000000E+00  0.00000000000E+00  0.44200764403E+04  0.44200764403E+04  0.25500000000E-02 0. -1.
         -2   -1    0    0    0  501 -0.00000000000E+00 -0.00000000000E+00 -0.96309433398E+03  0.96309433398E+03  0.25500000000E-02 0.  1.
    8880023    1    1    2    0    0 -0.77072106245E+03  0.15601906228E+03 -0.63971545238E+03  0.12088833567E+04  0.65864270000E+03 0.  0.
    8880022    1    1    2    0    0  0.77072106245E+03 -0.15601906228E+03  0.40966975587E+04  0.41742874175E+04  0.15294330000E+03 0.  0.
<mgrwt>
<rscale>  0 0.96427615E+03</rscale>
<asrwt>0</asrwt>
<pdfrwt beam="1">  1        2 0.68001175E+00 0.10257500E+04</pdfrwt>
<pdfrwt beam="2">  1       -2 0.14816836E+00 0.10257500E+04</pdfrwt>
<totfact> 0.48184745E-02</totfact>
</mgrwt>
</event>
<event>
 4    5  0.1112901E-007  0.8796391E+03  0.7818608E-02  0.9559541E-01
         -2   -1    0    0    0  501 -0.00000000000E+00  0.00000000000E+00  0.12701694044E+04  0.12701694044E+04  0.25500000000E-02 0.  1.
          2   -1    0    0  501    0  0.00000000000E+00 -0.00000000000E+00 -0.68162800104E+03  0.68162800105E+03  0.25500000000E-02 0. -1.
    8880023    1    1    2    0    0 -0.31613295500E+03 -0.48991299517E+03  0.91252462257E+03  0.12674644694E+04  0.65864270000E+03 0.  0.
    8880022    1    1    2    0    0  0.31613295500E+03  0.48991299517E+03 -0.32398321920E+03  0.68433293609E+03  0.15294330000E+03 0.  0.
<mgrwt>
<rscale>  0 0.80032893E+03</rscale>
<asrwt>0</asrwt>
<pdfrwt beam="1">  1        2 0.10486585E+00 0.87963913E+03</pdfrwt>
<pdfrwt beam="2">  1       -2 0.19541067E+00 0.87963913E+03</pdfrwt>
<totfact> 0.60744409E+00</totfact>
</mgrwt>
</event>
<event>
 4    5  0.1112901E-007  0.8309097E+03  0.7818608E-02  0.9647565E-01
          2   -1    0    0  501    0  0.00000000000E+00  0.00000000000E+00  0.18078071674E+04  0.18078071674E+04  0.25500000000E-02 0. -1.
         -2   -1    0    0    0  501 -0.00000000000E+00 -0.00000000000E+00 -0.64401800908E+03  0.64401800909E+03  0.25500000000E-02 0.  1.
    8880023    1    1    2    0    0 -0.46980596472E+03 -0.18942816233E+03 -0.30927880680E+03  0.88660265044E+03  0.65864270000E+03 0.  1.
    8880022    1    1    2    0    0  0.46980596472E+03  0.18942816233E+03  0.14730679651E+04  0.15652225260E+04  0.15294330000E+03 0.  0.
<mgrwt>
<rscale>  0 0.74226439E+03</rscale>
<asrwt>0</asrwt>
<pdfrwt beam="1">  1        2 0.27812418E+00 0.83090967E+03</pdfrwt>
<pdfrwt beam="2">  1       -2 0.99079693E-01 0.83090967E+03</pdfrwt>
<totfact> 0.73520355E+00</totfact>
</mgrwt>
</event>
<event>
 4    5  0.1112901E-007  0.1008515E+04  0.7818608E-02  0.9370501E-01
         -2   -1    0    0    0  501 -0.00000000000E+00  0.00000000000E+00  0.55161747147E+03  0.55161747148E+03  0.25500000000E-02 0.  1.
          2   -1    0    0  501    0  0.00000000000E+00 -0.00000000000E+00 -0.19574270216E+04  0.19574270216E+04  0.25500000000E-02 0. -1.
    8880023    1    1    2    0    0  0.53088291700E+03 -0.54905052910E+03 -0.14058084857E+04  0.17301447511E+04  0.65864270000E+03 0.  0.
    8880022    1    1    2    0    0 -0.53088291700E+03  0.54905052910E+03 -0.10644577297E-02  0.77889974200E+03  0.15294330000E+03 0.  0.
<mgrwt>
<rscale>  0 0.94543636E+03</rscale>
<asrwt>0</asrwt>
<pdfrwt beam="1">  1        2 0.30114262E+00 0.10085154E+04</pdfrwt>
<pdfrwt beam="2">  1       -2 0.84864227E-01 0.10085154E+04</pdfrwt>
<totfact> 0.85344107E+00</totfact>
</mgrwt>
</event>
<event>
 4    5  0.1112901E-007  0.8997855E+03  0.7818608E-02  0.9526376E-01
          2   -1    0    0  501    0  0.00000000000E+00  0.00000000000E+00  0.12979692850E+04  0.12979692850E+04  0.25500000000E-02 0. -1.
         -2   -1    0    0    0  501 -0.00000000000E+00 -0.00000000000E+00 -0.18594275197E+04  0.18594275197E+04  0.25500000000E-02 0.  1.
    8880023    1    1    2    0    0  0.59120194337E+03 -0.16212357957E+03 -0.16611127034E+04  0.18891557407E+04  0.65864270000E+03 0.  1.
    8880022    1    1    2    0    0 -0.59120194337E+03  0.16212357957E+03  0.10996544687E+04  0.12682410640E+04  0.15294330000E+03 0.  0.
<mgrwt>
<rscale>  0 0.82366849E+03</rscale>
<asrwt>0</asrwt>
<pdfrwt beam="1">  1        2 0.19968758E+00 0.89978553E+03</pdfrwt>
<pdfrwt beam="2">  1       -2 0.28606577E+00 0.89978553E+03</pdfrwt>
<totfact> 0.65285404E-01</totfact>
</mgrwt>
</event>
<event>
 4    5  0.1112901E-007  0.9370792E+03  0.7818608E-02  0.9468953E-01
          2   -1    0    0  501    0  0.00000000000E+00  0.00000000000E+00  0.23210021017E+04  0.23210021017E+04  0.25500000000E-02 0. -1.
         -2   -1    0    0    0  501 -0.00000000000E+00 -0.00000000000E+00 -0.53967551509E+03  0.53967551510E+03  0.25500000000E-02 0.  1.
    8880023    1    1    2    0    0 -0.30741842099E+03 -0.59143989170E+03 -0.16443418163E+02  0.93722346499E+03  0.65864270000E+03 0.  0.
    8880022    1    1    2    0    0  0.30741842099E+03  0.59143989170E+03  0.17977700048E+04  0.19234541518E+04  0.15294330000E+03 0.  0.
<mgrwt>
<rscale>  0 0.86611990E+03</rscale>
<asrwt>0</asrwt>
<pdfrwt beam="1">  1        2 0.35707725E+00 0.93707921E+03</pdfrwt>
<pdfrwt beam="2">  1       -2 0.83027002E-01 0.93707921E+03</pdfrwt>
<totfact> 0.56907455E+00</totfact>
</mgrwt>
</event>
<event>
 4    5  0.1112901E-007  0.6768821E+03  0.7818608E-02  0.1011145E+00
         -2   -1    0    0    0  501 -0.00000000000E+00  0.00000000000E+00  0.34523014113E+03  0.34523014114E+03  0.25500000000E-02 0.  1.
          2   -1    0    0  501    0  0.00000000000E+00 -0.00000000000E+00 -0.87264937404E+03  0.87264937404E+03  0.25500000000E-02 0. -1.
    8880023    1    1    2    0    0 -0.15592258262E+03  0.68800901633E+01 -0.33419302039E+02  0.67770660571E+03  0.65864270000E+03 0.  1.
    8880022    1    1    2    0    0  0.15592258262E+03 -0.68800901633E+01 -0.49399993087E+03  0.54017290947E+03  0.15294330000E+03 0.  0.
<mgrwt>
<rscale>  0 0.51021991E+03</rscale>
<asrwt>0</asrwt>
<pdfrwt beam="1">  1        2 0.13425375E+00 0.67688211E+03</pdfrwt>
<pdfrwt beam="2">  1       -2 0.53112330E-01 0.67688211E+03</pdfrwt>
<totfact> 0.10415028E+02</totfact>
</mgrwt>
</event>
<event>
 4    5  0.1112901E-007  0.6727183E+03  0.7818608E-02  0.1013785E+00
         -2   -1    0    0    0  501 -0.00000000000E+00  0.00000000000E+00  0.38498200910E+03  0.38498200911E+03  0.25500000000E-02 0.  1.
          2   -1    0    0  501    0  0.00000000000E+00 -0.00000000000E+00 -0.67143382249E+03  0.67143382249E+03  0.25500000000E-02 0. -1.
    8880023    1    1    2    0    0 -0.12824929431E+03  0.47872671957E+02  0.36552768323E+02  0.67371060950E+03  0.65864270000E+03 0.  0.
    8880022    1    1    2    0    0  0.12824929431E+03 -0.47872671957E+02 -0.32300458171E+03  0.38270522211E+03  0.15294330000E+03 0.  0.
<mgrwt>
<rscale>  0 0.49997762E+03</rscale>
<asrwt>0</asrwt>
<pdfrwt beam="1">  1        2 0.10329751E+00 0.67271828E+03</pdfrwt>
<pdfrwt beam="2">  1       -2 0.59228001E-01 0.67271828E+03</pdfrwt>
<totfact> 0.11679577E+02</totfact>
</mgrwt>
</event>
<event>
 4    5  0.1112901E-007  0.6995134E+03  0.7818608E-02  0.9999226E-01
         -2   -1    0    0    0  501 -0.00000000000E+00  0.00000000000E+00  0.11127536681E+04  0.11127536681E+04  0.25500000000E-02 0.  1.
          2   -1    0    0  501    0  0.00000000000E+00 -0.00000000000E+00 -0.11854603526E+04  0.11854603526E+04  0.25500000000E-02 0. -1.
    8880023    1    1    2    0    0 -0.51160339515E+02  0.22998147757E+03  0.98260241136E+03  0.12061619151E+04  0.65864270000E+03 0.  0.
    8880022    1    1    2    0    0  0.51160339515E+02 -0.22998147757E+03 -0.10553090959E+04  0.10920521056E+04  0.15294330000E+03 0. -1.
<mgrwt>
<rscale>  0 0.55684206E+03</rscale>
<asrwt>0</asrwt>
<pdfrwt beam="1">  1        2 0.18237851E+00 0.69951345E+03</pdfrwt>
<pdfrwt beam="2">  1       -2 0.17119287E+00 0.69951345E+03</pdfrwt>
<totfact> 0.41639231E+00</totfact>
</mgrwt>
</event>
<event>
 4    5  0.1112901E-007  0.9137126E+03  0.7818608E-02  0.9504368E-01
         -2   -1    0    0    0  501 -0.00000000000E+00  0.00000000000E+00  0.13833291423E+04  0.13833291423E+04  0.25500000000E-02 0.  1.
          2   -1    0    0  501    0  0.00000000000E+00 -0.00000000000E+00 -0.11331382262E+04  0.11331382262E+04  0.25500000000E-02 0. -1.
    8880023    1    1    2    0    0  0.56321244347E+03 -0.28957247577E+03  0.11100068549E+04  0.14377016030E+04  0.65864270000E+03 0.  1.
    8880022    1    1    2    0    0 -0.56321244347E+03  0.28957247577E+03 -0.85981593875E+03  0.10787657655E+04  0.15294330000E+03 0.  0.
<mgrwt>
<rscale>  0 0.83962583E+03</rscale>
<asrwt>0</asrwt>
<pdfrwt beam="1">  1        2 0.17432896E+00 0.91371258E+03</pdfrwt>
<pdfrwt beam="2">  1       -2 0.21281987E+00 0.91371258E+03</pdfrwt>
<totfact> 0.22919737E+00</totfact>
</mgrwt>
</event>
<event>
 4    5  0.1112901E-007  0.8430113E+03  0.7818608E-02  0.9624528E-01
         -2   -1    0    0    0  501 -0.00000000000E+00  0.00000000000E+00  0.47080750555E+03  0.47080750556E+03  0.25500000000E-02 0.  1.
          2   -1    0    0  501    0  0.00000000000E+00 -0.00000000000E+00 -0.27368712089E+04  0.27368712089E+04  0.25500000000E-02 0. -1.
    8880023    1    1    2    0    0 -0.22208078723E+02  0.52570392806E+03  0.33554961488E+02  0.84367882541E+03  0.65864270000E+03 0.  0.
    8880022    1    1    2    0    0  0.22208078723E+02 -0.52570392806E+03 -0.22996186648E+04  0.23639998890E+04  0.15294330000E+03 0.  0.
<mgrwt>
<rscale>  0 0.75693802E+03</rscale>
<asrwt>0</asrwt>
<pdfrwt beam="1">  1        2 0.42105710E+00 0.84301128E+03</pdfrwt>
<pdfrwt beam="2">  1       -2 0.72431926E-01 0.84301128E+03</pdfrwt>
<totfact> 0.45280839E+00</totfact>
</mgrwt>
</event>
<event>
 4    5  0.1112901E-007  0.8099751E+03  0.7818608E-02  0.9689629E-01
          2   -1    0    0  501    0  0.00000000000E+00  0.00000000000E+00  0.16284401641E+04  0.16284401641E+04  0.25500000000E-02 0. -1.
         -2   -1    0    0    0  501 -0.00000000000E+00 -0.00000000000E+00 -0.29858994103E+03  0.29858994104E+03  0.25500000000E-02 0.  1.
    8880023    1    1    2    0    0  0.43275353910E+03 -0.18701302389E+03  0.47523724591E+03  0.93910070965E+03  0.65864270000E+03 0.  0.
    8880022    1    1    2    0    0 -0.43275353910E+03  0.18701302389E+03  0.85461297715E+03  0.98792939547E+03  0.15294330000E+03 0.  0.
<mgrwt>
<rscale>  0 0.71637662E+03</rscale>
<asrwt>0</asrwt>
<pdfrwt beam="1">  1        2 0.25052925E+00 0.80997512E+03</pdfrwt>
<pdfrwt beam="2">  1       -2 0.45936915E-01 0.80997512E+03</pdfrwt>
<totfact> 0.49143594E+01</totfact>
</mgrwt>
</event>
<event>
 4    5  0.1112901E-007  0.8816256E+03  0.7818608E-02  0.9556197E-01
          2   -1    0    0  501    0  0.00000000000E+00  0.00000000000E+00  0.28258746231E+04  0.28258746231E+04  0.25500000000E-02 0. -1.
         -2   -1    0    0    0  501 -0.00000000000E+00 -0.00000000000E+00 -0.31965973270E+03  0.31965973271E+03  0.25500000000E-02 0.  1.
    8880023    1    1    2    0    0 -0.56761802288E+03  0.14581925298E+03  0.42640843622E+03  0.97933029932E+03  0.65864270000E+03 0.  0.
    8880022    1    1    2    0    0  0.56761802288E+03 -0.14581925298E+03  0.20798064542E+04  0.21662040565E+04  0.15294330000E+03 0.  0.
<mgrwt>
<rscale>  0 0.80264496E+03</rscale>
<asrwt>0</asrwt>
<pdfrwt beam="1">  1        2 0.43474994E+00 0.88162559E+03</pdfrwt>
<pdfrwt beam="2">  1       -2 0.49178420E-01 0.88162559E+03</pdfrwt>
<totfact> 0.90436215E+00</totfact>
</mgrwt>
</event>
<event>
 4    5  0.1112901E-007  0.9930079E+03  0.7818608E-02  0.9390763E-01
          2   -1    0    0  501    0  0.00000000000E+00  0.00000000000E+00  0.27291163397E+04  0.27291163397E+04  0.25500000000E-02 0. -1.
         -2   -1    0    0    0  501 -0.00000000000E+00 -0.00000000000E+00 -0.33560842803E+03  0.33560842804E+03  0.25500000000E-02 0.  1.
    8880023    1    1    2    0    0 -0.71362752433E+03 -0.20734092081E+03  0.71786002484E+03  0.12253112757E+04  0.65864270000E+03 0.  0.
    8880022    1    1    2    0    0  0.71362752433E+03  0.20734092081E+03  0.16756478869E+04  0.18394134920E+04  0.15294330000E+03 0.  0.
<mgrwt>
<rscale>  0 0.92839754E+03</rscale>
<asrwt>0</asrwt>
<pdfrwt beam="1">  1        2 0.41986405E+00 0.99300791E+03</pdfrwt>
<pdfrwt beam="2">  1       -2 0.51632067E-01 0.99300791E+03</pdfrwt>
<totfact> 0.91996539E+00</totfact>
</mgrwt>
</event>
<event>
 4    5  0.1112901E-007  0.1051838E+04  0.7818608E-02  0.9316675E-01
          2   -1    0    0  501    0  0.00000000000E+00  0.00000000000E+00  0.17639207320E+04  0.17639207320E+04  0.25500000000E-02 0. -1.
         -2   -1    0    0    0  501 -0.00000000000E+00 -0.00000000000E+00 -0.93026748187E+03  0.93026748188E+03  0.25500000000E-02 0.  1.
    8880023    1    1    2    0    0  0.66131830765E+02  0.81742268503E+03 -0.46550773615E+03  0.11502438540E+04  0.65864270000E+03 0.  0.
    8880022    1    1    2    0    0 -0.66131830765E+02 -0.81742268503E+03  0.12991609862E+04  0.15439443598E+04  0.15294330000E+03 0.  0.
<mgrwt>
<rscale>  0 0.99262119E+03</rscale>
<asrwt>0</asrwt>
<pdfrwt beam="1">  1        2 0.27137242E+00 0.10518381E+04</pdfrwt>
<pdfrwt beam="2">  1       -2 0.14311807E+00 0.10518381E+04</pdfrwt>
<totfact> 0.30300253E+00</totfact>
</mgrwt>
</event>
<event>
 4    5  0.1112901E-007  0.1449951E+04  0.7818608E-02  0.8945811E-01
         -2   -1    0    0    0  501 -0.00000000000E+00  0.00000000000E+00  0.14658460609E+04  0.14658460609E+04  0.25500000000E-02 0.  1.
          2   -1    0    0  501    0  0.00000000000E+00 -0.00000000000E+00 -0.15913971195E+04  0.15913971195E+04  0.25500000000E-02 0. -1.
    8880023    1    1    2    0    0  0.57082496154E+03  0.11587517651E+04 -0.72950353726E+03  0.16231242734E+04  0.65864270000E+03 0.  0.
    8880022    1    1    2    0    0 -0.57082496154E+03 -0.11587517651E+04  0.60395247871E+03  0.14341189070E+04  0.15294330000E+03 0.  0.
<mgrwt>
<rscale>  0 0.14111169E+04</rscale>
<asrwt>0</asrwt>
<pdfrwt beam="1">  1        2 0.24483033E+00 0.14499507E+04</pdfrwt>
<pdfrwt beam="2">  1       -2 0.22551478E+00 0.14499507E+04</pdfrwt>
<totfact> 0.97180592E-01</totfact>
</mgrwt>
</event>
<event>
 4    5  0.1112901E-007  0.7173030E+03  0.7818608E-02  0.9931820E-01
         -2   -1    0    0    0  501 -0.00000000000E+00  0.00000000000E+00  0.12642377232E+04  0.12642377232E+04  0.25500000000E-02 0.  1.
          2   -1    0    0  501    0  0.00000000000E+00 -0.00000000000E+00 -0.45625265582E+03  0.45625265583E+03  0.25500000000E-02 0. -1.
    8880023    1    1    2    0    0  0.28260720133E+03  0.29095009172E+02  0.10813326130E+04  0.12976146485E+04  0.65864270000E+03 0.  0.
    8880022    1    1    2    0    0 -0.28260720133E+03 -0.29095009172E+02 -0.27334754559E+03  0.42287573056E+03  0.15294330000E+03 0. -1.
<mgrwt>
<rscale>  0 0.58743649E+03</rscale>
<asrwt>0</asrwt>
<pdfrwt beam="1">  1        2 0.70192716E-01 0.71730297E+03</pdfrwt>
<pdfrwt beam="2">  1       -2 0.19449811E+00 0.71730297E+03</pdfrwt>
<totfact> 0.10115809E+01</totfact>
</mgrwt>
</event>
<event>
 4    5  0.1112901E-007  0.1038684E+04  0.7818608E-02  0.9332610E-01
          2   -1    0    0  501    0  0.00000000000E+00  0.00000000000E+00  0.30681172665E+04  0.30681172665E+04  0.25500000000E-02 0. -1.
         -2   -1    0    0    0  501 -0.00000000000E+00 -0.00000000000E+00 -0.76345062329E+03  0.76345062329E+03  0.25500000000E-02 0.  1.
    8880023    1    1    2    0    0  0.16018592174E+03  0.78701605412E+03 -0.31651353179E+03  0.10858383034E+04  0.65864270000E+03 0.  1.
    8880022    1    1    2    0    0 -0.16018592174E+03 -0.78701605412E+03  0.26211801750E+04  0.27457295865E+04  0.15294330000E+03 0.  0.
<mgrwt>
<rscale>  0 0.97835340E+03</rscale>
<asrwt>0</asrwt>
<pdfrwt beam="1">  1        2 0.47201804E+00 0.10386838E+04</pdfrwt>
<pdfrwt beam="2">  1       -2 0.11745394E+00 0.10386838E+04</pdfrwt>
<totfact> 0.89483143E-01</totfact>
</mgrwt>
</event>
<event>
 4    5  0.1112901E-007  0.1218657E+04  0.7818608E-02  0.9139197E-01
         -2   -1    0    0    0  501 -0.00000000000E+00  0.00000000000E+00  0.13844353919E+04  0.13844353919E+04  0.25500000000E-02 0.  1.
          2   -1    0    0  501    0  0.00000000000E+00 -0.00000000000E+00 -0.20399337524E+04  0.20399337524E+04  0.25500000000E-02 0. -1.
    8880023    1    1    2    0    0  0.10229451473E+04 -0.69977973248E+02  0.92795847168E+03  0.15317411082E+04  0.65864270000E+03 0.  0.
    8880022    1    1    2    0    0 -0.10229451473E+04  0.69977973248E+02 -0.15834568322E+04  0.18926280362E+04  0.15294330000E+03 0.  0.
<mgrwt>
<rscale>  0 0.11703673E+04</rscale>
<asrwt>0</asrwt>
<pdfrwt beam="1">  1        2 0.31383596E+00 0.12186566E+04</pdfrwt>
<pdfrwt beam="2">  1       -2 0.21299006E+00 0.12186566E+04</pdfrwt>
<totfact> 0.67408391E-01</totfact>
</mgrwt>
</event>
<event>
 4    5  0.1112901E-007  0.7884181E+03  0.7818608E-02  0.9736422E-01
          2   -1    0    0  501    0  0.00000000000E+00  0.00000000000E+00  0.63671155181E+03  0.63671155181E+03  0.25500000000E-02 0. -1.
         -2   -1    0    0    0  501 -0.00000000000E+00 -0.00000000000E+00 -0.11311985552E+04  0.11311985552E+04  0.25500000000E-02 0.  1.
    8880023    1    1    2    0    0 -0.30523754771E+03 -0.30760834671E+03 -0.87025737862E+03  0.11742874294E+04  0.65864270000E+03 0.  0.
    8880022    1    1    2    0    0  0.30523754771E+03  0.30760834671E+03  0.37577037522E+03  0.59362267764E+03  0.15294330000E+03 0.  0.
<mgrwt>
<rscale>  0 0.68889049E+03</rscale>
<asrwt>0</asrwt>
<pdfrwt beam="1">  1        2 0.97955624E-01 0.78841808E+03</pdfrwt>
<pdfrwt beam="2">  1       -2 0.17403055E+00 0.78841808E+03</pdfrwt>
<totfact> 0.93232945E+00</totfact>
</mgrwt>
</event>
<event>
 4    5  0.1112901E-007  0.7876203E+03  0.7818608E-02  0.9738232E-01
         -2   -1    0    0    0  501 -0.00000000000E+00  0.00000000000E+00  0.41569973431E+03  0.41569973432E+03  0.25500000000E-02 0.  1.
          2   -1    0    0  501    0  0.00000000000E+00 -0.00000000000E+00 -0.99301792020E+03  0.99301792021E+03  0.25500000000E-02 0. -1.
    8880023    1    1    2    0    0 -0.38662608389E+03  0.19249870088E+03 -0.52726116986E+03  0.94781328651E+03  0.65864270000E+03 0. -1.
    8880022    1    1    2    0    0  0.38662608389E+03 -0.19249870088E+03 -0.50057016031E+02  0.46090436801E+03  0.15294330000E+03 0.  0.
<mgrwt>
<rscale>  0 0.68785395E+03</rscale>
<asrwt>0</asrwt>
<pdfrwt beam="1">  1        2 0.15277199E+00 0.78762027E+03</pdfrwt>
<pdfrwt beam="2">  1       -2 0.63953806E-01 0.78762027E+03</pdfrwt>
<totfact> 0.58224304E+01</totfact>
</mgrwt>
</event>
<event>
 4    5  0.1112901E-007  0.9007427E+03  0.7818608E-02  0.9524840E-01
         -2   -1    0    0    0  501 -0.00000000000E+00  0.00000000000E+00  0.27381441251E+03  0.27381441252E+03  0.25500000000E-02 0.  1.
          2   -1    0    0  501    0  0.00000000000E+00 -0.00000000000E+00 -0.22159968462E+04  0.22159968462E+04  0.25500000000E-02 0. -1.
    8880023    1    1    2    0    0 -0.58644093598E+03  0.18334166099E+03 -0.92091931546E+03  0.12881885452E+04  0.65864270000E+03 0. -1.
    8880022    1    1    2    0    0  0.58644093598E+03 -0.18334166099E+03 -0.10212631182E+04  0.12016227135E+04  0.15294330000E+03 0.  0.
<mgrwt>
<rscale>  0 0.82476952E+03</rscale>
<asrwt>0</asrwt>
<pdfrwt beam="1">  1        2 0.34092258E+00 0.90074266E+03</pdfrwt>
<pdfrwt beam="2">  1       -2 0.42125296E-01 0.90074266E+03</pdfrwt>
<totfact> 0.27499008E+01</totfact>
</mgrwt>
</event>
<event>
 4    5  0.1112901E-007  0.9997556E+03  0.7818608E-02  0.9381877E-01
          2   -1    0    0  501    0  0.00000000000E+00  0.00000000000E+00  0.11306411839E+04  0.11306411839E+04  0.25500000000E-02 0. -1.
         -2   -1    0    0    0  501 -0.00000000000E+00 -0.00000000000E+00 -0.86871767497E+03  0.86871767497E+03  0.25500000000E-02 0.  1.
    8880023    1    1    2    0    0 -0.72545211347E+03 -0.19854557185E+03 -0.30490473005E+03  0.10452168262E+04  0.65864270000E+03 0.  0.
    8880022    1    1    2    0    0  0.72545211347E+03  0.19854557185E+03  0.56682823899E+03  0.95414203270E+03  0.15294330000E+03 0.  0.
<mgrwt>
<rscale>  0 0.93582222E+03</rscale>
<asrwt>0</asrwt>
<pdfrwt beam="1">  1        2 0.17394480E+00 0.99975563E+03</pdfrwt>
<pdfrwt beam="2">  1       -2 0.13364887E+00 0.99975563E+03</pdfrwt>
<totfact> 0.83755933E+00</totfact>
</mgrwt>
</event>
<event>
 4    5  0.1112901E-007  0.6880522E+03  0.7818608E-02  0.1005092E+00
          2   -1    0    0  501    0  0.00000000000E+00  0.00000000000E+00  0.16296579203E+04  0.16296579203E+04  0.25500000000E-02 0. -1.
         -2   -1    0    0    0  501 -0.00000000000E+00 -0.00000000000E+00 -0.74524282259E+03  0.74524282259E+03  0.25500000000E-02 0.  1.
    8880023    1    1    2    0    0 -0.92918034725E+02 -0.17598827630E+03 -0.57338683921E+03  0.89564965707E+03  0.65864270000E+03 0.  1.
    8880022    1    1    2    0    0  0.92918034725E+02  0.17598827630E+03  0.14578019369E+04  0.14792510858E+04  0.15294330000E+03 0.  0.
<mgrwt>
<rscale>  0 0.53472597E+03</rscale>
<asrwt>0</asrwt>
<pdfrwt beam="1">  1        2 0.25071660E+00 0.68805221E+03</pdfrwt>
<pdfrwt beam="2">  1       -2 0.11465274E+00 0.68805221E+03</pdfrwt>
<totfact> 0.66155689E+00</totfact>
</mgrwt>
</event>
<event>
 4    5  0.1112901E-007  0.1692429E+04  0.7818608E-02  0.8784497E-01
         -2   -1    0    0    0  501 -0.00000000000E+00  0.00000000000E+00  0.10764217555E+04  0.10764217555E+04  0.25500000000E-02 0.  1.
          2   -1    0    0  501    0  0.00000000000E+00 -0.00000000000E+00 -0.31654988392E+04  0.31654988392E+04  0.25500000000E-02 0. -1.
    8880023    1    1    2    0    0 -0.88877577296E+03  0.12808529106E+04 -0.80003938378E+02  0.16943191523E+04  0.65864270000E+03 0.  0.
    8880022    1    1    2    0    0  0.88877577296E+03 -0.12808529106E+04 -0.20090731453E+04  0.25476014424E+04  0.15294330000E+03 0.  0.
<mgrwt>
<rscale>  0 0.16600263E+04</rscale>
<asrwt>0</asrwt>
<pdfrwt beam="1">  1        2 0.48699982E+00 0.16924292E+04</pdfrwt>
<pdfrwt beam="2">  1       -2 0.16560335E+00 0.16924292E+04</pdfrwt>
<totfact> 0.29008983E-01</totfact>
</mgrwt>
</event>
<event>
 4    5  0.1112901E-007  0.7251446E+03  0.7818608E-02  0.9905548E-01
          2   -1    0    0  501    0  0.00000000000E+00  0.00000000000E+00  0.26185575211E+04  0.26185575211E+04  0.25500000000E-02 0. -1.
         -2   -1    0    0    0  501 -0.00000000000E+00 -0.00000000000E+00 -0.20026658580E+03  0.20026658582E+03  0.25500000000E-02 0.  1.
    8880023    1    1    2    0    0 -0.10857900111E+03  0.28325801385E+03  0.52487049204E+03  0.89516687917E+03  0.65864270000E+03 0.  1.
    8880022    1    1    2    0    0  0.10857900111E+03 -0.28325801385E+03  0.18934204433E+04  0.19236572278E+04  0.15294330000E+03 0.  0.
<mgrwt>
<rscale>  0 0.59993168E+03</rscale>
<asrwt>0</asrwt>
<pdfrwt beam="1">  1        2 0.40285499E+00 0.72514461E+03</pdfrwt>
<pdfrwt beam="2">  1       -2 0.30810245E-01 0.72514461E+03</pdfrwt>
<totfact> 0.30397561E+01</totfact>
</mgrwt>
</event>
<event>
 4    5  0.1112901E-007  0.1081349E+04  0.7818608E-02  0.9282112E-01
          2   -1    0    0  501    0  0.00000000000E+00  0.00000000000E+00  0.15839115688E+04  0.15839115688E+04  0.25500000000E-02 0. -1.
         -2   -1    0    0    0  501 -0.00000000000E+00 -0.00000000000E+00 -0.66379176018E+03  0.66379176018E+03  0.25500000000E-02 0.  1.
    8880023    1    1    2    0    0 -0.85146164320E+03 -0.10255468930E+03  0.84683687969E+03  0.13734799967E+04  0.65864270000E+03 0.  0.
    8880022    1    1    2    0    0  0.85146164320E+03  0.10255468930E+03  0.73282928954E+02  0.87422333236E+03  0.15294330000E+03 0.  0.
<mgrwt>
<rscale>  0 0.10244648E+04</rscale>
<asrwt>0</asrwt>
<pdfrwt beam="1">  1        2 0.24367870E+00 0.10813485E+04</pdfrwt>
<pdfrwt beam="2">  1       -2 0.10212181E+00 0.10813485E+04</pdfrwt>
<totfact> 0.88372924E+00</totfact>
</mgrwt>
</event>
<event>
 4    5  0.1112901E-007  0.1097645E+04  0.7818608E-02  0.9263683E-01
          2   -1    0    0  501    0  0.00000000000E+00  0.00000000000E+00  0.25211250678E+04  0.25211250678E+04  0.25500000000E-02 0. -1.
         -2   -1    0    0    0  501 -0.00000000000E+00 -0.00000000000E+00 -0.72678581660E+03  0.72678581660E+03  0.25500000000E-02 0.  1.
    8880023    1    1    2    0    0  0.80972927579E+03  0.33963547207E+03 -0.15112153478E+03  0.11079989524E+04  0.65864270000E+03 0.  0.
    8880022    1    1    2    0    0 -0.80972927579E+03 -0.33963547207E+03  0.19454607860E+04  0.21399119320E+04  0.15294330000E+03 0.  0.
<mgrwt>
<rscale>  0 0.10419614E+04</rscale>
<asrwt>0</asrwt>
<pdfrwt beam="1">  1        2 0.38786539E+00 0.10976447E+04</pdfrwt>
<pdfrwt beam="2">  1       -2 0.11181320E+00 0.10976447E+04</pdfrwt>
<totfact> 0.21255245E+00</totfact>
</mgrwt>
</event>
<event>
 4    5  0.1112901E-007  0.7513732E+03  0.7818608E-02  0.9827976E-01
          2   -1    0    0  501    0  0.00000000000E+00  0.00000000000E+00  0.44728921053E+03  0.44728921054E+03  0.25500000000E-02 0. -1.
         -2   -1    0    0    0  501 -0.00000000000E+00 -0.00000000000E+00 -0.77483043596E+03  0.77483043597E+03  0.25500000000E-02 0.  1.
    8880023    1    1    2    0    0 -0.22106697841E+03 -0.28614841996E+03 -0.34994828523E+03  0.82887003553E+03  0.65864270000E+03 0.  0.
    8880022    1    1    2    0    0  0.22106697841E+03  0.28614841996E+03  0.22407059799E+02  0.39324961098E+03  0.15294330000E+03 0.  0.
<mgrwt>
<rscale>  0 0.63882563E+03</rscale>
<asrwt>0</asrwt>
<pdfrwt beam="1">  1        2 0.68813725E-01 0.75137323E+03</pdfrwt>
<pdfrwt beam="2">  1       -2 0.11920468E+00 0.75137323E+03</pdfrwt>
<totfact> 0.38246415E+01</totfact>
</mgrwt>
</event>
<event>
 4    5  0.1112901E-007  0.9768791E+03  0.7818608E-02  0.9412452E-01
          2   -1    0    0  501    0  0.00000000000E+00  0.00000000000E+00  0.19077059392E+04  0.19077059392E+04  0.25500000000E-02 0. -1.
         -2   -1    0    0    0  501 -0.00000000000E+00 -0.00000000000E+00 -0.54024514159E+03  0.54024514160E+03  0.25500000000E-02 0.  1.
    8880023    1    1    2    0    0 -0.25065984451E+03  0.67649993843E+03  0.10056905161E+03  0.98204219092E+03  0.65864270000E+03 0.  0.
    8880022    1    1    2    0    0  0.25065984451E+03 -0.67649993843E+03  0.12668917460E+04  0.14659088899E+04  0.15294330000E+03 0.  0.
<mgrwt>
<rscale>  0 0.91057959E+03</rscale>
<asrwt>0</asrwt>
<pdfrwt beam="1">  1        2 0.29349322E+00 0.97687908E+03</pdfrwt>
<pdfrwt beam="2">  1       -2 0.83114637E-01 0.97687908E+03</pdfrwt>
<totfact> 0.95654421E+00</totfact>
</mgrwt>
</event>
<event>
 4    5  0.1112901E-007  0.8649779E+03  0.7818608E-02  0.9584769E-01
         -2   -1    0    0    0  501 -0.00000000000E+00  0.00000000000E+00  0.79400282467E+03  0.79400282468E+03  0.25500000000E-02 0.  1.
          2   -1    0    0  501    0  0.00000000000E+00 -0.00000000000E+00 -0.10052514708E+04  0.10052514708E+04  0.25500000000E-02 0. -1.
    8880023    1    1    2    0    0 -0.46754922129E+03  0.30947424572E+03  0.40246440959E+03  0.95402536148E+03  0.65864270000E+03 0.  0.
    8880022    1    1    2    0    0  0.46754922129E+03 -0.30947424572E+03 -0.61371305570E+03  0.84522893398E+03  0.15294330000E+03 0.  0.
<mgrwt>
<rscale>  0 0.78312505E+03</rscale>
<asrwt>0</asrwt>
<pdfrwt beam="1">  1        2 0.15465407E+00 0.86497791E+03</pdfrwt>
<pdfrwt beam="2">  1       -2 0.12215428E+00 0.86497791E+03</pdfrwt>
<totfact> 0.12756108E+01</totfact>
</mgrwt>
</event>
<event>
 4    5  0.1112901E-007  0.1106621E+04  0.7818608E-02  0.9253720E-01
          2   -1    0    0  501    0  0.00000000000E+00  0.00000000000E+00  0.16664100756E+04  0.16664100756E+04  0.25500000000E-02 0. -1.
         -2   -1    0    0    0  501 -0.00000000000E+00 -0.00000000000E+00 -0.72146240539E+03  0.72146240540E+03  0.25500000000E-02 0.  1.
    8880023    1    1    2    0    0 -0.71806146476E+03  0.52458369632E+03  0.98943567454E+03  0.14844505657E+04  0.65864270000E+03 0.  0.
    8880022    1    1    2    0    0  0.71806146476E+03 -0.52458369632E+03 -0.44488004291E+02  0.90342191537E+03  0.15294330000E+03 0.  0.
<mgrwt>
<rscale>  0 0.10515746E+04</rscale>
<asrwt>0</asrwt>
<pdfrwt beam="1">  1        2 0.25637078E+00 0.11066212E+04</pdfrwt>
<pdfrwt beam="2">  1       -2 0.11099422E+00 0.11066212E+04</pdfrwt>
<totfact> 0.64825067E+00</totfact>
</mgrwt>
</event>
<event>
 4    5  0.1112901E-007  0.7282772E+03  0.7818608E-02  0.9895513E-01
          2   -1    0    0  501    0  0.00000000000E+00  0.00000000000E+00  0.31560999644E+04  0.31560999644E+04  0.25500000000E-02 0. -1.
         -2   -1    0    0    0  501 -0.00000000000E+00 -0.00000000000E+00 -0.25616194760E+03  0.25616194762E+03  0.25500000000E-02 0.  1.
    8880023    1    1    2    0    0 -0.19854320681E+03 -0.23907757909E+03  0.29721045401E+03  0.78658868161E+03  0.65864270000E+03 0.  1.
    8880022    1    1    2    0    0  0.19854320681E+03  0.23907757909E+03  0.26027275628E+04  0.26256732304E+04  0.15294330000E+03 0.  0.
<mgrwt>
<rscale>  0 0.60479228E+03</rscale>
<asrwt>0</asrwt>
<pdfrwt beam="1">  1        2 0.48555385E+00 0.72827721E+03</pdfrwt>
<pdfrwt beam="2">  1       -2 0.39409530E-01 0.72827721E+03</pdfrwt>
<totfact> 0.90478195E+00</totfact>
</mgrwt>
</event>
<event>
 4    5  0.1112901E-007  0.1091413E+04  0.7818608E-02  0.9270677E-01
         -2   -1    0    0    0  501 -0.00000000000E+00  0.00000000000E+00  0.60566823478E+03  0.60566823478E+03  0.25500000000E-02 0.  1.
          2   -1    0    0  501    0  0.00000000000E+00 -0.00000000000E+00 -0.30914381629E+04  0.30914381629E+04  0.25500000000E-02 0. -1.
    8880023    1    1    2    0    0 -0.84544232913E+03  0.20639718899E+03 -0.35068406774E+02  0.10919764333E+04  0.65864270000E+03 0.  0.
    8880022    1    1    2    0    0  0.84544232913E+03 -0.20639718899E+03 -0.24507015214E+04  0.26051299644E+04  0.15294330000E+03 0.  0.
<mgrwt>
<rscale>  0 0.10352778E+04</rscale>
<asrwt>0</asrwt>
<pdfrwt beam="1">  1        2 0.47560586E+00 0.10914132E+04</pdfrwt>
<pdfrwt beam="2">  1       -2 0.93179730E-01 0.10914132E+04</pdfrwt>
<totfact> 0.14981259E+00</totfact>
</mgrwt>
</event>
<event>
 4    5  0.1112901E-007  0.2543886E+04  0.7818608E-02  0.8394789E-01
          2   -1    0    0  501    0  0.00000000000E+00  0.00000000000E+00  0.42901687157E+04  0.42901687157E+04  0.25500000000E-02 0. -1.
         -2   -1    0    0    0  501 -0.00000000000E+00 -0.00000000000E+00 -0.14881830014E+04  0.14881830014E+04  0.25500000000E-02 0.  1.
    8880023    1    1    2    0    0 -0.12930074233E+04  0.20894208879E+04  0.18196956991E+04  0.31277228917E+04  0.65864270000E+03 0.  0.
    8880022    1    1    2    0    0  0.12930074233E+04 -0.20894208879E+04  0.98229001524E+03  0.26506288255E+04  0.15294330000E+03 0.  0.
<mgrwt>
<rscale>  0 0.25231367E+04</rscale>
<asrwt>0</asrwt>
<pdfrwt beam="1">  1        2 0.66002594E+00 0.25438864E+04</pdfrwt>
<pdfrwt beam="2">  1       -2 0.22895124E+00 0.25438864E+04</pdfrwt>
<totfact> 0.14185887E-02</totfact>
</mgrwt>
</event>
<event>
 4    5  0.1112901E-007  0.7654187E+03  0.7818608E-02  0.9791276E-01
          2   -1    0    0  501    0  0.00000000000E+00  0.00000000000E+00  0.21317160397E+04  0.21317160397E+04  0.25500000000E-02 0. -1.
         -2   -1    0    0    0  501 -0.00000000000E+00 -0.00000000000E+00 -0.60422491499E+03  0.60422491499E+03  0.25500000000E-02 0.  1.
    8880023    1    1    2    0    0 -0.30476808006E+03  0.24325299780E+03 -0.32874692865E+03  0.83303082351E+03  0.65864270000E+03 0.  1.
    8880022    1    1    2    0    0  0.30476808006E+03 -0.24325299780E+03  0.18562380534E+04  0.19029101312E+04  0.15294330000E+03 0.  0.
<mgrwt>
<rscale>  0 0.65832846E+03</rscale>
<asrwt>0</asrwt>
<pdfrwt beam="1">  1        2 0.32795631E+00 0.76541872E+03</pdfrwt>
<pdfrwt beam="2">  1       -2 0.92957680E-01 0.76541872E+03</pdfrwt>
<totfact> 0.57332733E+00</totfact>
</mgrwt>
</event>
<event>
 4    5  0.1112901E-007  0.1011917E+04  0.7818608E-02  0.9366130E-01
          2   -1    0    0  501    0  0.00000000000E+00  0.00000000000E+00  0.18271899794E+04  0.18271899794E+04  0.25500000000E-02 0. -1.
         -2   -1    0    0    0  501 -0.00000000000E+00 -0.00000000000E+00 -0.61953047836E+03  0.61953047836E+03  0.25500000000E-02 0.  1.
    8880023    1    1    2    0    0  0.35709100361E+02 -0.76739196941E+03  0.55528722422E+01  0.10119321199E+04  0.65864270000E+03 0.  1.
    8880022    1    1    2    0    0 -0.35709100361E+02  0.76739196941E+03  0.12021066288E+04  0.14347883379E+04  0.15294330000E+03 0.  0.
<mgrwt>
<rscale>  0 0.94916238E+03</rscale>
<asrwt>0</asrwt>
<pdfrwt beam="1">  1        2 0.28110615E+00 0.10119169E+04</pdfrwt>
<pdfrwt beam="2">  1       -2 0.95312381E-01 0.10119169E+04</pdfrwt>
<totfact> 0.76883358E+00</totfact>
</mgrwt>
</event>
<event>
 4    5  0.1112901E-007  0.2354144E+04  0.7818608E-02  0.8465561E-01
         -2   -1    0    0    0  501 -0.00000000000E+00  0.00000000000E+00  0.20021375575E+04  0.20021375575E+04  0.25500000000E-02 0.  1.
          2   -1    0    0  501    0  0.00000000000E+00 -0.00000000000E+00 -0.36549503380E+04  0.36549503380E+04  0.25500000000E-02 0. -1.
    8880023    1    1    2    0    0  0.63113705317E+03  0.21702187557E+04 -0.23101955392E+04  0.32983324670E+04  0.65864270000E+03 0.  0.
    8880022    1    1    2    0    0 -0.63113705317E+03 -0.21702187557E+04  0.65738275868E+03  0.23587554285E+04  0.15294330000E+03 0.  0.
<mgrwt>
<rscale>  0 0.23316110E+04</rscale>
<asrwt>0</asrwt>
<pdfrwt beam="1">  1        2 0.56230005E+00 0.23541439E+04</pdfrwt>
<pdfrwt beam="2">  1       -2 0.30802116E+00 0.23541439E+04</pdfrwt>
<totfact> 0.15213348E-02</totfact>
</mgrwt>
</event>
<event>
 4    5  0.1112901E-007  0.6747548E+03  0.7818608E-02  0.1012461E+00
          2   -1    0    0  501    0  0.00000000000E+00  0.00000000000E+00  0.48312115420E+03  0.48312115421E+03  0.25500000000E-02 0. -1.
         -2   -1    0    0    0  501 -0.00000000000E+00 -0.00000000000E+00 -0.40699517802E+03  0.40699517803E+03  0.25500000000E-02 0.  1.
    8880023    1    1    2    0    0 -0.91433253573E+02  0.11455895966E+03  0.48697472850E+02  0.67650975250E+03  0.65864270000E+03 0.  0.
    8880022    1    1    2    0    0  0.91433253573E+02 -0.11455895966E+03  0.27428503330E+02  0.21360657974E+03  0.15294330000E+03 0. -1.
<mgrwt>
<rscale>  0 0.50508047E+03</rscale>
<asrwt>0</asrwt>
<pdfrwt beam="1">  1        2 0.74326331E-01 0.67475477E+03</pdfrwt>
<pdfrwt beam="2">  1       -2 0.62614643E-01 0.67475477E+03</pdfrwt>
<totfact> 0.15366784E+02</totfact>
</mgrwt>
</event>
<event>
 4    5  0.1112901E-007  0.1258163E+04  0.7818608E-02  0.9102558E-01
         -2   -1    0    0    0  501 -0.00000000000E+00  0.00000000000E+00  0.62545690084E+03  0.62545690084E+03  0.25500000000E-02 0.  1.
          2   -1    0    0  501    0  0.00000000000E+00 -0.00000000000E+00 -0.34971253480E+04  0.34971253480E+04  0.25500000000E-02 0. -1.
    8880023    1    1    2    0    0  0.94274358485E+03  0.51029310635E+03 -0.27609263988E+04  0.30340878872E+04  0.65864270000E+03 0.  0.
    8880022    1    1    2    0    0 -0.94274358485E+03 -0.51029310635E+03 -0.11074204839E+03  0.10884943617E+04  0.15294330000E+03 0.  0.
<mgrwt>
<rscale>  0 0.12118377E+04</rscale>
<asrwt>0</asrwt>
<pdfrwt beam="1">  1        2 0.53801927E+00 0.12581632E+04</pdfrwt>
<pdfrwt beam="2">  1       -2 0.96224141E-01 0.12581632E+04</pdfrwt>
<totfact> 0.73325804E-01</totfact>
</mgrwt>
</event>
<event>
 4    5  0.1112901E-007  0.1209079E+04  0.7818608E-02  0.9148347E-01
          2   -1    0    0  501    0  0.00000000000E+00  0.00000000000E+00  0.28907081199E+04  0.28907081199E+04  0.25500000000E-02 0. -1.
         -2   -1    0    0    0  501 -0.00000000000E+00 -0.00000000000E+00 -0.56054615066E+03  0.56054615066E+03  0.25500000000E-02 0.  1.
    8880023    1    1    2    0    0 -0.77196436902E+03  0.65736729787E+03  0.41402722164E+03  0.12780021510E+04  0.65864270000E+03 0.  0.
    8880022    1    1    2    0    0  0.77196436902E+03 -0.65736729787E+03  0.19161347476E+04  0.21732521196E+04  0.15294330000E+03 0.  0.
<mgrwt>
<rscale>  0 0.11602848E+04</rscale>
<asrwt>0</asrwt>
<pdfrwt beam="1">  1        2 0.44472433E+00 0.12090786E+04</pdfrwt>
<pdfrwt beam="2">  1       -2 0.86237869E-01 0.12090786E+04</pdfrwt>
<totfact> 0.23486062E+00</totfact>
</mgrwt>
</event>
<event>
 4    5  0.1112901E-007  0.1972725E+04  0.7818608E-02  0.8632566E-01
          2   -1    0    0  501    0  0.00000000000E+00  0.00000000000E+00  0.16158271003E+04  0.16158271003E+04  0.25500000000E-02 0. -1.
         -2   -1    0    0    0  501 -0.00000000000E+00 -0.00000000000E+00 -0.23187258217E+04  0.23187258217E+04  0.25500000000E-02 0.  1.
    8880023    1    1    2    0    0  0.12649298180E+04 -0.13630059344E+04 -0.10589861139E+03  0.19755650695E+04  0.65864270000E+03 0.  0.
    8880022    1    1    2    0    0 -0.12649298180E+04  0.13630059344E+04 -0.59700011003E+03  0.19589878525E+04  0.15294330000E+03 0.  0.
<mgrwt>
<rscale>  0 0.19454334E+04</rscale>
<asrwt>0</asrwt>
<pdfrwt beam="1">  1        2 0.24858879E+00 0.19727247E+04</pdfrwt>
<pdfrwt beam="2">  1       -2 0.35672705E+00 0.19727247E+04</pdfrwt>
<totfact> 0.13812539E-01</totfact>
</mgrwt>
</event>
<event>
 4    5  0.1112901E-007  0.9509470E+03  0.7818608E-02  0.9448753E-01
         -2   -1    0    0    0  501 -0.00000000000E+00  0.00000000000E+00  0.18200696198E+04  0.18200696198E+04  0.25500000000E-02 0.  1.
          2   -1    0    0  501    0  0.00000000000E+00 -0.00000000000E+00 -0.16891133705E+04  0.16891133705E+04  0.25500000000E-02 0. -1.
    8880023    1    1    2    0    0  0.26909715894E+03  0.63093314148E+03  0.16110217149E+04  0.18707461298E+04  0.65864270000E+03 0.  1.
    8880022    1    1    2    0    0 -0.26909715894E+03 -0.63093314148E+03 -0.14800654656E+04  0.16384368604E+04  0.15294330000E+03 0.  0.
<mgrwt>
<rscale>  0 0.88169844E+03</rscale>
<asrwt>0</asrwt>
<pdfrwt beam="1">  1        2 0.25986360E+00 0.95094696E+03</pdfrwt>
<pdfrwt beam="2">  1       -2 0.28001071E+00 0.95094696E+03</pdfrwt>
<totfact> 0.42390397E-01</totfact>
</mgrwt>
</event>
<event>
 4    5  0.1112901E-007  0.1247546E+04  0.7818608E-02  0.9112235E-01
          2   -1    0    0  501    0  0.00000000000E+00  0.00000000000E+00  0.32731786407E+04  0.32731786407E+04  0.25500000000E-02 0. -1.
         -2   -1    0    0    0  501 -0.00000000000E+00 -0.00000000000E+00 -0.52678904976E+03  0.52678904976E+03  0.25500000000E-02 0.  1.
    8880023    1    1    2    0    0 -0.66304515439E+03 -0.82639703743E+03  0.23459361363E+04  0.26570260635E+04  0.65864270000E+03 0.  0.
    8880022    1    1    2    0    0  0.66304515439E+03  0.82639703743E+03  0.40045345459E+03  0.11429416269E+04  0.15294330000E+03 0.  0.
<mgrwt>
<rscale>  0 0.12007104E+04</rscale>
<asrwt>0</asrwt>
<pdfrwt beam="1">  1        2 0.50356594E+00 0.12475460E+04</pdfrwt>
<pdfrwt beam="2">  1       -2 0.81044470E-01 0.12475460E+04</pdfrwt>
<totfact> 0.15458110E+00</totfact>
</mgrwt>
</event>
<event>
 4    5  0.1112901E-007  0.1000311E+04  0.7818608E-02  0.9381152E-01
         -2   -1    0    0    0  501 -0.00000000000E+00  0.00000000000E+00  0.83934656005E+03  0.83934656005E+03  0.25500000000E-02 0.  1.
          2   -1    0    0  501    0  0.00000000000E+00 -0.00000000000E+00 -0.16249922829E+04  0.16249922829E+04  0.25500000000E-02 0. -1.
    8880023    1    1    2    0    0  0.26128022096E+02 -0.75241494851E+03  0.37852058651E+03  0.10695321262E+04  0.65864270000E+03 0.  1.
    8880022    1    1    2    0    0 -0.26128022096E+02  0.75241494851E+03 -0.11641663094E+04  0.13948067168E+04  0.15294330000E+03 0.  0.
<mgrwt>
<rscale>  0 0.93643204E+03</rscale>
<asrwt>0</asrwt>
<pdfrwt beam="1">  1        2 0.24999881E+00 0.10003105E+04</pdfrwt>
<pdfrwt beam="2">  1       -2 0.12913024E+00 0.10003105E+04</pdfrwt>
<totfact> 0.47435928E+00</totfact>
</mgrwt>
</event>
<event>
 4    5  0.1112901E-007  0.1460520E+04  0.7818608E-02  0.8938029E-01
          2   -1    0    0  501    0  0.00000000000E+00  0.00000000000E+00  0.27602056713E+04  0.27602056713E+04  0.25500000000E-02 0. -1.
         -2   -1    0    0    0  501 -0.00000000000E+00 -0.00000000000E+00 -0.11193675243E+04  0.11193675243E+04  0.25500000000E-02 0.  1.
    8880023    1    1    2    0    0  0.20357456602E+03  0.12875817265E+04 -0.34356057987E+03  0.15003844123E+04  0.65864270000E+03 0.  1.
    8880022    1    1    2    0    0 -0.20357456602E+03 -0.12875817265E+04  0.19843987269E+04  0.23791887833E+04  0.15294330000E+03 0.  0.
<mgrwt>
<rscale>  0 0.14220240E+04</rscale>
<asrwt>0</asrwt>
<pdfrwt beam="1">  1        2 0.42464703E+00 0.14605203E+04</pdfrwt>
<pdfrwt beam="2">  1       -2 0.17221039E+00 0.14605203E+04</pdfrwt>
<totfact> 0.47608976E-01</totfact>
</mgrwt>
</event>
<event>
 4    5  0.1112901E-007  0.7449498E+03  0.7818608E-02  0.9845756E-01
          2   -1    0    0  501    0  0.00000000000E+00  0.00000000000E+00  0.12362303951E+04  0.12362303951E+04  0.25500000000E-02 0. -1.
         -2   -1    0    0    0  501 -0.00000000000E+00 -0.00000000000E+00 -0.30245802221E+03  0.30245802222E+03  0.25500000000E-02 0.  1.
    8880023    1    1    2    0    0  0.25868713674E+03 -0.23285405638E+03  0.30720992787E+03  0.80580902969E+03  0.65864270000E+03 0.  1.
    8880022    1    1    2    0    0 -0.25868713674E+03  0.23285405638E+03  0.62656244497E+03  0.73287938758E+03  0.15294330000E+03 0.  0.
<mgrwt>
<rscale>  0 0.62963761E+03</rscale>
<asrwt>0</asrwt>
<pdfrwt beam="1">  1        2 0.19018930E+00 0.74494983E+03</pdfrwt>
<pdfrwt beam="2">  1       -2 0.46532002E-01 0.74494983E+03</pdfrwt>
<totfact> 0.80249328E+01</totfact>
</mgrwt>
</event>
<event>
 4    5  0.1112901E-007  0.7896342E+03  0.7818608E-02  0.9733674E-01
          2   -1    0    0  501    0  0.00000000000E+00  0.00000000000E+00  0.18089639349E+04  0.18089639349E+04  0.25500000000E-02 0. -1.
         -2   -1    0    0    0  501 -0.00000000000E+00 -0.00000000000E+00 -0.61652255953E+03  0.61652255953E+03  0.25500000000E-02 0.  1.
    8880023    1    1    2    0    0 -0.41886963510E+03 -0.11941633384E+03 -0.31409482395E+03  0.84981044750E+03  0.65864270000E+03 0.  1.
    8880022    1    1    2    0    0  0.41886963510E+03  0.11941633384E+03  0.15065361993E+04  0.15756760469E+04  0.15294330000E+03 0.  0.
<mgrwt>
<rscale>  0 0.69046767E+03</rscale>
<asrwt>0</asrwt>
<pdfrwt beam="1">  1        2 0.27830215E+00 0.78963424E+03</pdfrwt>
<pdfrwt beam="2">  1       -2 0.94849624E-01 0.78963424E+03</pdfrwt>
<totfact> 0.81813383E+00</totfact>
</mgrwt>
</event>
<event>
 4    5  0.1112901E-007  0.1228797E+04  0.7818608E-02  0.9129626E-01
          2   -1    0    0  501    0  0.00000000000E+00  0.00000000000E+00  0.39064745054E+04  0.39064745054E+04  0.25500000000E-02 0. -1.
         -2   -1    0    0    0  501 -0.00000000000E+00 -0.00000000000E+00 -0.68427313936E+03  0.68427313936E+03  0.25500000000E-02 0.  1.
    8880023    1    1    2    0    0  0.35634123051E+03 -0.97424426227E+03  0.28300760871E+02  0.12291224896E+04  0.65864270000E+03 0.  0.
    8880022    1    1    2    0    0 -0.35634123051E+03  0.97424426227E+03  0.31939006052E+04  0.33616251552E+04  0.15294330000E+03 0.  0.
<mgrwt>
<rscale>  0 0.11810289E+04</rscale>
<asrwt>0</asrwt>
<pdfrwt beam="1">  1        2 0.60099609E+00 0.12287966E+04</pdfrwt>
<pdfrwt beam="2">  1       -2 0.10527279E+00 0.12287966E+04</pdfrwt>
<totfact> 0.29840570E-01</totfact>
</mgrwt>
</event>
<event>
 4    5  0.1112901E-007  0.7701628E+03  0.7818608E-02  0.9779474E-01
          2   -1    0    0  501    0  0.00000000000E+00  0.00000000000E+00  0.22906101430E+04  0.22906101430E+04  0.25500000000E-02 0. -1.
         -2   -1    0    0    0  501 -0.00000000000E+00 -0.00000000000E+00 -0.36812488915E+03  0.36812488916E+03  0.25500000000E-02 0.  1.
    8880023    1    1    2    0    0  0.34329653911E+02  0.39769589561E+03  0.88082150436E+02  0.77518334735E+03  0.65864270000E+03 0.  0.
    8880022    1    1    2    0    0 -0.34329653911E+02 -0.39769589561E+03  0.18344031034E+04  0.18835516848E+04  0.15294330000E+03 0. -1.
<mgrwt>
<rscale>  0 0.66475834E+03</rscale>
<asrwt>0</asrwt>
<pdfrwt beam="1">  1        2 0.35240155E+00 0.77016281E+03</pdfrwt>
<pdfrwt beam="2">  1       -2 0.56634599E-01 0.77016281E+03</pdfrwt>
<totfact> 0.13943355E+01</totfact>
</mgrwt>
</event>
<event>
 4    5  0.1112901E-007  0.8766228E+03  0.7818608E-02  0.9564652E-01
         -2   -1    0    0    0  501 -0.00000000000E+00  0.00000000000E+00  0.13074031854E+04  0.13074031854E+04  0.25500000000E-02 0.  1.
          2   -1    0    0  501    0  0.00000000000E+00 -0.00000000000E+00 -0.13854435368E+04  0.13854435368E+04  0.25500000000E-02 0. -1.
    8880023    1    1    2    0    0 -0.56857065481E+02 -0.57569483540E+03  0.10790110820E+04  0.13902274601E+04  0.65864270000E+03 0.  1.
    8880022    1    1    2    0    0  0.56857065481E+02  0.57569483540E+03 -0.11570514335E+04  0.13026192621E+04  0.15294330000E+03 0.  0.
<mgrwt>
<rscale>  0 0.79680556E+03</rscale>
<asrwt>0</asrwt>
<pdfrwt beam="1">  1        2 0.21314516E+00 0.87662277E+03</pdfrwt>
<pdfrwt beam="2">  1       -2 0.20113895E+00 0.87662277E+03</pdfrwt>
<totfact> 0.19474657E+00</totfact>
</mgrwt>
</event>
<event>
 4    5  0.1112901E-007  0.1251834E+04  0.7818608E-02  0.9108312E-01
          2   -1    0    0  501    0  0.00000000000E+00  0.00000000000E+00  0.25248196755E+04  0.25248196755E+04  0.25500000000E-02 0. -1.
         -2   -1    0    0    0  501 -0.00000000000E+00 -0.00000000000E+00 -0.12840838753E+04  0.12840838753E+04  0.25500000000E-02 0.  1.
    8880023    1    1    2    0    0 -0.10077266359E+04  0.34316863985E+03 -0.81155890371E+03  0.14918832892E+04  0.65864270000E+03 0.  0.
    8880022    1    1    2    0    0  0.10077266359E+04 -0.34316863985E+03  0.20522947040E+04  0.23170202617E+04  0.15294330000E+03 0.  0.
<mgrwt>
<rscale>  0 0.12052057E+04</rscale>
<asrwt>0</asrwt>
<pdfrwt beam="1">  1        2 0.38843380E+00 0.12518338E+04</pdfrwt>
<pdfrwt beam="2">  1       -2 0.19755137E+00 0.12518338E+04</pdfrwt>
<totfact> 0.45043124E-01</totfact>
</mgrwt>
</event>
<event>
 4    5  0.1112901E-007  0.1097908E+04  0.7818608E-02  0.9263388E-01
         -2   -1    0    0    0  501 -0.00000000000E+00  0.00000000000E+00  0.15294752844E+04  0.15294752844E+04  0.25500000000E-02 0.  1.
          2   -1    0    0  501    0  0.00000000000E+00 -0.00000000000E+00 -0.17191500830E+04  0.17191500830E+04  0.25500000000E-02 0. -1.
    8880023    1    1    2    0    0  0.87406507985E+03 -0.87195397961E+02  0.11816158362E+04  0.16129534996E+04  0.65864270000E+03 0.  1.
    8880022    1    1    2    0    0 -0.87406507985E+03  0.87195397961E+02 -0.13712906348E+04  0.16356718679E+04  0.15294330000E+03 0.  0.
<mgrwt>
<rscale>  0 0.10422441E+04</rscale>
<asrwt>0</asrwt>
<pdfrwt beam="1">  1        2 0.26448463E+00 0.10979085E+04</pdfrwt>
<pdfrwt beam="2">  1       -2 0.23530389E+00 0.10979085E+04</pdfrwt>
<totfact> 0.74613292E-01</totfact>
</mgrwt>
</event>
<event>
 4    5  0.1112901E-007  0.1138380E+04  0.7818608E-02  0.9219482E-01
          2   -1    0    0  501    0  0.00000000000E+00  0.00000000000E+00  0.14216205413E+04  0.14216205413E+04  0.25500000000E-02 0. -1.
         -2   -1    0    0    0  501 -0.00000000000E+00 -0.00000000000E+00 -0.85048525786E+03  0.85048525786E+03  0.25500000000E-02 0.  1.
    8880023    1    1    2    0    0 -0.39701889220E+03 -0.83932981381E+03 -0.58499950375E+02  0.11398820060E+04  0.65864270000E+03 0.  1.
    8880022    1    1    2    0    0  0.39701889220E+03  0.83932981381E+03  0.62963523378E+03  0.11322237931E+04  0.15294330000E+03 0.  0.
<mgrwt>
<rscale>  0 0.10854589E+04</rscale>
<asrwt>0</asrwt>
<pdfrwt beam="1">  1        2 0.21871085E+00 0.11383799E+04</pdfrwt>
<pdfrwt beam="2">  1       -2 0.13084388E+00 0.11383799E+04</pdfrwt>
<totfact> 0.58847635E+00</totfact>
</mgrwt>
</event>
<event>
 4    5  0.1112901E-007  0.9894239E+03  0.7818608E-02  0.9395527E-01
         -2   -1    0    0    0  501 -0.00000000000E+00  0.00000000000E+00  0.62841389741E+03  0.62841389742E+03  0.25500000000E-02 0.  1.
          2   -1    0    0  501    0  0.00000000000E+00 -0.00000000000E+00 -0.30436993922E+04  0.30436993922E+04  0.25500000000E-02 0. -1.
    8880023    1    1    2    0    0 -0.65317872781E+03 -0.34424846514E+03  0.14781554210E+03  0.10004044667E+04  0.65864270000E+03 0.  1.
    8880022    1    1    2    0    0  0.65317872781E+03  0.34424846514E+03 -0.25631010369E+04  0.26717088229E+04  0.15294330000E+03 0.  0.
<mgrwt>
<rscale>  0 0.92444703E+03</rscale>
<asrwt>0</asrwt>
<pdfrwt beam="1">  1        2 0.46826144E+00 0.98942390E+03</pdfrwt>
<pdfrwt beam="2">  1       -2 0.96679063E-01 0.98942390E+03</pdfrwt>
<totfact> 0.14949489E+00</totfact>
</mgrwt>
</event>
<event>
 4    5  0.1112901E-007  0.9294376E+03  0.7818608E-02  0.9480337E-01
         -2   -1    0    0    0  501 -0.00000000000E+00  0.00000000000E+00  0.77664418365E+03  0.77664418365E+03  0.25500000000E-02 0.  1.
          2   -1    0    0  501    0  0.00000000000E+00 -0.00000000000E+00 -0.11967880656E+04  0.11967880656E+04  0.25500000000E-02 0. -1.
    8880023    1    1    2    0    0 -0.36292202823E+02 -0.65477242641E+03  0.31038941451E+03  0.97989583593E+03  0.65864270000E+03 0.  1.
    8880022    1    1    2    0    0  0.36292202823E+02  0.65477242641E+03 -0.73053329647E+03  0.99353641334E+03  0.15294330000E+03 0.  0.
<mgrwt>
<rscale>  0 0.85749115E+03</rscale>
<asrwt>0</asrwt>
<pdfrwt beam="1">  1        2 0.18412124E+00 0.92943760E+03</pdfrwt>
<pdfrwt beam="2">  1       -2 0.11948372E+00 0.92943760E+03</pdfrwt>
<totfact> 0.10205988E+01</totfact>
</mgrwt>
</event>
<event>
 4    5  0.1112901E-007  0.9047504E+03  0.7818608E-02  0.9518448E-01
          2   -1    0    0  501    0  0.00000000000E+00  0.00000000000E+00  0.13815209502E+04  0.13815209503E+04  0.25500000000E-02 0. -1.
         -2   -1    0    0    0  501 -0.00000000000E+00 -0.00000000000E+00 -0.88644982326E+03  0.88644982326E+03  0.25500000000E-02 0.  1.
    8880023    1    1    2    0    0 -0.49312069149E+03 -0.37629126761E+03 -0.53850674846E+03  0.10528831174E+04  0.65864270000E+03 0.  0.
    8880022    1    1    2    0    0  0.49312069149E+03  0.37629126761E+03  0.10335778755E+04  0.12150876561E+04  0.15294330000E+03 0.  0.
<mgrwt>
<rscale>  0 0.82937265E+03</rscale>
<asrwt>0</asrwt>
<pdfrwt beam="1">  1        2 0.21254168E+00 0.90475043E+03</pdfrwt>
<pdfrwt beam="2">  1       -2 0.13637690E+00 0.90475043E+03</pdfrwt>
<totfact> 0.57176322E+00</totfact>
</mgrwt>
</event>
<event>
 4    5  0.1112901E-007  0.6896850E+03  0.7818608E-02  0.1004303E+00
          2   -1    0    0  501    0  0.00000000000E+00  0.00000000000E+00  0.26592931819E+04  0.26592931819E+04  0.25500000000E-02 0. -1.
         -2   -1    0    0    0  501 -0.00000000000E+00 -0.00000000000E+00 -0.13555503488E+03  0.13555503491E+03  0.25500000000E-02 0.  1.
    8880023    1    1    2    0    0  0.43343649408E+02 -0.19994122716E+03  0.81736716531E+03  0.10694645648E+04  0.65864270000E+03 0.  0.
    8880022    1    1    2    0    0 -0.43343649408E+02  0.19994122716E+03  0.17063709817E+04  0.17253836520E+04  0.15294330000E+03 0.  0.
<mgrwt>
<rscale>  0 0.53803186E+03</rscale>
<asrwt>0</asrwt>
<pdfrwt beam="1">  1        2 0.40912200E+00 0.68968498E+03</pdfrwt>
<pdfrwt beam="2">  1       -2 0.20854622E-01 0.68968498E+03</pdfrwt>
<totfact> 0.58623573E+01</totfact>
</mgrwt>
</event>
<event>
 4    5  0.1112901E-007  0.7972972E+03  0.7818608E-02  0.9716671E-01
         -2   -1    0    0    0  501 -0.00000000000E+00  0.00000000000E+00  0.10485202634E+04  0.10485202634E+04  0.25500000000E-02 0.  1.
          2   -1    0    0  501    0  0.00000000000E+00 -0.00000000000E+00 -0.12292583360E+04  0.12292583360E+04  0.25500000000E-02 0. -1.
    8880023    1    1    2    0    0  0.17236938028E+03  0.41492330833E+03  0.83629331424E+03  0.11554519760E+04  0.65864270000E+03 0.  1.
    8880022    1    1    2    0    0 -0.17236938028E+03 -0.41492330833E+03 -0.10170313868E+04  0.11223266234E+04  0.15294330000E+03 0.  0.
<mgrwt>
<rscale>  0 0.70032832E+03</rscale>
<asrwt>0</asrwt>
<pdfrwt beam="1">  1        2 0.18911667E+00 0.79729716E+03</pdfrwt>
<pdfrwt beam="2">  1       -2 0.16131081E+00 0.79729716E+03</pdfrwt>
<totfact> 0.45536368E+00</totfact>
</mgrwt>
</event>
<event>
 4    5  0.1112901E-007  0.6899041E+03  0.7818608E-02  0.1004198E+00
         -2   -1    0    0    0  501 -0.00000000000E+00  0.00000000000E+00  0.16904994687E+04  0.16904994687E+04  0.25500000000E-02 0.  1.
          2   -1    0    0  501    0  0.00000000000E+00 -0.00000000000E+00 -0.12128367767E+04  0.12128367767E+04  0.25500000000E-02 0. -1.
    8880023    1    1    2    0    0  0.71981513186E+01  0.20519676551E+03  0.16051565720E+04  0.17471391910E+04  0.65864270000E+03 0.  0.
    8880022    1    1    2    0    0 -0.71981513186E+01 -0.20519676551E+03 -0.11274938800E+04  0.11561970543E+04  0.15294330000E+03 0.  0.
<mgrwt>
<rscale>  0 0.53847119E+03</rscale>
<asrwt>0</asrwt>
<pdfrwt beam="1">  1        2 0.18659027E+00 0.68990415E+03</pdfrwt>
<pdfrwt beam="2">  1       -2 0.26007684E+00 0.68990415E+03</pdfrwt>
<totfact> 0.10910091E+00</totfact>
</mgrwt>
</event>
<event>
 4    5  0.1748946E-007  0.1626786E+04  0.7818608E-02  0.8824936E-01
          2   -1    0    0  501    0  0.00000000000E+00  0.00000000000E+00  0.26970357126E+04  0.26970357126E+04  0.25500000000E-02 0. -1.
         -2   -1    0    0    0  501 -0.00000000000E+00 -0.00000000000E+00 -0.19222405556E+04  0.19222405556E+04  0.25500000000E-02 0.  1.
    8880023    1    1    2    0    0  0.75268102764E+03  0.12830013712E+04 -0.12855980050E+04  0.20734497063E+04  0.65864270000E+03 0.  0.
    8880022    1    1    2    0    0 -0.75268102764E+03 -0.12830013712E+04  0.20603931620E+04  0.25458265619E+04  0.15294330000E+03 0.  0.
<mgrwt>
<rscale>  0 0.15928762E+04</rscale>
<asrwt>0</asrwt>
<pdfrwt beam="1">  1        2 0.41492857E+00 0.16267856E+04</pdfrwt>
<pdfrwt beam="2">  1       -2 0.29572932E+00 0.16267856E+04</pdfrwt>
<totfact> 0.83127535E-02</totfact>
</mgrwt>
</event>
<event>
 4    5  0.1112901E-007  0.7207638E+03  0.7818608E-02  0.9920010E-01
          2   -1    0    0  501    0  0.00000000000E+00  0.00000000000E+00  0.41758551680E+04  0.41758551680E+04  0.25500000000E-02 0. -1.
         -2   -1    0    0    0  501 -0.00000000000E+00 -0.00000000000E+00 -0.21798775183E+03  0.21798775184E+03  0.25500000000E-02 0.  1.
    8880023    1    1    2    0    0  0.70819187306E+02  0.28403329044E+03  0.40717637588E+03  0.82782430183E+03  0.65864270000E+03 0.  1.
    8880022    1    1    2    0    0 -0.70819187306E+02 -0.28403329044E+03  0.35506910403E+04  0.35660186180E+04  0.15294330000E+03 0.  0.
<mgrwt>
<rscale>  0 0.59301247E+03</rscale>
<asrwt>0</asrwt>
<pdfrwt beam="1">  1        2 0.64243924E+00 0.72076381E+03</pdfrwt>
<pdfrwt beam="2">  1       -2 0.33536578E-01 0.72076381E+03</pdfrwt>
<totfact> 0.22810067E+00</totfact>
</mgrwt>
</event>
<event>
 4    5  0.1112901E-007  0.1069422E+04  0.7818608E-02  0.9295889E-01
          2   -1    0    0  501    0  0.00000000000E+00  0.00000000000E+00  0.27241746902E+04  0.27241746902E+04  0.25500000000E-02 0. -1.
         -2   -1    0    0    0  501 -0.00000000000E+00 -0.00000000000E+00 -0.65459990343E+03  0.65459990343E+03  0.25500000000E-02 0.  1.
    8880023    1    1    2    0    0  0.33426030697E+02  0.84186493460E+03 -0.72510127824E+02  0.10718776948E+04  0.65864270000E+03 0.  0.
    8880022    1    1    2    0    0 -0.33426030697E+02 -0.84186493460E+03  0.21420849146E+04  0.23068968989E+04  0.15294330000E+03 0.  0.
<mgrwt>
<rscale>  0 0.10116216E+04</rscale>
<asrwt>0</asrwt>
<pdfrwt beam="1">  1        2 0.41910380E+00 0.10694223E+04</pdfrwt>
<pdfrwt beam="2">  1       -2 0.10070768E+00 0.10694223E+04</pdfrwt>
<totfact> 0.20927871E+00</totfact>
</mgrwt>
</event>
<event>
 4    5  0.1112901E-007  0.1331857E+04  0.7818608E-02  0.9038526E-01
          2   -1    0    0  501    0  0.00000000000E+00  0.00000000000E+00  0.11058455155E+04  0.11058455155E+04  0.25500000000E-02 0. -1.
         -2   -1    0    0    0  501 -0.00000000000E+00 -0.00000000000E+00 -0.18114015170E+04  0.18114015171E+04  0.25500000000E-02 0.  1.
    8880023    1    1    2    0    0  0.79857776612E+03 -0.83803688469E+03 -0.10542761977E+04  0.16986290872E+04  0.65864270000E+03 0.  0.
    8880022    1    1    2    0    0 -0.79857776612E+03  0.83803688469E+03  0.34872019614E+03  0.12186179454E+04  0.15294330000E+03 0.  0.
<mgrwt>
<rscale>  0 0.12887599E+04</rscale>
<asrwt>0</asrwt>
<pdfrwt beam="1">  1        2 0.17013008E+00 0.13318568E+04</pdfrwt>
<pdfrwt beam="2">  1       -2 0.27867716E+00 0.13318568E+04</pdfrwt>
<totfact> 0.89112166E-01</totfact>
</mgrwt>
</event>
<event>
 4    5  0.1112901E-007  0.8491163E+03  0.7818608E-02  0.9613225E-01
         -2   -1    0    0    0  501 -0.00000000000E+00  0.00000000000E+00  0.50782145963E+03  0.50782145964E+03  0.25500000000E-02 0.  1.
          2   -1    0    0  501    0  0.00000000000E+00 -0.00000000000E+00 -0.15311639465E+04  0.15311639466E+04  0.25500000000E-02 0. -1.
    8880023    1    1    2    0    0 -0.33282368802E+03  0.42001987733E+03  0.27444602049E+02  0.84955971956E+03  0.65864270000E+03 0.  0.
    8880022    1    1    2    0    0  0.33282368802E+03 -0.42001987733E+03 -0.10507870890E+04  0.11894256866E+04  0.15294330000E+03 0.  0.
<mgrwt>
<rscale>  0 0.76427045E+03</rscale>
<asrwt>0</asrwt>
<pdfrwt beam="1">  1        2 0.23556368E+00 0.84911631E+03</pdfrwt>
<pdfrwt beam="2">  1       -2 0.78126379E-01 0.84911631E+03</pdfrwt>
<totfact> 0.17998684E+01</totfact>
</mgrwt>
</event>
<event>
 4    5  0.1112901E-007  0.6827529E+03  0.7818608E-02  0.1007807E+00
          2   -1    0    0  501    0  0.00000000000E+00  0.00000000000E+00  0.24149931813E+04  0.24149931813E+04  0.25500000000E-02 0. -1.
         -2   -1    0    0    0  501 -0.00000000000E+00 -0.00000000000E+00 -0.12722459215E+03  0.12722459217E+03  0.25500000000E-02 0.  1.
    8880023    1    1    2    0    0  0.13298457678E+03  0.12106379190E+03  0.87496989762E+03  0.11098305580E+04  0.65864270000E+03 0.  1.
    8880022    1    1    2    0    0 -0.13298457678E+03 -0.12106379190E+03  0.14127986915E+04  0.14323872155E+04  0.15294330000E+03 0.  0.
<mgrwt>
<rscale>  0 0.52355429E+03</rscale>
<asrwt>0</asrwt>
<pdfrwt beam="1">  1        2 0.37153740E+00 0.68275292E+03</pdfrwt>
<pdfrwt beam="2">  1       -2 0.19573015E-01 0.68275292E+03</pdfrwt>
<totfact> 0.90260984E+01</totfact>
</mgrwt>
</event>
<event>
 4    5  0.1112901E-007  0.8304958E+03  0.7818608E-02  0.9648369E-01
         -2   -1    0    0    0  501 -0.00000000000E+00  0.00000000000E+00  0.16262757433E+04  0.16262757433E+04  0.25500000000E-02 0.  1.
          2   -1    0    0  501    0  0.00000000000E+00 -0.00000000000E+00 -0.21896283914E+04  0.21896283914E+04  0.25500000000E-02 0. -1.
    8880023    1    1    2    0    0  0.41219147336E+03  0.29327671830E+03  0.14844661779E+04  0.17009888547E+04  0.65864270000E+03 0.  1.
    8880022    1    1    2    0    0 -0.41219147336E+03 -0.29327671830E+03 -0.20478188260E+04  0.21149152800E+04  0.15294330000E+03 0.  0.
<mgrwt>
<rscale>  0 0.74175905E+03</rscale>
<asrwt>0</asrwt>
<pdfrwt beam="1">  1        2 0.33686591E+00 0.83049579E+03</pdfrwt>
<pdfrwt beam="2">  1       -2 0.25019627E+00 0.83049579E+03</pdfrwt>
<totfact> 0.34876209E-01</totfact>
</mgrwt>
</event>
<event>
 4    5  0.1112901E-007  0.7959271E+03  0.7818608E-02  0.9719673E-01
          2   -1    0    0  501    0  0.00000000000E+00  0.00000000000E+00  0.28288231480E+04  0.28288231480E+04  0.25500000000E-02 0. -1.
         -2   -1    0    0    0  501 -0.00000000000E+00 -0.00000000000E+00 -0.17560466264E+03  0.17560466266E+03  0.25500000000E-02 0.  1.
    8880023    1    1    2    0    0  0.37315324209E+03  0.24585840739E+03  0.96242638060E+03  0.12489052978E+04  0.65864270000E+03 0.  0.
    8880022    1    1    2    0    0 -0.37315324209E+03 -0.24585840739E+03  0.16907921048E+04  0.17555225129E+04  0.15294330000E+03 0.  0.
<mgrwt>
<rscale>  0 0.69857472E+03</rscale>
<asrwt>0</asrwt>
<pdfrwt beam="1">  1        2 0.43520351E+00 0.79592707E+03</pdfrwt>
<pdfrwt beam="2">  1       -2 0.27016105E-01 0.79592707E+03</pdfrwt>
<totfact> 0.28888387E+01</totfact>
</mgrwt>
</event>
<event>
 4    5  0.1112901E-007  0.1083477E+04  0.7818608E-02  0.9279679E-01
         -2   -1    0    0    0  501 -0.00000000000E+00  0.00000000000E+00  0.77407472569E+03  0.77407472569E+03  0.25500000000E-02 0.  1.
          2   -1    0    0  501    0  0.00000000000E+00 -0.00000000000E+00 -0.14719588029E+04  0.14719588029E+04  0.25500000000E-02 0. -1.
    8880023    1    1    2    0    0 -0.81166845807E+03  0.28514426114E+03  0.65908826521E+02  0.10854801312E+04  0.65864270000E+03 0.  1.
    8880022    1    1    2    0    0  0.81166845807E+03 -0.28514426114E+03 -0.76379290377E+03  0.11605533975E+04  0.15294330000E+03 0.  0.
<mgrwt>
<rscale>  0 0.10267538E+04</rscale>
<asrwt>0</asrwt>
<pdfrwt beam="1">  1        2 0.22645520E+00 0.10834773E+04</pdfrwt>
<pdfrwt beam="2">  1       -2 0.11908842E+00 0.10834773E+04</pdfrwt>
<totfact> 0.70224429E+00</totfact>
</mgrwt>
</event>
<event>
 4    5  0.1112901E-007  0.8675393E+03  0.7818608E-02  0.9580291E-01
          2   -1    0    0  501    0  0.00000000000E+00  0.00000000000E+00  0.70174063915E+03  0.70174063915E+03  0.25500000000E-02 0. -1.
         -2   -1    0    0    0  501 -0.00000000000E+00 -0.00000000000E+00 -0.18981990673E+04  0.18981990673E+04  0.25500000000E-02 0.  1.
    8880023    1    1    2    0    0 -0.70796957096E+02 -0.56018027112E+03 -0.16470359743E+04  0.18615455547E+04  0.65864270000E+03 0.  1.
    8880022    1    1    2    0    0  0.70796957096E+02  0.56018027112E+03  0.45057754613E+03  0.73839415178E+03  0.15294330000E+03 0.  0.
<mgrwt>
<rscale>  0 0.78614521E+03</rscale>
<asrwt>0</asrwt>
<pdfrwt beam="1">  1        2 0.10796010E+00 0.86753925E+03</pdfrwt>
<pdfrwt beam="2">  1       -2 0.29203062E+00 0.86753925E+03</pdfrwt>
<totfact> 0.14843693E+00</totfact>
</mgrwt>
</event>
<event>
 4    5  0.1112901E-007  0.6591603E+03  0.7818608E-02  0.1025034E+00
         -2   -1    0    0    0  501 -0.00000000000E+00  0.00000000000E+00  0.18561551415E+03  0.18561551417E+03  0.25500000000E-02 0.  1.
          2   -1    0    0  501    0  0.00000000000E+00 -0.00000000000E+00 -0.21516143345E+04  0.21516143345E+04  0.25500000000E-02 0. -1.
    8880023    1    1    2    0    0  0.11543596285E+02 -0.23428691155E+02 -0.41593335819E+03  0.77941832343E+03  0.65864270000E+03 0.  1.
    8880022    1    1    2    0    0 -0.11543596285E+02  0.23428691155E+02 -0.15500654622E+04  0.15578115253E+04  0.15294330000E+03 0.  0.
<mgrwt>
<rscale>  0 0.45913078E+03</rscale>
<asrwt>0</asrwt>
<pdfrwt beam="1">  1        2 0.33101757E+00 0.65916035E+03</pdfrwt>
<pdfrwt beam="2">  1       -2 0.28556235E-01 0.65916035E+03</pdfrwt>
<totfact> 0.64453746E+01</totfact>
</mgrwt>
</event>
<event>
 4    5  0.1112901E-007  0.1030010E+04  0.7818608E-02  0.9343307E-01
          2   -1    0    0  501    0  0.00000000000E+00  0.00000000000E+00  0.17902305367E+04  0.17902305367E+04  0.25500000000E-02 0. -1.
         -2   -1    0    0    0  501 -0.00000000000E+00 -0.00000000000E+00 -0.78751264005E+03  0.78751264005E+03  0.25500000000E-02 0.  1.
    8880023    1    1    2    0    0  0.53000491820E+03  0.58839218619E+03 -0.27560930486E+03  0.10662463474E+04  0.65864270000E+03 0.  0.
    8880022    1    1    2    0    0 -0.53000491820E+03 -0.58839218619E+03  0.12783272015E+04  0.15114968293E+04  0.15294330000E+03 0.  0.
<mgrwt>
<rscale>  0 0.96891841E+03</rscale>
<asrwt>0</asrwt>
<pdfrwt beam="1">  1        2 0.27542008E+00 0.10300101E+04</pdfrwt>
<pdfrwt beam="2">  1       -2 0.12115579E+00 0.10300101E+04</pdfrwt>
<totfact> 0.44981062E+00</totfact>
</mgrwt>
</event>
<event>
 4    5  0.1112901E-007  0.1281251E+04  0.7818608E-02  0.9081922E-01
          2   -1    0    0  501    0  0.00000000000E+00  0.00000000000E+00  0.17538931708E+04  0.17538931708E+04  0.25500000000E-02 0. -1.
         -2   -1    0    0    0  501 -0.00000000000E+00 -0.00000000000E+00 -0.10864731172E+04  0.10864731172E+04  0.25500000000E-02 0.  1.
    8880023    1    1    2    0    0 -0.75903212500E+03  0.79477263897E+03 -0.35714396120E+03  0.13300959852E+04  0.65864270000E+03 0.  0.
    8880022    1    1    2    0    0  0.75903212500E+03 -0.79477263897E+03  0.10245640148E+04  0.15102703029E+04  0.15294330000E+03 0.  0.
<mgrwt>
<rscale>  0 0.12359930E+04</rscale>
<asrwt>0</asrwt>
<pdfrwt beam="1">  1        2 0.26982972E+00 0.12812508E+04</pdfrwt>
<pdfrwt beam="2">  1       -2 0.16714971E+00 0.12812508E+04</pdfrwt>
<totfact> 0.19687242E+00</totfact>
</mgrwt>
</event>
<event>
 4    5  0.1112901E-007  0.7298372E+03  0.7818608E-02  0.9890605E-01
         -2   -1    0    0    0  501 -0.00000000000E+00  0.00000000000E+00  0.13129039970E+03  0.13129039972E+03  0.25500000000E-02 0.  1.
          2   -1    0    0  501    0  0.00000000000E+00 -0.00000000000E+00 -0.29552284351E+04  0.29552284351E+04  0.25500000000E-02 0. -1.
    8880023    1    1    2    0    0 -0.11545950597E+03  0.29244008782E+03 -0.10517592509E+04  0.12801796087E+04  0.65864270000E+03 0.  1.
    8880022    1    1    2    0    0  0.11545950597E+03 -0.29244008782E+03 -0.17721787845E+04  0.18063392261E+04  0.15294330000E+03 0.  0.
<mgrwt>
<rscale>  0 0.60718750E+03</rscale>
<asrwt>0</asrwt>
<pdfrwt beam="1">  1        2 0.45465048E+00 0.72983718E+03</pdfrwt>
<pdfrwt beam="2">  1       -2 0.20198525E-01 0.72983718E+03</pdfrwt>
<totfact> 0.41197922E+01</totfact>
</mgrwt>
</event>
<event>
 4    5  0.1112901E-007  0.1170616E+04  0.7818608E-02  0.9186229E-01
          2   -1    0    0  501    0  0.00000000000E+00  0.00000000000E+00  0.23667956391E+04  0.23667956391E+04  0.25500000000E-02 0. -1.
         -2   -1    0    0    0  501 -0.00000000000E+00 -0.00000000000E+00 -0.57683649275E+03  0.57683649275E+03  0.25500000000E-02 0.  1.
    8880023    1    1    2    0    0  0.43949390104E+03 -0.86219237006E+03  0.38798599913E+03  0.12332371685E+04  0.65864270000E+03 0.  0.
    8880022    1    1    2    0    0 -0.43949390104E+03  0.86219237006E+03  0.14019731472E+04  0.17103949633E+04  0.15294330000E+03 0.  0.
<mgrwt>
<rscale>  0 0.11196705E+04</rscale>
<asrwt>0</asrwt>
<pdfrwt beam="1">  1        2 0.36412241E+00 0.11706156E+04</pdfrwt>
<pdfrwt beam="2">  1       -2 0.88744075E-01 0.11706156E+04</pdfrwt>
<totfact> 0.44735402E+00</totfact>
</mgrwt>
</event>
<event>
 4    5  0.1112901E-007  0.7347655E+03  0.7818608E-02  0.9875466E-01
          2   -1    0    0  501    0  0.00000000000E+00  0.00000000000E+00  0.29849947567E+04  0.29849947567E+04  0.25500000000E-02 0. -1.
         -2   -1    0    0    0  501 -0.00000000000E+00 -0.00000000000E+00 -0.25998766989E+03  0.25998766991E+03  0.25500000000E-02 0.  1.
    8880023    1    1    2    0    0  0.32374532143E+03  0.35483489021E+02  0.30036402704E+03  0.79378767069E+03  0.65864270000E+03 0.  1.
    8880022    1    1    2    0    0 -0.32374532143E+03 -0.35483489021E+02  0.24246430598E+04  0.24511947560E+04  0.15294330000E+03 0.  0.
<mgrwt>
<rscale>  0 0.61465193E+03</rscale>
<asrwt>0</asrwt>
<pdfrwt beam="1">  1        2 0.45922999E+00 0.73476548E+03</pdfrwt>
<pdfrwt beam="2">  1       -2 0.39998101E-01 0.73476548E+03</pdfrwt>
<totfact> 0.11208171E+01</totfact>
</mgrwt>
</event>
<event>
 4    5  0.1112901E-007  0.8927417E+03  0.7818608E-02  0.9537785E-01
          2   -1    0    0  501    0  0.00000000000E+00  0.00000000000E+00  0.15465517970E+04  0.15465517970E+04  0.25500000000E-02 0. -1.
         -2   -1    0    0    0  501 -0.00000000000E+00 -0.00000000000E+00 -0.82852510978E+03  0.82852510978E+03  0.25500000000E-02 0.  1.
    8880023    1    1    2    0    0  0.52754317961E+03 -0.29133448196E+03 -0.48858625416E+03  0.10176955934E+04  0.65864270000E+03 0.  0.
    8880022    1    1    2    0    0 -0.52754317961E+03  0.29133448196E+03  0.12066129414E+04  0.13573813134E+04  0.15294330000E+03 0.  0.
<mgrwt>
<rscale>  0 0.81554473E+03</rscale>
<asrwt>0</asrwt>
<pdfrwt beam="1">  1        2 0.23793104E+00 0.89274173E+03</pdfrwt>
<pdfrwt beam="2">  1       -2 0.12746540E+00 0.89274173E+03</pdfrwt>
<totfact> 0.54900096E+00</totfact>
</mgrwt>
</event>
<event>
 4    5  0.1112901E-007  0.9262946E+03  0.7818608E-02  0.9485074E-01
         -2   -1    0    0    0  501 -0.00000000000E+00  0.00000000000E+00  0.49180821455E+03  0.49180821456E+03  0.25500000000E-02 0.  1.
          2   -1    0    0  501    0  0.00000000000E+00 -0.00000000000E+00 -0.14421092451E+04  0.14421092451E+04  0.25500000000E-02 0. -1.
    8880023    1    1    2    0    0 -0.11754887405E+03 -0.64061975070E+03 -0.23736046972E+03  0.95622256908E+03  0.65864270000E+03 0.  0.
    8880022    1    1    2    0    0  0.11754887405E+03  0.64061975070E+03 -0.71294056084E+03  0.97769489058E+03  0.15294330000E+03 0.  0.
<mgrwt>
<rscale>  0 0.85393235E+03</rscale>
<asrwt>0</asrwt>
<pdfrwt beam="1">  1        2 0.22186296E+00 0.92629456E+03</pdfrwt>
<pdfrwt beam="2">  1       -2 0.75662803E-01 0.92629456E+03</pdfrwt>
<totfact> 0.21521786E+01</totfact>
</mgrwt>
</event>
<event>
 4    5  0.1112901E-007  0.8567008E+03  0.7818608E-02  0.9599459E-01
          2   -1    0    0  501    0  0.00000000000E+00  0.00000000000E+00  0.11333688048E+04  0.11333688048E+04  0.25500000000E-02 0. -1.
         -2   -1    0    0    0  501 -0.00000000000E+00 -0.00000000000E+00 -0.50504895546E+03  0.50504895547E+03  0.25500000000E-02 0.  1.
    8880023    1    1    2    0    0  0.40452979796E+03  0.36943419582E+03  0.10070603126E+03  0.86259949773E+03  0.65864270000E+03 0.  1.
    8880022    1    1    2    0    0 -0.40452979796E+03 -0.36943419582E+03  0.52761381812E+03  0.77581826259E+03  0.15294330000E+03 0. -1.
<mgrwt>
<rscale>  0 0.77331976E+03</rscale>
<asrwt>0</asrwt>
<pdfrwt beam="1">  1        2 0.17436443E+00 0.85670076E+03</pdfrwt>
<pdfrwt beam="2">  1       -2 0.77699841E-01 0.85670076E+03</pdfrwt>
<totfact> 0.30901010E+01</totfact>
</mgrwt>
</event>
<event>
 4    5  0.1112901E-007  0.9058090E+03  0.7818608E-02  0.9516770E-01
         -2   -1    0    0    0  501 -0.00000000000E+00  0.00000000000E+00  0.11900328984E+04  0.11900328984E+04  0.25500000000E-02 0.  1.
          2   -1    0    0  501    0  0.00000000000E+00 -0.00000000000E+00 -0.12038235894E+04  0.12038235894E+04  0.25500000000E-02 0. -1.
    8880023    1    1    2    0    0 -0.50267934917E+03 -0.36605081867E+03  0.90073254760E+03  0.12774228190E+04  0.65864270000E+03 0.  0.
    8880022    1    1    2    0    0  0.50267934917E+03  0.36605081867E+03 -0.91452323857E+03  0.11164336688E+04  0.15294330000E+03 0.  0.
<mgrwt>
<rscale>  0 0.83058657E+03</rscale>
<asrwt>0</asrwt>
<pdfrwt beam="1">  1        2 0.18520363E+00 0.90580900E+03</pdfrwt>
<pdfrwt beam="2">  1       -2 0.18308198E+00 0.90580900E+03</pdfrwt>
<totfact> 0.32625888E+00</totfact>
</mgrwt>
</event>
<event>
 4    5  0.1112901E-007  0.1292151E+04  0.7818608E-02  0.9072368E-01
          2   -1    0    0  501    0  0.00000000000E+00  0.00000000000E+00  0.10398106510E+04  0.10398106510E+04  0.25500000000E-02 0. -1.
         -2   -1    0    0    0  501 -0.00000000000E+00 -0.00000000000E+00 -0.16230622275E+04  0.16230622275E+04  0.25500000000E-02 0.  1.
    8880023    1    1    2    0    0 -0.10874236844E+04 -0.23098257378E+03 -0.80030849182E+03  0.15199168093E+04  0.65864270000E+03 0.  0.
    8880022    1    1    2    0    0  0.10874236844E+04  0.23098257378E+03  0.21705691533E+03  0.11429560692E+04  0.15294330000E+03 0.  0.
<mgrwt>
<rscale>  0 0.12473784E+04</rscale>
<asrwt>0</asrwt>
<pdfrwt beam="1">  1        2 0.15997087E+00 0.12921507E+04</pdfrwt>
<pdfrwt beam="2">  1       -2 0.24970188E+00 0.12921507E+04</pdfrwt>
<totfact> 0.14790933E+00</totfact>
</mgrwt>
</event>
<event>
 4    5  0.1112901E-007  0.1187802E+04  0.7818608E-02  0.9169072E-01
          2   -1    0    0  501    0  0.00000000000E+00  0.00000000000E+00  0.11014504737E+04  0.11014504737E+04  0.25500000000E-02 0. -1.
         -2   -1    0    0    0  501 -0.00000000000E+00 -0.00000000000E+00 -0.14523583620E+04  0.14523583620E+04  0.25500000000E-02 0.  1.
    8880023    1    1    2    0    0  0.87969308683E+03  0.45078153780E+03 -0.82571171911E+03  0.14466077461E+04  0.65864270000E+03 0.  0.
    8880022    1    1    2    0    0 -0.87969308683E+03 -0.45078153780E+03  0.47480383080E+03  0.11072010895E+04  0.15294330000E+03 0.  0.
<mgrwt>
<rscale>  0 0.11378443E+04</rscale>
<asrwt>0</asrwt>
<pdfrwt beam="1">  1        2 0.16945392E+00 0.11878022E+04</pdfrwt>
<pdfrwt beam="2">  1       -2 0.22343975E+00 0.11878022E+04</pdfrwt>
<totfact> 0.19893036E+00</totfact>
</mgrwt>
</event>
<event>
 4    5  0.1112901E-007  0.1623845E+04  0.7818608E-02  0.8826799E-01
          2   -1    0    0  501    0  0.00000000000E+00  0.00000000000E+00  0.29859226293E+04  0.29859226293E+04  0.25500000000E-02 0. -1.
         -2   -1    0    0    0  501 -0.00000000000E+00 -0.00000000000E+00 -0.15733227081E+04  0.15733227081E+04  0.25500000000E-02 0.  1.
    8880023    1    1    2    0    0  0.12019729782E+03 -0.14793970244E+04 -0.86234361721E+03  0.18386162369E+04  0.65864270000E+03 0.  0.
    8880022    1    1    2    0    0 -0.12019729782E+03  0.14793970244E+04  0.22749435384E+04  0.27206291004E+04  0.15294330000E+03 0.  0.
<mgrwt>
<rscale>  0 0.15898648E+04</rscale>
<asrwt>0</asrwt>
<pdfrwt beam="1">  1        2 0.45937271E+00 0.16238452E+04</pdfrwt>
<pdfrwt beam="2">  1       -2 0.24204965E+00 0.16238452E+04</pdfrwt>
<totfact> 0.11838097E-01</totfact>
</mgrwt>
</event>
<event>
 4    5  0.1112901E-007  0.8536969E+03  0.7818608E-02  0.9604875E-01
         -2   -1    0    0    0  501 -0.00000000000E+00  0.00000000000E+00  0.73452388113E+03  0.73452388113E+03  0.25500000000E-02 0.  1.
          2   -1    0    0  501    0  0.00000000000E+00 -0.00000000000E+00 -0.16058002930E+04  0.16058002930E+04  0.25500000000E-02 0. -1.
    8880023    1    1    2    0    0  0.49511452219E+03 -0.22327068646E+03  0.40499091230E+03  0.94488942995E+03  0.65864270000E+03 0.  0.
    8880022    1    1    2    0    0 -0.49511452219E+03  0.22327068646E+03 -0.12762673241E+04  0.13954347442E+04  0.15294330000E+03 0.  0.
<mgrwt>
<rscale>  0 0.76974340E+03</rscale>
<asrwt>0</asrwt>
<pdfrwt beam="1">  1        2 0.24704620E+00 0.85369690E+03</pdfrwt>
<pdfrwt beam="2">  1       -2 0.11300367E+00 0.85369690E+03</pdfrwt>
<totfact> 0.68972194E+00</totfact>
</mgrwt>
</event>
<event>
 4    5  0.1112901E-007  0.1491600E+04  0.7818608E-02  0.8915590E-01
          2   -1    0    0  501    0  0.00000000000E+00  0.00000000000E+00  0.51409556400E+04  0.51409556400E+04  0.25500000000E-02 0. -1.
         -2   -1    0    0    0  501 -0.00000000000E+00 -0.00000000000E+00 -0.67102180293E+03  0.67102180294E+03  0.25500000000E-02 0.  1.
    8880023    1    1    2    0    0  0.10371030025E+04 -0.84585996718E+03  0.41744482406E+04  0.44329324427E+04  0.65864270000E+03 0. -1.
    8880022    1    1    2    0    0 -0.10371030025E+04  0.84585996718E+03  0.29548559649E+03  0.13790450002E+04  0.15294330000E+03 0.  0.
<mgrwt>
<rscale>  0 0.14540609E+04</rscale>
<asrwt>0</asrwt>
<pdfrwt beam="1">  1        2 0.79091627E+00 0.14916005E+04</pdfrwt>
<pdfrwt beam="2">  1       -2 0.10323412E+00 0.14916005E+04</pdfrwt>
<totfact> 0.17127398E-02</totfact>
</mgrwt>
</event>
<event>
 4    5  0.1112901E-007  0.1251777E+04  0.7818608E-02  0.9108364E-01
          2   -1    0    0  501    0  0.00000000000E+00  0.00000000000E+00  0.11918590879E+04  0.11918590879E+04  0.25500000000E-02 0. -1.
         -2   -1    0    0    0  501 -0.00000000000E+00 -0.00000000000E+00 -0.18827706528E+04  0.18827706528E+04  0.25500000000E-02 0.  1.
    8880023    1    1    2    0    0 -0.85786671286E+02 -0.10610254864E+04 -0.13277519003E+04  0.18247930707E+04  0.65864270000E+03 0.  0.
    8880022    1    1    2    0    0  0.85786671286E+02  0.10610254864E+04  0.63684033543E+03  0.12498366700E+04  0.15294330000E+03 0.  0.
<mgrwt>
<rscale>  0 0.12051457E+04</rscale>
<asrwt>0</asrwt>
<pdfrwt beam="1">  1        2 0.18336294E+00 0.12517766E+04</pdfrwt>
<pdfrwt beam="2">  1       -2 0.28965702E+00 0.12517766E+04</pdfrwt>
<totfact> 0.68289829E-01</totfact>
</mgrwt>
</event>
<event>
 4    5  0.1112901E-007  0.2134643E+04  0.7818608E-02  0.8557024E-01
          2   -1    0    0  501    0  0.00000000000E+00  0.00000000000E+00  0.25130745538E+04  0.25130745538E+04  0.25500000000E-02 0. -1.
         -2   -1    0    0    0  501 -0.00000000000E+00 -0.00000000000E+00 -0.24988314393E+04  0.24988314393E+04  0.25500000000E-02 0.  1.
    8880023    1    1    2    0    0 -0.19961707571E+04 -0.37174244031E+03 -0.13819887328E+04  0.25429497040E+04  0.65864270000E+03 0.  0.
    8880022    1    1    2    0    0  0.19961707571E+04  0.37174244031E+03  0.13962318473E+04  0.24689562891E+04  0.15294330000E+03 0.  0.
<mgrwt>
<rscale>  0 0.21096056E+04</rscale>
<asrwt>0</asrwt>
<pdfrwt beam="1">  1        2 0.38662685E+00 0.21346429E+04</pdfrwt>
<pdfrwt beam="2">  1       -2 0.38443561E+00 0.21346429E+04</pdfrwt>
<totfact> 0.27895572E-02</totfact>
</mgrwt>
</event>
<event>
 4    5  0.1112901E-007  0.1346309E+04  0.7818608E-02  0.9026567E-01
          2   -1    0    0  501    0  0.00000000000E+00  0.00000000000E+00  0.13867562297E+04  0.13867562297E+04  0.25500000000E-02 0. -1.
         -2   -1    0    0    0  501 -0.00000000000E+00 -0.00000000000E+00 -0.17279221644E+04  0.17279221644E+04  0.25500000000E-02 0.  1.
    8880023    1    1    2    0    0  0.73208164538E+03  0.91803750221E+03 -0.10739319356E+04  0.17221720005E+04  0.65864270000E+03 0.  1.
    8880022    1    1    2    0    0 -0.73208164538E+03 -0.91803750221E+03  0.73276600083E+03  0.13925063935E+04  0.15294330000E+03 0.  0.
<mgrwt>
<rscale>  0 0.13037878E+04</rscale>
<asrwt>0</asrwt>
<pdfrwt beam="1">  1        2 0.21334711E+00 0.13463085E+04</pdfrwt>
<pdfrwt beam="2">  1       -2 0.26583418E+00 0.13463085E+04</pdfrwt>
<totfact> 0.72400037E-01</totfact>
</mgrwt>
</event>
<event>
 4    5  0.1112901E-007  0.8610697E+03  0.7818608E-02  0.9591664E-01
          2   -1    0    0  501    0  0.00000000000E+00  0.00000000000E+00  0.16411271822E+04  0.16411271822E+04  0.25500000000E-02 0. -1.
         -2   -1    0    0    0  501 -0.00000000000E+00 -0.00000000000E+00 -0.18903497955E+04  0.18903497955E+04  0.25500000000E-02 0.  1.
    8880023    1    1    2    0    0 -0.23693755603E+03 -0.50148917100E+03 -0.17356947594E+04  0.19375441410E+04  0.65864270000E+03 0.  1.
    8880022    1    1    2    0    0  0.23693755603E+03  0.50148917100E+03  0.14864721461E+04  0.15939328368E+04  0.15294330000E+03 0.  0.
<mgrwt>
<rscale>  0 0.77850410E+03</rscale>
<asrwt>0</asrwt>
<pdfrwt beam="1">  1        2 0.25248111E+00 0.86106968E+03</pdfrwt>
<pdfrwt beam="2">  1       -2 0.29082304E+00 0.86106968E+03</pdfrwt>
<totfact> 0.39429405E-01</totfact>
</mgrwt>
</event>
<event>
 4    5  0.1112901E-007  0.8688846E+03  0.7818608E-02  0.9577951E-01
          2   -1    0    0  501    0  0.00000000000E+00  0.00000000000E+00  0.17223467872E+04  0.17223467872E+04  0.25500000000E-02 0. -1.
         -2   -1    0    0    0  501 -0.00000000000E+00 -0.00000000000E+00 -0.52773718110E+03  0.52773718111E+03  0.25500000000E-02 0.  1.
    8880023    1    1    2    0    0  0.87576624053E+02 -0.55989342883E+03 -0.53818431113E+02  0.87054979554E+03  0.65864270000E+03 0.  1.
    8880022    1    1    2    0    0 -0.87576624053E+02  0.55989342883E+03  0.12484280372E+04  0.13795341728E+04  0.15294330000E+03 0.  0.
<mgrwt>
<rscale>  0 0.78772904E+03</rscale>
<asrwt>0</asrwt>
<pdfrwt beam="1">  1        2 0.26497643E+00 0.86888464E+03</pdfrwt>
<pdfrwt beam="2">  1       -2 0.81190336E-01 0.86888464E+03</pdfrwt>
<totfact> 0.12911355E+01</totfact>
</mgrwt>
</event>
<event>
 4    5  0.1112901E-007  0.1470783E+04  0.7818608E-02  0.8930547E-01
         -2   -1    0    0    0  501 -0.00000000000E+00  0.00000000000E+00  0.21021821975E+04  0.21021821975E+04  0.25500000000E-02 0.  1.
          2   -1    0    0  501    0  0.00000000000E+00 -0.00000000000E+00 -0.10394699759E+04  0.10394699759E+04  0.25500000000E-02 0. -1.
    8880023    1    1    2    0    0 -0.11818469258E+04  0.57674166386E+03  0.10681191587E+04  0.18177133565E+04  0.65864270000E+03 0.  0.
    8880022    1    1    2    0    0  0.11818469258E+04 -0.57674166386E+03 -0.54069370872E+01  0.13239388169E+04  0.15294330000E+03 0.  0.
<mgrwt>
<rscale>  0 0.14326087E+04</rscale>
<asrwt>0</asrwt>
<pdfrwt beam="1">  1        2 0.15991846E+00 0.14707832E+04</pdfrwt>
<pdfrwt beam="2">  1       -2 0.32341264E+00 0.14707832E+04</pdfrwt>
<totfact> 0.51535166E-01</totfact>
</mgrwt>
</event>
<event>
 4    5  0.1112901E-007  0.7088799E+03  0.7818608E-02  0.9962184E-01
         -2   -1    0    0    0  501 -0.00000000000E+00  0.00000000000E+00  0.28560435313E+03  0.28560435314E+03  0.25500000000E-02 0.  1.
          2   -1    0    0  501    0  0.00000000000E+00 -0.00000000000E+00 -0.90528467575E+03  0.90528467575E+03  0.25500000000E-02 0. -1.
    8880023    1    1    2    0    0  0.24664135767E+03 -0.88705022778E+02 -0.38082798358E+03  0.80469913615E+03  0.65864270000E+03 0.  1.
    8880022    1    1    2    0    0 -0.24664135767E+03  0.88705022778E+02 -0.23885233904E+03  0.38618989274E+03  0.15294330000E+03 0. -1.
<mgrwt>
<rscale>  0 0.57339957E+03</rscale>
<asrwt>0</asrwt>
<pdfrwt beam="1">  1        2 0.13927456E+00 0.70887992E+03</pdfrwt>
<pdfrwt beam="2">  1       -2 0.43939132E-01 0.70887992E+03</pdfrwt>
<totfact> 0.14485549E+02</totfact>
</mgrwt>
</event>
<event>
 4    5  0.1112901E-007  0.8737036E+03  0.7818608E-02  0.9569637E-01
          2   -1    0    0  501    0  0.00000000000E+00  0.00000000000E+00  0.34462810861E+03  0.34462810862E+03  0.25500000000E-02 0. -1.
         -2   -1    0    0    0  501 -0.00000000000E+00 -0.00000000000E+00 -0.17142448024E+04  0.17142448024E+04  0.25500000000E-02 0.  1.
    8880023    1    1    2    0    0  0.53708298912E+03 -0.20270583784E+03 -0.11045672229E+04  0.14083418442E+04  0.65864270000E+03 0.  1.
    8880022    1    1    2    0    0 -0.53708298912E+03  0.20270583784E+03 -0.26504947088E+03  0.65053106684E+03  0.15294330000E+03 0.  0.
<mgrwt>
<rscale>  0 0.79338799E+03</rscale>
<asrwt>0</asrwt>
<pdfrwt beam="1">  1        2 0.53019710E-01 0.87370361E+03</pdfrwt>
<pdfrwt beam="2">  1       -2 0.26372997E+00 0.87370361E+03</pdfrwt>
<totfact> 0.50590214E+00</totfact>
</mgrwt>
</event>
<event>
 4    5  0.1112901E-007  0.7669302E+03  0.7818608E-02  0.9787485E-01
         -2   -1    0    0    0  501 -0.00000000000E+00  0.00000000000E+00  0.15320016036E+03  0.15320016039E+03  0.25500000000E-02 0.  1.
          2   -1    0    0  501    0  0.00000000000E+00 -0.00000000000E+00 -0.33592658172E+04  0.33592658172E+04  0.25500000000E-02 0. -1.
    8880023    1    1    2    0    0 -0.23476959908E+03  0.31504743290E+03 -0.96779540022E+03  0.12348318884E+04  0.65864270000E+03 0.  0.
    8880022    1    1    2    0    0  0.23476959908E+03 -0.31504743290E+03 -0.22382702566E+04  0.22776340892E+04  0.15294330000E+03 0.  0.
<mgrwt>
<rscale>  0 0.66038488E+03</rscale>
<asrwt>0</asrwt>
<pdfrwt beam="1">  1        2 0.51681007E+00 0.76693015E+03</pdfrwt>
<pdfrwt beam="2">  1       -2 0.23569258E-01 0.76693015E+03</pdfrwt>
<totfact> 0.17315226E+01</totfact>
</mgrwt>
</event>
<event>
 4    5  0.1112901E-007  0.1423081E+04  0.7818608E-02  0.8965952E-01
         -2   -1    0    0    0  501 -0.00000000000E+00  0.00000000000E+00  0.12515190075E+04  0.12515190075E+04  0.25500000000E-02 0.  1.
          2   -1    0    0  501    0  0.00000000000E+00 -0.00000000000E+00 -0.28879913987E+04  0.28879913987E+04  0.25500000000E-02 0. -1.
    8880023    1    1    2    0    0 -0.35740062218E+03  0.12097995230E+04  0.61807970098E+03  0.15515098497E+04  0.65864270000E+03 0.  0.
    8880022    1    1    2    0    0  0.35740062218E+03 -0.12097995230E+04 -0.22545520923E+04  0.25880005565E+04  0.15294330000E+03 0.  0.
<mgrwt>
<rscale>  0 0.13833598E+04</rscale>
<asrwt>0</asrwt>
<pdfrwt beam="1">  1        2 0.44430637E+00 0.14230813E+04</pdfrwt>
<pdfrwt beam="2">  1       -2 0.19254139E+00 0.14230813E+04</pdfrwt>
<totfact> 0.28973506E-01</totfact>
</mgrwt>
</event>
<event>
 4    5  0.1112901E-007  0.8328156E+03  0.7818608E-02  0.9643879E-01
         -2   -1    0    0    0  501 -0.00000000000E+00  0.00000000000E+00  0.10669501138E+04  0.10669501138E+04  0.25500000000E-02 0.  1.
          2   -1    0    0  501    0  0.00000000000E+00 -0.00000000000E+00 -0.25962265701E+04  0.25962265701E+04  0.25500000000E-02 0. -1.
    8880023    1    1    2    0    0  0.45387852902E+03  0.23187475041E+03  0.87072930105E+03  0.12048864432E+04  0.65864270000E+03 0.  1.
    8880022    1    1    2    0    0 -0.45387852902E+03 -0.23187475041E+03 -0.24000057574E+04  0.24582902407E+04  0.15294330000E+03 0.  0.
<mgrwt>
<rscale>  0 0.74458838E+03</rscale>
<asrwt>0</asrwt>
<pdfrwt beam="1">  1        2 0.39941947E+00 0.83281560E+03</pdfrwt>
<pdfrwt beam="2">  1       -2 0.16414617E+00 0.83281560E+03</pdfrwt>
<totfact> 0.74598220E-01</totfact>
</mgrwt>
</event>
<event>
 4    5  0.1112901E-007  0.1239945E+04  0.7818608E-02  0.9119238E-01
          2   -1    0    0  501    0  0.00000000000E+00  0.00000000000E+00  0.21736004526E+04  0.21736004526E+04  0.25500000000E-02 0. -1.
         -2   -1    0    0    0  501 -0.00000000000E+00 -0.00000000000E+00 -0.11565344754E+04  0.11565344754E+04  0.25500000000E-02 0.  1.
    8880023    1    1    2    0    0  0.10469407085E+04 -0.86993927439E+02 -0.61428510887E+03  0.13837663067E+04  0.65864270000E+03 0.  1.
    8880022    1    1    2    0    0 -0.10469407085E+04  0.86993927439E+02  0.16313510862E+04  0.19463686212E+04  0.15294330000E+03 0.  0.
<mgrwt>
<rscale>  0 0.11927362E+04</rscale>
<asrwt>0</asrwt>
<pdfrwt beam="1">  1        2 0.33440007E+00 0.12399448E+04</pdfrwt>
<pdfrwt beam="2">  1       -2 0.17792838E+00 0.12399448E+04</pdfrwt>
<totfact> 0.96962352E-01</totfact>
</mgrwt>
</event>
<event>
 4    5  0.1112901E-007  0.6660912E+03  0.7818608E-02  0.1018635E+00
          2   -1    0    0  501    0  0.00000000000E+00  0.00000000000E+00  0.24875101910E+04  0.24875101910E+04  0.25500000000E-02 0. -1.
         -2   -1    0    0    0  501 -0.00000000000E+00 -0.00000000000E+00 -0.19032857926E+03  0.19032857928E+03  0.25500000000E-02 0.  1.
    8880023    1    1    2    0    0 -0.43726403139E+02  0.89192091221E+02  0.41062898060E+03  0.78249191270E+03  0.65864270000E+03 0.  1.
    8880022    1    1    2    0    0  0.43726403139E+02 -0.89192091221E+02  0.18865526311E+04  0.18953468576E+04  0.15294330000E+03 0.  0.
<mgrwt>
<rscale>  0 0.48182431E+03</rscale>
<asrwt>0</asrwt>
<pdfrwt beam="1">  1        2 0.38269386E+00 0.66609116E+03</pdfrwt>
<pdfrwt beam="2">  1       -2 0.29281321E-01 0.66609116E+03</pdfrwt>
<totfact> 0.40033313E+01</totfact>
</mgrwt>
</event>
<event>
 4    5  0.1112901E-007  0.7896388E+03  0.7818608E-02  0.9733664E-01
         -2   -1    0    0    0  501 -0.00000000000E+00  0.00000000000E+00  0.24909237798E+03  0.24909237799E+03  0.25500000000E-02 0.  1.
          2   -1    0    0  501    0  0.00000000000E+00 -0.00000000000E+00 -0.20722962715E+04  0.20722962715E+04  0.25500000000E-02 0. -1.
    8880023    1    1    2    0    0 -0.18115008542E+03  0.39611097117E+03 -0.53722446145E+03  0.95505998930E+03  0.65864270000E+03 0.  1.
    8880022    1    1    2    0    0  0.18115008542E+03 -0.39611097117E+03 -0.12859794321E+04  0.13663286602E+04  0.15294330000E+03 0.  0.
<mgrwt>
<rscale>  0 0.69047360E+03</rscale>
<asrwt>0</asrwt>
<pdfrwt beam="1">  1        2 0.31881480E+00 0.78963882E+03</pdfrwt>
<pdfrwt beam="2">  1       -2 0.38321906E-01 0.78963882E+03</pdfrwt>
<totfact> 0.40231606E+01</totfact>
</mgrwt>
</event>
<event>
 4    5  0.1112901E-007  0.1509978E+04  0.7818608E-02  0.8902622E-01
         -2   -1    0    0    0  501 -0.00000000000E+00  0.00000000000E+00  0.12481650685E+04  0.12481650685E+04  0.25500000000E-02 0.  1.
          2   -1    0    0  501    0  0.00000000000E+00 -0.00000000000E+00 -0.23298991861E+04  0.23298991861E+04  0.25500000000E-02 0. -1.
    8880023    1    1    2    0    0 -0.57531289447E+03  0.12309498400E+04  0.39978013290E+03  0.15620040961E+04  0.65864270000E+03 0.  1.
    8880022    1    1    2    0    0  0.57531289447E+03 -0.12309498400E+04 -0.14815142505E+04  0.20160601585E+04  0.15294330000E+03 0.  0.
<mgrwt>
<rscale>  0 0.14729802E+04</rscale>
<asrwt>0</asrwt>
<pdfrwt beam="1">  1        2 0.35844603E+00 0.15099777E+04</pdfrwt>
<pdfrwt beam="2">  1       -2 0.19202540E+00 0.15099777E+04</pdfrwt>
<totfact> 0.61489293E-01</totfact>
</mgrwt>
</event>
<event>
 4    5  0.1112901E-007  0.6602803E+03  0.7818608E-02  0.1023871E+00
         -2   -1    0    0    0  501 -0.00000000000E+00  0.00000000000E+00  0.22517959365E+03  0.22517959366E+03  0.25500000000E-02 0.  1.
          2   -1    0    0  501    0  0.00000000000E+00 -0.00000000000E+00 -0.15400481985E+04  0.15400481985E+04  0.25500000000E-02 0. -1.
    8880023    1    1    2    0    0  0.34760235661E+02 -0.30847448189E+02 -0.27851241975E+03  0.71661650362E+03  0.65864270000E+03 0.  1.
    8880022    1    1    2    0    0 -0.34760235661E+02  0.30847448189E+02 -0.10363561851E+04  0.10486112885E+04  0.15294330000E+03 0.  0.
<mgrwt>
<rscale>  0 0.46315172E+03</rscale>
<asrwt>0</asrwt>
<pdfrwt beam="1">  1        2 0.23693049E+00 0.66028028E+03</pdfrwt>
<pdfrwt beam="2">  1       -2 0.34643015E-01 0.66028028E+03</pdfrwt>
<totfact> 0.96780466E+01</totfact>
</mgrwt>
</event>
<event>
 4    5  0.1112901E-007  0.8404753E+03  0.7818608E-02  0.9629285E-01
          2   -1    0    0  501    0  0.00000000000E+00  0.00000000000E+00  0.24230014384E+04  0.24230014384E+04  0.25500000000E-02 0. -1.
         -2   -1    0    0    0  501 -0.00000000000E+00 -0.00000000000E+00 -0.63306653555E+03  0.63306653556E+03  0.25500000000E-02 0.  1.
    8880023    1    1    2    0    0 -0.17897071164E+03 -0.49046715537E+03 -0.30311835645E+03  0.89346487922E+03  0.65864270000E+03 0.  0.
    8880022    1    1    2    0    0  0.17897071164E+03  0.49046715537E+03  0.20930532593E+04  0.21626030948E+04  0.15294330000E+03 0.  0.
<mgrwt>
<rscale>  0 0.75387884E+03</rscale>
<asrwt>0</asrwt>
<pdfrwt beam="1">  1        2 0.37276945E+00 0.84047531E+03</pdfrwt>
<pdfrwt beam="2">  1       -2 0.97394852E-01 0.84047531E+03</pdfrwt>
<totfact> 0.34972732E+00</totfact>
</mgrwt>
</event>
<event>
 4    5  0.1172947E-007  0.1502788E+04  0.7818608E-02  0.8907670E-01
         -2   -1    0    0    0  501 -0.00000000000E+00  0.00000000000E+00  0.19979641246E+04  0.19979641246E+04  0.25500000000E-02 0.  1.
          2   -1    0    0  501    0  0.00000000000E+00 -0.00000000000E+00 -0.46347991666E+04  0.46347991666E+04  0.25500000000E-02 0. -1.
    8880023    1    1    2    0    0 -0.78180280031E+03 -0.11015199228E+04  0.15929228104E+04  0.21899258081E+04  0.65864270000E+03 0.  0.
    8880022    1    1    2    0    0  0.78180280031E+03  0.11015199228E+04 -0.42297578523E+04  0.44428374831E+04  0.15294330000E+03 0.  0.
<mgrwt>
<rscale>  0 0.14655805E+04</rscale>
<asrwt>0</asrwt>
<pdfrwt beam="1">  1        2 0.71304602E+00 0.15027881E+04</pdfrwt>
<pdfrwt beam="2">  1       -2 0.30737910E+00 0.15027881E+04</pdfrwt>
<totfact> 0.24928068E-03</totfact>
</mgrwt>
</event>
<event>
 4    5  0.1112901E-007  0.1133253E+04  0.7818608E-02  0.9224906E-01
         -2   -1    0    0    0  501 -0.00000000000E+00  0.00000000000E+00  0.44802343745E+03  0.44802343746E+03  0.25500000000E-02 0.  1.
          2   -1    0    0  501    0  0.00000000000E+00 -0.00000000000E+00 -0.32534296593E+04  0.32534296593E+04  0.25500000000E-02 0. -1.
    8880023    1    1    2    0    0 -0.51373343892E+03  0.76585185499E+03 -0.54931993949E+03  0.12593703634E+04  0.65864270000E+03 0.  0.
    8880022    1    1    2    0    0  0.51373343892E+03 -0.76585185499E+03 -0.22560862824E+04  0.24420827334E+04  0.15294330000E+03 0.  0.
<mgrwt>
<rscale>  0 0.10800011E+04</rscale>
<asrwt>0</asrwt>
<pdfrwt beam="1">  1        2 0.50052763E+00 0.11332525E+04</pdfrwt>
<pdfrwt beam="2">  1       -2 0.68926685E-01 0.11332525E+04</pdfrwt>
<totfact> 0.23201238E+00</totfact>
</mgrwt>
</event>
<event>
 4    5  0.1112901E-007  0.1287974E+04  0.7818608E-02  0.9076016E-01
          2   -1    0    0  501    0  0.00000000000E+00  0.00000000000E+00  0.82725915599E+03  0.82725915599E+03  0.25500000000E-02 0. -1.
         -2   -1    0    0    0  501 -0.00000000000E+00 -0.00000000000E+00 -0.17993143001E+04  0.17993143001E+04  0.25500000000E-02 0.  1.
    8880023    1    1    2    0    0  0.99353074747E+03 -0.48781388637E+03 -0.73988353196E+03  0.14853631142E+04  0.65864270000E+03 0.  0.
    8880022    1    1    2    0    0 -0.99353074747E+03  0.48781388637E+03 -0.23217161212E+03  0.11412103419E+04  0.15294330000E+03 0.  0.
<mgrwt>
<rscale>  0 0.12430166E+04</rscale>
<asrwt>0</asrwt>
<pdfrwt beam="1">  1        2 0.12727064E+00 0.12879736E+04</pdfrwt>
<pdfrwt beam="2">  1       -2 0.27681758E+00 0.12879736E+04</pdfrwt>
<totfact> 0.14060199E+00</totfact>
</mgrwt>
</event>
<event>
 4    5  0.1112901E-007  0.1023095E+04  0.7818608E-02  0.9351947E-01
         -2   -1    0    0    0  501 -0.00000000000E+00  0.00000000000E+00  0.87361107988E+03  0.87361107988E+03  0.25500000000E-02 0.  1.
          2   -1    0    0  501    0  0.00000000000E+00 -0.00000000000E+00 -0.28783932744E+04  0.28783932744E+04  0.25500000000E-02 0. -1.
    8880023    1    1    2    0    0 -0.76988588530E+03 -0.14208635973E+03  0.48885524719E+03  0.11338882083E+04  0.65864270000E+03 0.  1.
    8880022    1    1    2    0    0  0.76988588530E+03  0.14208635973E+03 -0.24936374418E+04  0.26181161460E+04  0.15294330000E+03 0.  0.
<mgrwt>
<rscale>  0 0.96137990E+03</rscale>
<asrwt>0</asrwt>
<pdfrwt beam="1">  1        2 0.44282973E+00 0.10230948E+04</pdfrwt>
<pdfrwt beam="2">  1       -2 0.13440171E+00 0.10230948E+04</pdfrwt>
<totfact> 0.83521039E-01</totfact>
</mgrwt>
</event>
<event>
 4    5  0.1112901E-007  0.8281041E+03  0.7818608E-02  0.9653033E-01
         -2   -1    0    0    0  501 -0.00000000000E+00  0.00000000000E+00  0.83111137623E+03  0.83111137624E+03  0.25500000000E-02 0.  1.
          2   -1    0    0  501    0  0.00000000000E+00 -0.00000000000E+00 -0.67523014375E+03  0.67523014375E+03  0.25500000000E-02 0. -1.
    8880023    1    1    2    0    0  0.45885381021E+03 -0.20346817632E+03  0.40917658033E+03  0.92367840620E+03  0.65864270000E+03 0.  1.
    8880022    1    1    2    0    0 -0.45885381021E+03  0.20346817632E+03 -0.25329534785E+03  0.58266311379E+03  0.15294330000E+03 0.  0.
<mgrwt>
<rscale>  0 0.73883406E+03</rscale>
<asrwt>0</asrwt>
<pdfrwt beam="1">  1        2 0.10388156E+00 0.82810405E+03</pdfrwt>
<pdfrwt beam="2">  1       -2 0.12786329E+00 0.82810405E+03</pdfrwt>
<totfact> 0.19551903E+01</totfact>
</mgrwt>
</event>
<event>
 4    5  0.1112901E-007  0.1124400E+04  0.7818608E-02  0.9234364E-01
         -2   -1    0    0    0  501 -0.00000000000E+00  0.00000000000E+00  0.79742244899E+03  0.79742244900E+03  0.25500000000E-02 0.  1.
          2   -1    0    0  501    0  0.00000000000E+00 -0.00000000000E+00 -0.38435437967E+04  0.38435437967E+04  0.25500000000E-02 0. -1.
    8880023    1    1    2    0    0  0.32932673960E+03 -0.84971082124E+03  0.30479436400E+03  0.11649782795E+04  0.65864270000E+03 0.  0.
    8880022    1    1    2    0    0 -0.32932673960E+03  0.84971082124E+03 -0.33509157117E+04  0.34759879662E+04  0.15294330000E+03 0.  0.
<mgrwt>
<rscale>  0 0.10705665E+04</rscale>
<asrwt>0</asrwt>
<pdfrwt beam="1">  1        2 0.59131442E+00 0.11243997E+04</pdfrwt>
<pdfrwt beam="2">  1       -2 0.12268038E+00 0.11243997E+04</pdfrwt>
<totfact> 0.23295966E-01</totfact>
</mgrwt>
</event>
<event>
 4    5  0.1112901E-007  0.6967584E+03  0.7818608E-02  0.1001092E+00
         -2   -1    0    0    0  501 -0.00000000000E+00  0.00000000000E+00  0.83694860046E+03  0.83694860046E+03  0.25500000000E-02 0.  1.
          2   -1    0    0  501    0  0.00000000000E+00 -0.00000000000E+00 -0.14140079682E+04  0.14140079682E+04  0.25500000000E-02 0. -1.
    8880023    1    1    2    0    0 -0.71966513451E+02 -0.21559877472E+03  0.67450606115E+03  0.96975803349E+03  0.65864270000E+03 0.  1.
    8880022    1    1    2    0    0  0.71966513451E+02  0.21559877472E+03 -0.12515654289E+04  0.12811985352E+04  0.15294330000E+03 0.  0.
<mgrwt>
<rscale>  0 0.55173830E+03</rscale>
<asrwt>0</asrwt>
<pdfrwt beam="1">  1        2 0.21753969E+00 0.69675836E+03</pdfrwt>
<pdfrwt beam="2">  1       -2 0.12876132E+00 0.69675836E+03</pdfrwt>
<totfact> 0.65224137E+00</totfact>
</mgrwt>
</event>
<event>
 4    5  0.1112901E-007  0.1373742E+04  0.7818608E-02  0.9004360E-01
         -2   -1    0    0    0  501 -0.00000000000E+00  0.00000000000E+00  0.15249872215E+04  0.15249872215E+04  0.25500000000E-02 0.  1.
          2   -1    0    0  501    0  0.00000000000E+00 -0.00000000000E+00 -0.19596305726E+04  0.19596305726E+04  0.25500000000E-02 0. -1.
    8880023    1    1    2    0    0 -0.11923705912E+04 -0.17778632670E+03  0.92876811567E+03  0.16582448624E+04  0.65864270000E+03 0. -1.
    8880022    1    1    2    0    0  0.11923705912E+04  0.17778632670E+03 -0.13634114668E+04  0.18263729316E+04  0.15294330000E+03 0.  0.
<mgrwt>
<rscale>  0 0.13322694E+04</rscale>
<asrwt>0</asrwt>
<pdfrwt beam="1">  1        2 0.30148163E+00 0.13737415E+04</pdfrwt>
<pdfrwt beam="2">  1       -2 0.23461342E+00 0.13737415E+04</pdfrwt>
<totfact> 0.53544140E-01</totfact>
</mgrwt>
</event>
<event>
 4    5  0.1112901E-007  0.1132260E+04  0.7818608E-02  0.9225961E-01
         -2   -1    0    0    0  501 -0.00000000000E+00  0.00000000000E+00  0.76007645011E+03  0.76007645011E+03  0.25500000000E-02 0.  1.
          2   -1    0    0  501    0  0.00000000000E+00 -0.00000000000E+00 -0.19222385353E+04  0.19222385353E+04  0.25500000000E-02 0. -1.
    8880023    1    1    2    0    0  0.13655056429E+03  0.91079941655E+03  0.72314324951E+02  0.11345665259E+04  0.65864270000E+03 0.  0.
    8880022    1    1    2    0    0 -0.13655056429E+03 -0.91079941655E+03 -0.12344764101E+04  0.15477484595E+04  0.15294330000E+03 0.  0.
<mgrwt>
<rscale>  0 0.10789436E+04</rscale>
<asrwt>0</asrwt>
<pdfrwt beam="1">  1        2 0.29572900E+00 0.11322596E+04</pdfrwt>
<pdfrwt beam="2">  1       -2 0.11693484E+00 0.11322596E+04</pdfrwt>
<totfact> 0.41076356E+00</totfact>
</mgrwt>
</event>
<event>
 4    5  0.1112901E-007  0.7124003E+03  0.7818608E-02  0.9949193E-01
          2   -1    0    0  501    0  0.00000000000E+00  0.00000000000E+00  0.18760993966E+04  0.18760993966E+04  0.25500000000E-02 0. -1.
         -2   -1    0    0    0  501 -0.00000000000E+00 -0.00000000000E+00 -0.94591845560E+03  0.94591845561E+03  0.25500000000E-02 0.  1.
    8880023    1    1    2    0    0  0.19149539675E+03 -0.19244091023E+03 -0.79582708744E+03  0.10681081173E+04  0.65864270000E+03 0.  1.
    8880022    1    1    2    0    0 -0.19149539675E+03  0.19244091023E+03  0.17260080285E+04  0.17539097349E+04  0.15294330000E+03 0.  0.
<mgrwt>
<rscale>  0 0.57935271E+03</rscale>
<asrwt>0</asrwt>
<pdfrwt beam="1">  1        2 0.28863067E+00 0.71240031E+03</pdfrwt>
<pdfrwt beam="2">  1       -2 0.14552592E+00 0.71240031E+03</pdfrwt>
<totfact> 0.26467847E+00</totfact>
</mgrwt>
</event>
<event>
 4    5  0.1112901E-007  0.7439055E+03  0.7818608E-02  0.9848713E-01
          2   -1    0    0  501    0  0.00000000000E+00  0.00000000000E+00  0.15846654648E+04  0.15846654648E+04  0.25500000000E-02 0. -1.
         -2   -1    0    0    0  501 -0.00000000000E+00 -0.00000000000E+00 -0.69215085996E+03  0.69215085997E+03  0.25500000000E-02 0.  1.
    8880023    1    1    2    0    0 -0.27381652960E+03 -0.21120991332E+03 -0.45852185941E+03  0.87386361704E+03  0.65864270000E+03 0.  1.
    8880022    1    1    2    0    0  0.27381652960E+03  0.21120991332E+03  0.13510364642E+04  0.14029527077E+04  0.15294330000E+03 0.  0.
<mgrwt>
<rscale>  0 0.62812560E+03</rscale>
<asrwt>0</asrwt>
<pdfrwt beam="1">  1        2 0.24379468E+00 0.74390545E+03</pdfrwt>
<pdfrwt beam="2">  1       -2 0.10648475E+00 0.74390545E+03</pdfrwt>
<totfact> 0.83047821E+00</totfact>
</mgrwt>
</event>
<event>
 4    5  0.1112901E-007  0.1206026E+04  0.7818608E-02  0.9151286E-01
         -2   -1    0    0    0  501 -0.00000000000E+00  0.00000000000E+00  0.12398343973E+04  0.12398343973E+04  0.25500000000E-02 0.  1.
          2   -1    0    0  501    0  0.00000000000E+00 -0.00000000000E+00 -0.19361655188E+04  0.19361655188E+04  0.25500000000E-02 0. -1.
    8880023    1    1    2    0    0  0.80068418505E+03 -0.61611235371E+03  0.73875826967E+03  0.14143067503E+04  0.65864270000E+03 0.  0.
    8880022    1    1    2    0    0 -0.80068418505E+03  0.61611235371E+03 -0.14350893912E+04  0.17616931658E+04  0.15294330000E+03 0.  0.
<mgrwt>
<rscale>  0 0.11570694E+04</rscale>
<asrwt>0</asrwt>
<pdfrwt beam="1">  1        2 0.29787162E+00 0.12060265E+04</pdfrwt>
<pdfrwt beam="2">  1       -2 0.19074375E+00 0.12060265E+04</pdfrwt>
<totfact> 0.10780689E+00</totfact>
</mgrwt>
</event>
<event>
 4    5  0.1112901E-007  0.7627446E+03  0.7818608E-02  0.9798053E-01
         -2   -1    0    0    0  501 -0.00000000000E+00  0.00000000000E+00  0.63762541064E+03  0.63762541064E+03  0.25500000000E-02 0.  1.
          2   -1    0    0  501    0  0.00000000000E+00 -0.00000000000E+00 -0.10050061400E+04  0.10050061400E+04  0.25500000000E-02 0. -1.
    8880023    1    1    2    0    0  0.18511383365E+03 -0.33719722505E+03  0.33045568086E+03  0.83125222602E+03  0.65864270000E+03 0.  0.
    8880022    1    1    2    0    0 -0.18511383365E+03  0.33719722505E+03 -0.69783641021E+03  0.81137932462E+03  0.15294330000E+03 0.  0.
<mgrwt>
<rscale>  0 0.65467125E+03</rscale>
<asrwt>0</asrwt>
<pdfrwt beam="1">  1        2 0.15461633E+00 0.76274459E+03</pdfrwt>
<pdfrwt beam="2">  1       -2 0.98096217E-01 0.76274459E+03</pdfrwt>
<totfact> 0.21939835E+01</totfact>
</mgrwt>
</event>
<event>
 4    5  0.1112901E-007  0.7378116E+03  0.7818608E-02  0.9866368E-01
          2   -1    0    0  501    0  0.00000000000E+00  0.00000000000E+00  0.22455233832E+04  0.22455233832E+04  0.25500000000E-02 0. -1.
         -2   -1    0    0    0  501 -0.00000000000E+00 -0.00000000000E+00 -0.15792923691E+04  0.15792923691E+04  0.25500000000E-02 0.  1.
    8880023    1    1    2    0    0 -0.11393267377E+03  0.31237024108E+03 -0.14767510255E+04  0.16508057485E+04  0.65864270000E+03 0.  0.
    8880022    1    1    2    0    0  0.11393267377E+03 -0.31237024108E+03  0.21429820396E+04  0.21740100038E+04  0.15294330000E+03 0.  0.
<mgrwt>
<rscale>  0 0.61919287E+03</rscale>
<asrwt>0</asrwt>
<pdfrwt beam="1">  1        2 0.34546513E+00 0.73781165E+03</pdfrwt>
<pdfrwt beam="2">  1       -2 0.24296806E+00 0.73781165E+03</pdfrwt>
<totfact> 0.36710272E-01</totfact>
</mgrwt>
</event>
<event>
 4    5  0.1112901E-007  0.1377789E+04  0.7818608E-02  0.9001136E-01
          2   -1    0    0  501    0  0.00000000000E+00  0.00000000000E+00  0.13777382396E+04  0.13777382396E+04  0.25500000000E-02 0. -1.
         -2   -1    0    0    0  501 -0.00000000000E+00 -0.00000000000E+00 -0.14021107377E+04  0.14021107377E+04  0.25500000000E-02 0.  1.
    8880023    1    1    2    0    0 -0.75867615948E+03  0.94281711959E+03  0.48124707212E+03  0.14594185783E+04  0.65864270000E+03 0. -1.
    8880022    1    1    2    0    0  0.75867615948E+03 -0.94281711959E+03 -0.50561957025E+03  0.13204303991E+04  0.15294330000E+03 0.  0.
<mgrwt>
<rscale>  0 0.13364673E+04</rscale>
<asrwt>0</asrwt>
<pdfrwt beam="1">  1        2 0.21195973E+00 0.13777895E+04</pdfrwt>
<pdfrwt beam="2">  1       -2 0.21570934E+00 0.13777895E+04</pdfrwt>
<totfact> 0.14950261E+00</totfact>
</mgrwt>
</event>
<event>
 4    5  0.1112901E-007  0.9641480E+03  0.7818608E-02  0.9430044E-01
          2   -1    0    0  501    0  0.00000000000E+00  0.00000000000E+00  0.16496253686E+04  0.16496253686E+04  0.25500000000E-02 0. -1.
         -2   -1    0    0    0  501 -0.00000000000E+00 -0.00000000000E+00 -0.88227785639E+03  0.88227785639E+03  0.25500000000E-02 0.  1.
    8880023    1    1    2    0    0 -0.70146777051E+03 -0.60944048406E+02 -0.49092186912E+03  0.10819360877E+04  0.65864270000E+03 0.  1.
    8880022    1    1    2    0    0  0.70146777051E+03  0.60944048406E+02  0.12582693813E+04  0.14499671372E+04  0.15294330000E+03 0.  0.
<mgrwt>
<rscale>  0 0.89643899E+03</rscale>
<asrwt>0</asrwt>
<pdfrwt beam="1">  1        2 0.25378852E+00 0.96414803E+03</pdfrwt>
<pdfrwt beam="2">  1       -2 0.13573506E+00 0.96414803E+03</pdfrwt>
<totfact> 0.40647921E+00</totfact>
</mgrwt>
</event>
<event>
 4    5  0.1112901E-007  0.9713380E+03  0.7818608E-02  0.9420056E-01
          2   -1    0    0  501    0  0.00000000000E+00  0.00000000000E+00  0.24643027436E+04  0.24643027436E+04  0.25500000000E-02 0. -1.
         -2   -1    0    0    0  501 -0.00000000000E+00 -0.00000000000E+00 -0.47452763466E+03  0.47452763467E+03  0.25500000000E-02 0.  1.
    8880023    1    1    2    0    0 -0.58017915055E+02 -0.71156253726E+03  0.18073596055E+03  0.98800962374E+03  0.65864270000E+03 0.  0.
    8880022    1    1    2    0    0  0.58017915055E+02  0.71156253726E+03  0.18090391484E+04  0.19508207546E+04  0.15294330000E+03 0.  0.
<mgrwt>
<rscale>  0 0.90443369E+03</rscale>
<asrwt>0</asrwt>
<pdfrwt beam="1">  1        2 0.37912350E+00 0.97133801E+03</pdfrwt>
<pdfrwt beam="2">  1       -2 0.73004252E-01 0.97133801E+03</pdfrwt>
<totfact> 0.62745213E+00</totfact>
</mgrwt>
</event>
<event>
 4    5  0.1112901E-007  0.1195418E+04  0.7818608E-02  0.9161589E-01
          2   -1    0    0  501    0  0.00000000000E+00  0.00000000000E+00  0.33999046374E+04  0.33999046374E+04  0.25500000000E-02 0. -1.
         -2   -1    0    0    0  501 -0.00000000000E+00 -0.00000000000E+00 -0.53282205216E+03  0.53282205217E+03  0.25500000000E-02 0.  1.
    8880023    1    1    2    0    0 -0.10385150439E+03 -0.99218411574E+03  0.38918714539E+03  0.12571759204E+04  0.65864270000E+03 0.  0.
    8880022    1    1    2    0    0  0.10385150439E+03  0.99218411574E+03  0.24778954399E+04  0.26755507692E+04  0.15294330000E+03 0.  0.
<mgrwt>
<rscale>  0 0.11458841E+04</rscale>
<asrwt>0</asrwt>
<pdfrwt beam="1">  1        2 0.52306225E+00 0.11954182E+04</pdfrwt>
<pdfrwt beam="2">  1       -2 0.81972623E-01 0.11954182E+04</pdfrwt>
<totfact> 0.12495392E+00</totfact>
</mgrwt>
</event>
<event>
 4    5  0.1112901E-007  0.9317966E+03  0.7818608E-02  0.9476803E-01
          2   -1    0    0  501    0  0.00000000000E+00  0.00000000000E+00  0.28550305860E+04  0.28550305860E+04  0.25500000000E-02 0. -1.
         -2   -1    0    0    0  501 -0.00000000000E+00 -0.00000000000E+00 -0.32749516643E+03  0.32749516644E+03  0.25500000000E-02 0.  1.
    8880023    1    1    2    0    0 -0.65379937142E+03 -0.83552962442E+02  0.52664773092E+03  0.10703283395E+04  0.65864270000E+03 0.  0.
    8880022    1    1    2    0    0  0.65379937142E+03  0.83552962442E+02  0.20008876886E+04  0.21121974129E+04  0.15294330000E+03 0.  0.
<mgrwt>
<rscale>  0 0.86015842E+03</rscale>
<asrwt>0</asrwt>
<pdfrwt beam="1">  1        2 0.43923546E+00 0.93179661E+03</pdfrwt>
<pdfrwt beam="2">  1       -2 0.50383874E-01 0.93179661E+03</pdfrwt>
<totfact> 0.82092568E+00</totfact>
</mgrwt>
</event>
<event>
 4    5  0.1112901E-007  0.7449572E+03  0.7818608E-02  0.9845735E-01
         -2   -1    0    0    0  501 -0.00000000000E+00  0.00000000000E+00  0.39704217557E+03  0.39704217558E+03  0.25500000000E-02 0.  1.
          2   -1    0    0  501    0  0.00000000000E+00 -0.00000000000E+00 -0.29037162714E+04  0.29037162714E+04  0.25500000000E-02 0. -1.
    8880023    1    1    2    0    0  0.21601464222E+03 -0.27292618118E+03  0.20408937731E+02  0.74523671208E+03  0.65864270000E+03 0.  1.
    8880022    1    1    2    0    0 -0.21601464222E+03  0.27292618118E+03 -0.25270830336E+04  0.25555217349E+04  0.15294330000E+03 0.  0.
<mgrwt>
<rscale>  0 0.62964826E+03</rscale>
<asrwt>0</asrwt>
<pdfrwt beam="1">  1        2 0.44672557E+00 0.74495720E+03</pdfrwt>
<pdfrwt beam="2">  1       -2 0.61083413E-01 0.74495720E+03</pdfrwt>
<totfact> 0.53002476E+00</totfact>
</mgrwt>
</event>
<event>
 4    5  0.1112901E-007  0.1476252E+04  0.7818608E-02  0.8926590E-01
          2   -1    0    0  501    0  0.00000000000E+00  0.00000000000E+00  0.40128172247E+04  0.40128172247E+04  0.25500000000E-02 0. -1.
         -2   -1    0    0    0  501 -0.00000000000E+00 -0.00000000000E+00 -0.90891999559E+03  0.90891999560E+03  0.25500000000E-02 0.  1.
    8880023    1    1    2    0    0  0.86754444950E+03  0.99643175933E+03 -0.72606242712E+02  0.14780363648E+04  0.65864270000E+03 0.  0.
    8880022    1    1    2    0    0 -0.86754444950E+03 -0.99643175933E+03  0.31765034719E+04  0.34437008556E+04  0.15294330000E+03 0.  0.
<mgrwt>
<rscale>  0 0.14382465E+04</rscale>
<asrwt>0</asrwt>
<pdfrwt beam="1">  1        2 0.61735650E+00 0.14762520E+04</pdfrwt>
<pdfrwt beam="2">  1       -2 0.13983385E+00 0.14762520E+04</pdfrwt>
<totfact> 0.11625933E-01</totfact>
</mgrwt>
</event>
<event>
 4    5  0.1112901E-007  0.9846683E+03  0.7818608E-02  0.9401897E-01
         -2   -1    0    0    0  501 -0.00000000000E+00  0.00000000000E+00  0.38427699256E+03  0.38427699256E+03  0.25500000000E-02 0.  1.
          2   -1    0    0  501    0  0.00000000000E+00 -0.00000000000E+00 -0.25738272614E+04  0.25738272614E+04  0.25500000000E-02 0. -1.
    8880023    1    1    2    0    0  0.59397592826E+03  0.42773117479E+03 -0.48686753624E+03  0.10984587226E+04  0.65864270000E+03 0.  0.
    8880022    1    1    2    0    0 -0.59397592826E+03 -0.42773117479E+03 -0.17026827326E+04  0.18596455314E+04  0.15294330000E+03 0.  0.
<mgrwt>
<rscale>  0 0.91919740E+03</rscale>
<asrwt>0</asrwt>
<pdfrwt beam="1">  1        2 0.39597341E+00 0.98466825E+03</pdfrwt>
<pdfrwt beam="2">  1       -2 0.59119539E-01 0.98466825E+03</pdfrwt>
<totfact> 0.85530825E+00</totfact>
</mgrwt>
</event>
<event>
 4    5  0.1112901E-007  0.9623714E+03  0.7818608E-02  0.9432533E-01
          2   -1    0    0  501    0  0.00000000000E+00  0.00000000000E+00  0.13397085471E+04  0.13397085471E+04  0.25500000000E-02 0. -1.
         -2   -1    0    0    0  501 -0.00000000000E+00 -0.00000000000E+00 -0.58943668807E+03  0.58943668808E+03  0.25500000000E-02 0.  1.
    8880023    1    1    2    0    0  0.70080514761E+03 -0.34937043936E+02  0.11294633796E+03  0.96897653918E+03  0.65864270000E+03 0. -1.
    8880022    1    1    2    0    0 -0.70080514761E+03  0.34937043936E+02  0.63732552109E+03  0.96016869601E+03  0.15294330000E+03 0.  0.
<mgrwt>
<rscale>  0 0.89445992E+03</rscale>
<asrwt>0</asrwt>
<pdfrwt beam="1">  1        2 0.20610901E+00 0.96237137E+03</pdfrwt>
<pdfrwt beam="2">  1       -2 0.90682567E-01 0.96237137E+03</pdfrwt>
<totfact> 0.16259274E+01</totfact>
</mgrwt>
</event>
<event>
 4    5  0.1112901E-007  0.1475767E+04  0.7818608E-02  0.8926940E-01
         -2   -1    0    0    0  501 -0.00000000000E+00  0.00000000000E+00  0.12955282183E+04  0.12955282183E+04  0.25500000000E-02 0.  1.
          2   -1    0    0  501    0  0.00000000000E+00 -0.00000000000E+00 -0.21967483002E+04  0.21967483002E+04  0.25500000000E-02 0. -1.
    8880023    1    1    2    0    0 -0.13186749174E+04 -0.71934714348E+02 -0.14361537723E+04  0.20592294687E+04  0.65864270000E+03 0. -1.
    8880022    1    1    2    0    0  0.13186749174E+04  0.71934714348E+02  0.53493369043E+03  0.14330470498E+04  0.15294330000E+03 0.  0.
<mgrwt>
<rscale>  0 0.14377466E+04</rscale>
<asrwt>0</asrwt>
<pdfrwt beam="1">  1        2 0.33796128E+00 0.14757670E+04</pdfrwt>
<pdfrwt beam="2">  1       -2 0.19931203E+00 0.14757670E+04</pdfrwt>
<totfact> 0.65622498E-01</totfact>
</mgrwt>
</event>
<event>
 4    5  0.1112901E-007  0.1131911E+04  0.7818608E-02  0.9226332E-01
          2   -1    0    0  501    0  0.00000000000E+00  0.00000000000E+00  0.61245457716E+03  0.61245457716E+03  0.25500000000E-02 0. -1.
         -2   -1    0    0    0  501 -0.00000000000E+00 -0.00000000000E+00 -0.19982112734E+04  0.19982112734E+04  0.25500000000E-02 0.  1.
    8880023    1    1    2    0    0 -0.50913719384E+02  0.91914102399E+03 -0.12176133638E+04  0.16624695301E+04  0.65864270000E+03 0.  0.
    8880022    1    1    2    0    0  0.50913719384E+02 -0.91914102399E+03 -0.16814333250E+03  0.94819632043E+03  0.15294330000E+03 0.  0.
<mgrwt>
<rscale>  0 0.10785724E+04</rscale>
<asrwt>0</asrwt>
<pdfrwt beam="1">  1        2 0.94223782E-01 0.11319111E+04</pdfrwt>
<pdfrwt beam="2">  1       -2 0.30741712E+00 0.11319111E+04</pdfrwt>
<totfact> 0.13730050E+00</totfact>
</mgrwt>
</event>
<event>
 4    5  0.1112901E-007  0.9628634E+03  0.7818608E-02  0.9431843E-01
         -2   -1    0    0    0  501 -0.00000000000E+00  0.00000000000E+00  0.11538869143E+04  0.11538869143E+04  0.25500000000E-02 0.  1.
          2   -1    0    0  501    0  0.00000000000E+00 -0.00000000000E+00 -0.12886887683E+04  0.12886887683E+04  0.25500000000E-02 0. -1.
    8880023    1    1    2    0    0 -0.69984498179E+03  0.59268925966E+02 -0.95213306323E+03  0.13541282733E+04  0.65864270000E+03 0. -1.
    8880022    1    1    2    0    0  0.69984498179E+03 -0.59268925966E+02  0.81733120931E+03  0.10884474093E+04  0.15294330000E+03 0.  0.
<mgrwt>
<rscale>  0 0.89500820E+03</rscale>
<asrwt>0</asrwt>
<pdfrwt beam="1">  1        2 0.19825981E+00 0.96286344E+03</pdfrwt>
<pdfrwt beam="2">  1       -2 0.17752106E+00 0.96286344E+03</pdfrwt>
<totfact> 0.31539399E+00</totfact>
</mgrwt>
</event>
<event>
 4    5  0.1112901E-007  0.7641228E+03  0.7818608E-02  0.9794549E-01
          2   -1    0    0  501    0  0.00000000000E+00  0.00000000000E+00  0.86466698670E+03  0.86466698671E+03  0.25500000000E-02 0. -1.
         -2   -1    0    0    0  501 -0.00000000000E+00 -0.00000000000E+00 -0.82437441297E+03  0.82437441298E+03  0.25500000000E-02 0.  1.
    8880023    1    1    2    0    0 -0.28492738929E+03 -0.26246875997E+03 -0.56780310688E+03  0.95198951757E+03  0.65864270000E+03 0.  0.
    8880022    1    1    2    0    0  0.28492738929E+03  0.26246875997E+03  0.60809568061E+03  0.73705188211E+03  0.15294330000E+03 0.  0.
<mgrwt>
<rscale>  0 0.65655920E+03</rscale>
<asrwt>0</asrwt>
<pdfrwt beam="1">  1        2 0.13302569E+00 0.76412281E+03</pdfrwt>
<pdfrwt beam="2">  1       -2 0.12682683E+00 0.76412281E+03</pdfrwt>
<totfact> 0.14533750E+01</totfact>
</mgrwt>
</event>
<event>
 4    5  0.1112901E-007  0.7148322E+03  0.7818608E-02  0.9940476E-01
         -2   -1    0    0    0  501 -0.00000000000E+00  0.00000000000E+00  0.57141594389E+03  0.57141594390E+03  0.25500000000E-02 0.  1.
          2   -1    0    0  501    0  0.00000000000E+00 -0.00000000000E+00 -0.15301701899E+04  0.15301701899E+04  0.25500000000E-02 0. -1.
    8880023    1    1    2    0    0 -0.20182128180E+03  0.19090052544E+03  0.32065781201E+03  0.78345802636E+03  0.65864270000E+03 0.  1.
    8880022    1    1    2    0    0  0.20182128180E+03 -0.19090052544E+03 -0.12794120580E+04  0.13181281074E+04  0.15294330000E+03 0.  0.
<mgrwt>
<rscale>  0 0.58339101E+03</rscale>
<asrwt>0</asrwt>
<pdfrwt beam="1">  1        2 0.23541080E+00 0.71483218E+03</pdfrwt>
<pdfrwt beam="2">  1       -2 0.87910146E-01 0.71483218E+03</pdfrwt>
<totfact> 0.14021231E+01</totfact>
</mgrwt>
</event>
<event>
 4    5  0.1112901E-007  0.9300428E+03  0.7818608E-02  0.9479429E-01
         -2   -1    0    0    0  501 -0.00000000000E+00  0.00000000000E+00  0.72867617156E+03  0.72867617157E+03  0.25500000000E-02 0.  1.
          2   -1    0    0  501    0  0.00000000000E+00 -0.00000000000E+00 -0.19957131007E+04  0.19957131007E+04  0.25500000000E-02 0. -1.
    8880023    1    1    2    0    0  0.35190240231E+03  0.55437725545E+03  0.33319500268E+03  0.98792639310E+03  0.65864270000E+03 0.  1.
    8880022    1    1    2    0    0 -0.35190240231E+03 -0.55437725545E+03 -0.16002319318E+04  0.17364628792E+04  0.15294330000E+03 0.  0.
<mgrwt>
<rscale>  0 0.85817576E+03</rscale>
<asrwt>0</asrwt>
<pdfrwt beam="1">  1        2 0.30703278E+00 0.93004282E+03</pdfrwt>
<pdfrwt beam="2">  1       -2 0.11210403E+00 0.93004282E+03</pdfrwt>
<totfact> 0.42516855E+00</totfact>
</mgrwt>
</event>
<event>
 4    5  0.1112901E-007  0.9524036E+03  0.7818608E-02  0.9446664E-01
         -2   -1    0    0    0  501 -0.00000000000E+00  0.00000000000E+00  0.10107501304E+04  0.10107501304E+04  0.25500000000E-02 0.  1.
          2   -1    0    0  501    0  0.00000000000E+00 -0.00000000000E+00 -0.87753024802E+03  0.87753024802E+03  0.25500000000E-02 0. -1.
    8880023    1    1    2    0    0  0.68737260996E+03 -0.27951957528E+02  0.51923694510E+03  0.10847486475E+04  0.65864270000E+03 0.  0.
    8880022    1    1    2    0    0 -0.68737260996E+03  0.27951957528E+02 -0.38601706272E+03  0.80353173091E+03  0.15294330000E+03 0.  0.
<mgrwt>
<rscale>  0 0.88332907E+03</rscale>
<asrwt>0</asrwt>
<pdfrwt beam="1">  1        2 0.13500465E+00 0.95240360E+03</pdfrwt>
<pdfrwt beam="2">  1       -2 0.15550002E+00 0.95240360E+03</pdfrwt>
<totfact> 0.82323148E+00</totfact>
</mgrwt>
</event>
<event>
 4    5  0.1112901E-007  0.8339689E+03  0.7818608E-02  0.9641659E-01
         -2   -1    0    0    0  501 -0.00000000000E+00  0.00000000000E+00  0.70391330176E+03  0.70391330176E+03  0.25500000000E-02 0.  1.
          2   -1    0    0  501    0  0.00000000000E+00 -0.00000000000E+00 -0.13420234025E+04  0.13420234025E+04  0.25500000000E-02 0. -1.
    8880023    1    1    2    0    0 -0.28646147479E+03  0.42383215783E+03  0.36440041831E+03  0.91010534867E+03  0.65864270000E+03 0.  1.
    8880022    1    1    2    0    0  0.28646147479E+03 -0.42383215783E+03 -0.10025105191E+04  0.11358313556E+04  0.15294330000E+03 0.  0.
<mgrwt>
<rscale>  0 0.74599218E+03</rscale>
<asrwt>0</asrwt>
<pdfrwt beam="1">  1        2 0.20646514E+00 0.83396887E+03</pdfrwt>
<pdfrwt beam="2">  1       -2 0.10829435E+00 0.83396887E+03</pdfrwt>
<totfact> 0.10785287E+01</totfact>
</mgrwt>
</event>
<event>
 4    5  0.1112901E-007  0.8036523E+03  0.7818608E-02  0.9702954E-01
          2   -1    0    0  501    0  0.00000000000E+00  0.00000000000E+00  0.11761909957E+04  0.11761909957E+04  0.25500000000E-02 0. -1.
         -2   -1    0    0    0  501 -0.00000000000E+00 -0.00000000000E+00 -0.42494455386E+03  0.42494455387E+03  0.25500000000E-02 0.  1.
    8880023    1    1    2    0    0  0.40909135081E+03  0.21140261139E+03  0.13198401753E+03  0.81441806497E+03  0.65864270000E+03 0.  1.
    8880022    1    1    2    0    0 -0.40909135081E+03 -0.21140261139E+03  0.61926242436E+03  0.78671748464E+03  0.15294330000E+03 0.  0.
<mgrwt>
<rscale>  0 0.70841184E+03</rscale>
<asrwt>0</asrwt>
<pdfrwt beam="1">  1        2 0.18095246E+00 0.80365229E+03</pdfrwt>
<pdfrwt beam="2">  1       -2 0.65376086E-01 0.80365229E+03</pdfrwt>
<totfact> 0.42743421E+01</totfact>
</mgrwt>
</event>
<event>
 4    5  0.1112901E-007  0.9073115E+03  0.7818608E-02  0.9514395E-01
          2   -1    0    0  501    0  0.00000000000E+00  0.00000000000E+00  0.27329612783E+04  0.27329612783E+04  0.25500000000E-02 0. -1.
         -2   -1    0    0    0  501 -0.00000000000E+00 -0.00000000000E+00 -0.10781758682E+04  0.10781758682E+04  0.25500000000E-02 0.  1.
    8880023    1    1    2    0    0  0.94839436099E+02 -0.61677346762E+03 -0.83908703330E+03  0.12358322235E+04  0.65864270000E+03 0.  1.
    8880022    1    1    2    0    0 -0.94839436099E+02  0.61677346762E+03  0.24938724434E+04  0.25753049229E+04  0.15294330000E+03 0.  0.
<mgrwt>
<rscale>  0 0.83230829E+03</rscale>
<asrwt>0</asrwt>
<pdfrwt beam="1">  1        2 0.42045558E+00 0.90731154E+03</pdfrwt>
<pdfrwt beam="2">  1       -2 0.16587321E+00 0.90731154E+03</pdfrwt>
<totfact> 0.59484790E-01</totfact>
</mgrwt>
</event>
<event>
 4    5  0.1112901E-007  0.6819763E+03  0.7818608E-02  0.1008227E+00
          2   -1    0    0  501    0  0.00000000000E+00  0.00000000000E+00  0.71797793604E+03  0.71797793604E+03  0.25500000000E-02 0. -1.
         -2   -1    0    0    0  501 -0.00000000000E+00 -0.00000000000E+00 -0.44547610892E+03  0.44547610892E+03  0.25500000000E-02 0.  1.
    8880023    1    1    2    0    0 -0.14537365629E+02 -0.17626702567E+03 -0.13351369106E+03  0.69492266570E+03  0.65864270000E+03 0.  0.
    8880022    1    1    2    0    0  0.14537365629E+02  0.17626702567E+03  0.40601551818E+03  0.46853137927E+03  0.15294330000E+03 0.  0.
<mgrwt>
<rscale>  0 0.52185350E+03</rscale>
<asrwt>0</asrwt>
<pdfrwt beam="1">  1        2 0.11045814E+00 0.68197625E+03</pdfrwt>
<pdfrwt beam="2">  1       -2 0.68534785E-01 0.68197625E+03</pdfrwt>
<totfact> 0.78563896E+01</totfact>
</mgrwt>
</event>
<event>
 4    5  0.1407597E-007  0.1916270E+04  0.7818608E-02  0.8660808E-01
         -2   -1    0    0    0  501 -0.00000000000E+00  0.00000000000E+00  0.28516042118E+04  0.28516042118E+04  0.25500000000E-02 0.  1.
          2   -1    0    0  501    0  0.00000000000E+00 -0.00000000000E+00 -0.25167137586E+04  0.25167137586E+04  0.25500000000E-02 0. -1.
    8880023    1    1    2    0    0  0.11284037194E+03  0.17959804878E+04  0.21000614230E+04  0.28429468952E+04  0.65864270000E+03 0.  0.
    8880022    1    1    2    0    0 -0.11284037194E+03 -0.17959804878E+04 -0.17651709698E+04  0.25253710753E+04  0.15294330000E+03 0.  0.
<mgrwt>
<rscale>  0 0.18880890E+04</rscale>
<asrwt>0</asrwt>
<pdfrwt beam="1">  1        2 0.38718673E+00 0.19162696E+04</pdfrwt>
<pdfrwt beam="2">  1       -2 0.43870834E+00 0.19162696E+04</pdfrwt>
<totfact> 0.12456920E-02</totfact>
</mgrwt>
</event>
<event>
 4    5  0.1112901E-007  0.1030712E+04  0.7818608E-02  0.9342436E-01
         -2   -1    0    0    0  501 -0.00000000000E+00  0.00000000000E+00  0.38746851913E+03  0.38746851914E+03  0.25500000000E-02 0.  1.
          2   -1    0    0  501    0  0.00000000000E+00 -0.00000000000E+00 -0.37387841224E+04  0.37387841224E+04  0.25500000000E-02 0. -1.
    8880023    1    1    2    0    0  0.68001279608E+03 -0.40760229617E+03 -0.46794591895E+03  0.11319631725E+04  0.65864270000E+03 0.  0.
    8880022    1    1    2    0    0 -0.68001279608E+03  0.40760229617E+03 -0.28833696843E+04  0.29942894690E+04  0.15294330000E+03 0.  0.
<mgrwt>
<rscale>  0 0.96968277E+03</rscale>
<asrwt>0</asrwt>
<pdfrwt beam="1">  1        2 0.57519753E+00 0.10307120E+04</pdfrwt>
<pdfrwt beam="2">  1       -2 0.59610544E-01 0.10307120E+04</pdfrwt>
<totfact> 0.14904703E+00</totfact>
</mgrwt>
</event>
<event>
 4    5  0.1112901E-007  0.2008087E+04  0.7818608E-02  0.8615402E-01
          2   -1    0    0  501    0  0.00000000000E+00  0.00000000000E+00  0.39081353252E+04  0.39081353252E+04  0.25500000000E-02 0. -1.
         -2   -1    0    0    0  501 -0.00000000000E+00 -0.00000000000E+00 -0.19895975510E+04  0.19895975510E+04  0.25500000000E-02 0.  1.
    8880023    1    1    2    0    0 -0.18787712430E+04  0.26234201877E+03 -0.11297853741E+04  0.23040898238E+04  0.65864270000E+03 0.  0.
    8880022    1    1    2    0    0  0.18787712430E+04 -0.26234201877E+03  0.30483231483E+04  0.35936430524E+04  0.15294330000E+03 0.  0.
<mgrwt>
<rscale>  0 0.19813238E+04</rscale>
<asrwt>0</asrwt>
<pdfrwt beam="1">  1        2 0.60125157E+00 0.20080874E+04</pdfrwt>
<pdfrwt beam="2">  1       -2 0.30609194E+00 0.20080874E+04</pdfrwt>
<totfact> 0.10457747E-02</totfact>
</mgrwt>
</event>
<event>
 4    5  0.1112901E-007  0.9208321E+03  0.7818608E-02  0.9493384E-01
         -2   -1    0    0    0  501 -0.00000000000E+00  0.00000000000E+00  0.81969665981E+03  0.81969665981E+03  0.25500000000E-02 0.  1.
          2   -1    0    0  501    0  0.00000000000E+00 -0.00000000000E+00 -0.10100710430E+04  0.10100710430E+04  0.25500000000E-02 0. -1.
    8880023    1    1    2    0    0  0.58618219258E+03 -0.26554084875E+03  0.34035431206E+03  0.98171929249E+03  0.65864270000E+03 0.  1.
    8880022    1    1    2    0    0 -0.58618219258E+03  0.26554084875E+03 -0.53072869521E+03  0.84804841029E+03  0.15294330000E+03 0. -1.
<mgrwt>
<rscale>  0 0.84773325E+03</rscale>
<asrwt>0</asrwt>
<pdfrwt beam="1">  1        2 0.15539554E+00 0.92083208E+03</pdfrwt>
<pdfrwt beam="2">  1       -2 0.12610718E+00 0.92083208E+03</pdfrwt>
<totfact> 0.11630218E+01</totfact>
</mgrwt>
</event>
<event>
 4    5  0.1112901E-007  0.6809242E+03  0.7818608E-02  0.1008806E+00
         -2   -1    0    0    0  501 -0.00000000000E+00  0.00000000000E+00  0.30231900397E+03  0.30231900398E+03  0.25500000000E-02 0.  1.
          2   -1    0    0  501    0  0.00000000000E+00 -0.00000000000E+00 -0.34788337233E+04  0.34788337233E+04  0.25500000000E-02 0. -1.
    8880023    1    1    2    0    0  0.17262018117E+03  0.70569826083E+01 -0.90948211287E+02  0.68697111391E+03  0.65864270000E+03 0.  1.
    8880022    1    1    2    0    0 -0.17262018117E+03 -0.70569826083E+01 -0.30855665080E+04  0.30941816133E+04  0.15294330000E+03 0.  0.
<mgrwt>
<rscale>  0 0.51952086E+03</rscale>
<asrwt>0</asrwt>
<pdfrwt beam="1">  1        2 0.53520516E+00 0.68092418E+03</pdfrwt>
<pdfrwt beam="2">  1       -2 0.46510619E-01 0.68092418E+03</pdfrwt>
<totfact> 0.40583607E+00</totfact>
</mgrwt>
</event>
<event>
 4    5  0.1112901E-007  0.8946258E+03  0.7818608E-02  0.9534715E-01
         -2   -1    0    0    0  501 -0.00000000000E+00  0.00000000000E+00  0.10219106109E+04  0.10219106109E+04  0.25500000000E-02 0.  1.
          2   -1    0    0  501    0  0.00000000000E+00 -0.00000000000E+00 -0.57564876152E+03  0.57564876152E+03  0.25500000000E-02 0. -1.
    8880023    1    1    2    0    0  0.41811345795E+03  0.43786549308E+03  0.37133756993E+03  0.96863143189E+03  0.65864270000E+03 0.  1.
    8880022    1    1    2    0    0 -0.41811345795E+03 -0.43786549308E+03  0.74924279483E+02  0.62892794056E+03  0.15294330000E+03 0. -1.
<mgrwt>
<rscale>  0 0.81772131E+03</rscale>
<asrwt>0</asrwt>
<pdfrwt beam="1">  1        2 0.88561350E-01 0.89462577E+03</pdfrwt>
<pdfrwt beam="2">  1       -2 0.15721701E+00 0.89462577E+03</pdfrwt>
<totfact> 0.13797977E+01</totfact>
</mgrwt>
</event>
<event>
 4    5  0.1112901E-007  0.7381821E+03  0.7818608E-02  0.9865274E-01
         -2   -1    0    0    0  501 -0.00000000000E+00  0.00000000000E+00  0.11396149289E+04  0.11396149289E+04  0.25500000000E-02 0.  1.
          2   -1    0    0  501    0  0.00000000000E+00 -0.00000000000E+00 -0.11456440371E+04  0.11456440371E+04  0.25500000000E-02 0. -1.
    8880023    1    1    2    0    0 -0.19232504683E+03 -0.27223835185E+03  0.98364255375E+03  0.12298233709E+04  0.65864270000E+03 0.  1.
    8880022    1    1    2    0    0  0.19232504683E+03  0.27223835185E+03 -0.98967166191E+03  0.10554355950E+04  0.15294330000E+03 0.  0.
<mgrwt>
<rscale>  0 0.61974157E+03</rscale>
<asrwt>0</asrwt>
<pdfrwt beam="1">  1        2 0.17625293E+00 0.73818213E+03</pdfrwt>
<pdfrwt beam="2">  1       -2 0.17532537E+00 0.73818213E+03</pdfrwt>
<totfact> 0.40905993E+00</totfact>
</mgrwt>
</event>
<event>
 4    5  0.1112901E-007  0.1856226E+04  0.7818608E-02  0.8692056E-01
         -2   -1    0    0    0  501 -0.00000000000E+00  0.00000000000E+00  0.20369502654E+04  0.20369502654E+04  0.25500000000E-02 0.  1.
          2   -1    0    0  501    0  0.00000000000E+00 -0.00000000000E+00 -0.19263402857E+04  0.19263402857E+04  0.25500000000E-02 0. -1.
    8880023    1    1    2    0    0  0.16389778557E+04  0.57053982962E+03  0.88543214975E+03  0.20565904811E+04  0.65864270000E+03 0.  0.
    8880022    1    1    2    0    0 -0.16389778557E+04 -0.57053982962E+03 -0.77482217009E+03  0.19067000700E+04  0.15294330000E+03 0.  0.
<mgrwt>
<rscale>  0 0.18270302E+04</rscale>
<asrwt>0</asrwt>
<pdfrwt beam="1">  1        2 0.29636004E+00 0.18562258E+04</pdfrwt>
<pdfrwt beam="2">  1       -2 0.31337696E+00 0.18562258E+04</pdfrwt>
<totfact> 0.17442316E-01</totfact>
</mgrwt>
</event>
<event>
 4    5  0.1112901E-007  0.8313547E+03  0.7818608E-02  0.9646702E-01
          2   -1    0    0  501    0  0.00000000000E+00  0.00000000000E+00  0.14124452295E+04  0.14124452295E+04  0.25500000000E-02 0. -1.
         -2   -1    0    0    0  501 -0.00000000000E+00 -0.00000000000E+00 -0.60210546259E+03  0.60210546259E+03  0.25500000000E-02 0.  1.
    8880023    1    1    2    0    0 -0.29151070835E+02  0.50644900435E+03 -0.21649039412E+03  0.85908013360E+03  0.65864270000E+03 0.  0.
    8880022    1    1    2    0    0  0.29151070835E+02 -0.50644900435E+03  0.10268301610E+04  0.11554705585E+04  0.15294330000E+03 0.  0.
<mgrwt>
<rscale>  0 0.74280745E+03</rscale>
<asrwt>0</asrwt>
<pdfrwt beam="1">  1        2 0.21729926E+00 0.83135467E+03</pdfrwt>
<pdfrwt beam="2">  1       -2 0.92631611E-01 0.83135467E+03</pdfrwt>
<totfact> 0.14253616E+01</totfact>
</mgrwt>
</event>
<event>
 4    5  0.1112901E-007  0.8096247E+03  0.7818608E-02  0.9690359E-01
         -2   -1    0    0    0  501 -0.00000000000E+00  0.00000000000E+00  0.23013120309E+04  0.23013120309E+04  0.25500000000E-02 0.  1.
          2   -1    0    0  501    0  0.00000000000E+00 -0.00000000000E+00 -0.19364117013E+03  0.19364117015E+03  0.25500000000E-02 0. -1.
    8880023    1    1    2    0    0  0.21642962167E+03  0.41813890864E+03  0.15538625505E+04  0.17521361135E+04  0.65864270000E+03 0.  1.
    8880022    1    1    2    0    0 -0.21642962167E+03 -0.41813890864E+03  0.55380831030E+03  0.74281708760E+03  0.15294330000E+03 0.  0.
<mgrwt>
<rscale>  0 0.71593710E+03</rscale>
<asrwt>0</asrwt>
<pdfrwt beam="1">  1        2 0.29790949E-01 0.80962469E+03</pdfrwt>
<pdfrwt beam="2">  1       -2 0.35404800E+00 0.80962469E+03</pdfrwt>
<totfact> 0.27453619E+00</totfact>
</mgrwt>
</event>
<event>
 4    5  0.1112901E-007  0.1425443E+04  0.7818608E-02  0.8964161E-01
         -2   -1    0    0    0  501 -0.00000000000E+00  0.00000000000E+00  0.14981297936E+04  0.14981297936E+04  0.25500000000E-02 0.  1.
          2   -1    0    0  501    0  0.00000000000E+00 -0.00000000000E+00 -0.20684319537E+04  0.20684319537E+04  0.25500000000E-02 0. -1.
    8880023    1    1    2    0    0  0.16124043848E+03  0.12538262777E+04  0.84950765731E+03  0.16593831022E+04  0.65864270000E+03 0.  0.
    8880022    1    1    2    0    0 -0.16124043848E+03 -0.12538262777E+04 -0.14198098174E+04  0.19071786451E+04  0.15294330000E+03 0.  0.
<mgrwt>
<rscale>  0 0.13858018E+04</rscale>
<asrwt>0</asrwt>
<pdfrwt beam="1">  1        2 0.31822030E+00 0.14254434E+04</pdfrwt>
<pdfrwt beam="2">  1       -2 0.23048151E+00 0.14254434E+04</pdfrwt>
<totfact> 0.49131773E-01</totfact>
</mgrwt>
</event>
<event>
 4    5  0.1112901E-007  0.7935811E+03  0.7818608E-02  0.9724851E-01
          2   -1    0    0  501    0  0.00000000000E+00  0.00000000000E+00  0.21153460665E+04  0.21153460665E+04  0.25500000000E-02 0. -1.
         -2   -1    0    0    0  501 -0.00000000000E+00 -0.00000000000E+00 -0.69939194339E+03  0.69939194340E+03  0.25500000000E-02 0.  1.
    8880023    1    1    2    0    0  0.35962012831E+03  0.25813573925E+03 -0.43532086655E+03  0.90513819922E+03  0.65864270000E+03 0.  1.
    8880022    1    1    2    0    0 -0.35962012831E+03 -0.25813573925E+03  0.18512749897E+04  0.19095998107E+04  0.15294330000E+03 0.  0.
<mgrwt>
<rscale>  0 0.69556266E+03</rscale>
<asrwt>0</asrwt>
<pdfrwt beam="1">  1        2 0.32543786E+00 0.79358106E+03</pdfrwt>
<pdfrwt beam="2">  1       -2 0.10759876E+00 0.79358106E+03</pdfrwt>
<totfact> 0.41189971E+00</totfact>
</mgrwt>
</event>
<event>
 4    5  0.1112901E-007  0.2098747E+04  0.7818608E-02  0.8573122E-01
         -2   -1    0    0    0  501 -0.00000000000E+00  0.00000000000E+00  0.98895685190E+03  0.98895685190E+03  0.25500000000E-02 0.  1.
          2   -1    0    0  501    0  0.00000000000E+00 -0.00000000000E+00 -0.52900469595E+04  0.52900469595E+04  0.25500000000E-02 0. -1.
    8880023    1    1    2    0    0 -0.17570432991E+04 -0.94006882858E+03 -0.35885296867E+04  0.41571969012E+04  0.65864270000E+03 0. -1.
    8880022    1    1    2    0    0  0.17570432991E+04  0.94006882858E+03 -0.71256042090E+03  0.21218069101E+04  0.15294330000E+03 0.  0.
<mgrwt>
<rscale>  0 0.20732445E+04</rscale>
<asrwt>0</asrwt>
<pdfrwt beam="1">  1        2 0.81385336E+00 0.20987474E+04</pdfrwt>
<pdfrwt beam="2">  1       -2 0.15214721E+00 0.20987474E+04</pdfrwt>
<totfact> 0.35422213E-03</totfact>
</mgrwt>
</event>
<event>
 4    5  0.1112901E-007  0.9173348E+03  0.7818608E-02  0.9498758E-01
         -2   -1    0    0    0  501 -0.00000000000E+00  0.00000000000E+00  0.60812431446E+03  0.60812431446E+03  0.25500000000E-02 0.  1.
          2   -1    0    0  501    0  0.00000000000E+00 -0.00000000000E+00 -0.25878011323E+04  0.25878011323E+04  0.25500000000E-02 0. -1.
    8880023    1    1    2    0    0  0.63801114473E+03  0.25192648156E+02  0.18332124502E+03  0.93547302230E+03  0.65864270000E+03 0.  1.
    8880022    1    1    2    0    0 -0.63801114473E+03 -0.25192648156E+02 -0.21629980629E+04  0.22604524245E+04  0.15294330000E+03 0.  0.
<mgrwt>
<rscale>  0 0.84375469E+03</rscale>
<asrwt>0</asrwt>
<pdfrwt beam="1">  1        2 0.39812324E+00 0.91733478E+03</pdfrwt>
<pdfrwt beam="2">  1       -2 0.93557588E-01 0.91733478E+03</pdfrwt>
<totfact> 0.30578673E+00</totfact>
</mgrwt>
</event>
<event>
 4    5  0.1112901E-007  0.7024171E+03  0.7818608E-02  0.9987318E-01
          2   -1    0    0  501    0  0.00000000000E+00  0.00000000000E+00  0.25934783145E+04  0.25934783145E+04  0.25500000000E-02 0. -1.
         -2   -1    0    0    0  501 -0.00000000000E+00 -0.00000000000E+00 -0.19635570373E+03  0.19635570375E+03  0.25500000000E-02 0.  1.
    8880023    1    1    2    0    0  0.22293180576E+03 -0.99403155442E+02  0.47897839592E+03  0.85018238476E+03  0.65864270000E+03 0.  1.
    8880022    1    1    2    0    0 -0.22293180576E+03  0.99403155442E+02  0.19181442148E+04  0.19396516334E+04  0.15294330000E+03 0.  0.
<mgrwt>
<rscale>  0 0.56209827E+03</rscale>
<asrwt>0</asrwt>
<pdfrwt beam="1">  1        2 0.39899666E+00 0.70241710E+03</pdfrwt>
<pdfrwt beam="2">  1       -2 0.30208570E-01 0.70241710E+03</pdfrwt>
<totfact> 0.32710089E+01</totfact>
</mgrwt>
</event>
<event>
 4    5  0.1112901E-007  0.6760026E+03  0.7818608E-02  0.1011682E+00
          2   -1    0    0  501    0  0.00000000000E+00  0.00000000000E+00  0.35046881621E+04  0.35046881621E+04  0.25500000000E-02 0. -1.
         -2   -1    0    0    0  501 -0.00000000000E+00 -0.00000000000E+00 -0.27491854255E+03  0.27491854256E+03  0.25500000000E-02 0.  1.
    8880023    1    1    2    0    0 -0.85600991462E+02  0.12586430083E+03  0.15020166135E+03  0.69248833730E+03  0.65864270000E+03 0.  1.
    8880022    1    1    2    0    0  0.85600991462E+02 -0.12586430083E+03  0.30795679582E+04  0.30871183674E+04  0.15294330000E+03 0.  0.
<mgrwt>
<rscale>  0 0.50811742E+03</rscale>
<asrwt>0</asrwt>
<pdfrwt beam="1">  1        2 0.53918277E+00 0.67600263E+03</pdfrwt>
<pdfrwt beam="2">  1       -2 0.42295162E-01 0.67600263E+03</pdfrwt>
<totfact> 0.47121512E+00</totfact>
</mgrwt>
</event>
<event>
 4    5  0.1112901E-007  0.9061510E+03  0.7818608E-02  0.9516228E-01
          2   -1    0    0  501    0  0.00000000000E+00  0.00000000000E+00  0.21450433360E+04  0.21450433361E+04  0.25500000000E-02 0. -1.
         -2   -1    0    0    0  501 -0.00000000000E+00 -0.00000000000E+00 -0.12346159309E+04  0.12346159309E+04  0.25500000000E-02 0.  1.
    8880023    1    1    2    0    0  0.16978956854E+03  0.59872446665E+03 -0.10089453455E+04  0.13561269856E+04  0.65864270000E+03 0.  1.
    8880022    1    1    2    0    0 -0.16978956854E+03 -0.59872446665E+03  0.19193727507E+04  0.20235322813E+04  0.15294330000E+03 0.  0.
<mgrwt>
<rscale>  0 0.83097864E+03</rscale>
<asrwt>0</asrwt>
<pdfrwt beam="1">  1        2 0.33000666E+00 0.90615103E+03</pdfrwt>
<pdfrwt beam="2">  1       -2 0.18994091E+00 0.90615103E+03</pdfrwt>
<totfact> 0.87357388E-01</totfact>
</mgrwt>
</event>
<event>
 4    5  0.1112901E-007  0.1423607E+04  0.7818608E-02  0.8965553E-01
         -2   -1    0    0    0  501 -0.00000000000E+00  0.00000000000E+00  0.16475694872E+04  0.16475694872E+04  0.25500000000E-02 0.  1.
          2   -1    0    0  501    0  0.00000000000E+00 -0.00000000000E+00 -0.19580610710E+04  0.19580610710E+04  0.25500000000E-02 0. -1.
    8880023    1    1    2    0    0  0.24946932312E+03 -0.12371792310E+04  0.10307719212E+04  0.17575973237E+04  0.65864270000E+03 0.  0.
    8880022    1    1    2    0    0 -0.24946932312E+03  0.12371792310E+04 -0.13412635050E+04  0.18480332344E+04  0.15294330000E+03 0.  0.
<mgrwt>
<rscale>  0 0.13839036E+04</rscale>
<asrwt>0</asrwt>
<pdfrwt beam="1">  1        2 0.30124017E+00 0.14236072E+04</pdfrwt>
<pdfrwt beam="2">  1       -2 0.25347223E+00 0.14236072E+04</pdfrwt>
<totfact> 0.40793078E-01</totfact>
</mgrwt>
</event>
<event>
 4    5  0.1112901E-007  0.6840116E+03  0.7818608E-02  0.1007140E+00
         -2   -1    0    0    0  501 -0.00000000000E+00  0.00000000000E+00  0.69190507678E+02  0.69190507725E+02  0.25500000000E-02 0.  1.
          2   -1    0    0  501    0  0.00000000000E+00 -0.00000000000E+00 -0.45445705281E+04  0.45445705281E+04  0.25500000000E-02 0. -1.
    8880023    1    1    2    0    0  0.13136823787E+03 -0.12963034785E+03 -0.17666357964E+04  0.18944323383E+04  0.65864270000E+03 0.  1.
    8880022    1    1    2    0    0 -0.13136823787E+03  0.12963034785E+03 -0.27087442241E+04  0.27193286976E+04  0.15294330000E+03 0.  0.
<mgrwt>
<rscale>  0 0.52627405E+03</rscale>
<asrwt>0</asrwt>
<pdfrwt beam="1">  1        2 0.69916446E+00 0.68401158E+03</pdfrwt>
<pdfrwt beam="2">  1       -2 0.10644697E-01 0.68401158E+03</pdfrwt>
<totfact> 0.79402244E+00</totfact>
</mgrwt>
</event>
<event>
 4    5  0.1112901E-007  0.7175804E+03  0.7818608E-02  0.9930860E-01
         -2   -1    0    0    0  501 -0.00000000000E+00  0.00000000000E+00  0.32283621263E+03  0.32283621264E+03  0.25500000000E-02 0.  1.
          2   -1    0    0  501    0  0.00000000000E+00 -0.00000000000E+00 -0.16298940597E+04  0.16298940597E+04  0.25500000000E-02 0. -1.
    8880023    1    1    2    0    0  0.14834385961E+03  0.24311634975E+03 -0.12641521431E+03  0.72863054621E+03  0.65864270000E+03 0.  0.
    8880022    1    1    2    0    0 -0.14834385961E+03 -0.24311634975E+03 -0.11806426328E+04  0.12240997262E+04  0.15294330000E+03 0.  0.
<mgrwt>
<rscale>  0 0.58788732E+03</rscale>
<asrwt>0</asrwt>
<pdfrwt beam="1">  1        2 0.25075293E+00 0.71758043E+03</pdfrwt>
<pdfrwt beam="2">  1       -2 0.49667111E-01 0.71758043E+03</pdfrwt>
<totfact> 0.42324999E+01</totfact>
</mgrwt>
</event>
<event>
 4    5  0.1112901E-007  0.6948186E+03  0.7818608E-02  0.1001941E+00
          2   -1    0    0  501    0  0.00000000000E+00  0.00000000000E+00  0.13888855006E+04  0.13888855006E+04  0.25500000000E-02 0. -1.
         -2   -1    0    0    0  501 -0.00000000000E+00 -0.00000000000E+00 -0.31309122303E+03  0.31309122304E+03  0.25500000000E-02 0.  1.
    8880023    1    1    2    0    0  0.21033587467E+03  0.68713253129E+02  0.11503988308E+03  0.70427769544E+03  0.65864270000E+03 0.  0.
    8880022    1    1    2    0    0 -0.21033587467E+03 -0.68713253129E+02  0.96075439448E+03  0.99769902819E+03  0.15294330000E+03 0. -1.
<mgrwt>
<rscale>  0 0.54807079E+03</rscale>
<asrwt>0</asrwt>
<pdfrwt beam="1">  1        2 0.21367469E+00 0.69481861E+03</pdfrwt>
<pdfrwt beam="2">  1       -2 0.48167880E-01 0.69481861E+03</pdfrwt>
<totfact> 0.61461223E+01</totfact>
</mgrwt>
</event>
<event>
 4    5  0.1112901E-007  0.6687773E+03  0.7818608E-02  0.1016555E+00
         -2   -1    0    0    0  501 -0.00000000000E+00  0.00000000000E+00  0.10313053936E+04  0.10313053936E+04  0.25500000000E-02 0.  1.
          2   -1    0    0  501    0  0.00000000000E+00 -0.00000000000E+00 -0.48157348427E+03  0.48157348428E+03  0.25500000000E-02 0. -1.
    8880023    1    1    2    0    0 -0.11531517533E+03  0.12461583671E+02  0.89534221576E+03  0.11175422902E+04  0.65864270000E+03 0.  1.
    8880022    1    1    2    0    0  0.11531517533E+03 -0.12461583671E+02 -0.34561030639E+03  0.39533658776E+03  0.15294330000E+03 0.  0.
<mgrwt>
<rscale>  0 0.48950573E+03</rscale>
<asrwt>0</asrwt>
<pdfrwt beam="1">  1        2 0.74088229E-01 0.66877731E+03</pdfrwt>
<pdfrwt beam="2">  1       -2 0.15866237E+00 0.66877731E+03</pdfrwt>
<totfact> 0.16944299E+01</totfact>
</mgrwt>
</event>
<event>
 4    5  0.1112901E-007  0.7283846E+03  0.7818608E-02  0.9895173E-01
          2   -1    0    0  501    0  0.00000000000E+00  0.00000000000E+00  0.13519640080E+04  0.13519640080E+04  0.25500000000E-02 0. -1.
         -2   -1    0    0    0  501 -0.00000000000E+00 -0.00000000000E+00 -0.36418947428E+03  0.36418947429E+03  0.25500000000E-02 0.  1.
    8880023    1    1    2    0    0  0.30919928755E+03 -0.33611393099E+02  0.65995643379E+02  0.73136827685E+03  0.65864270000E+03 0.  1.
    8880022    1    1    2    0    0 -0.30919928755E+03  0.33611393099E+02  0.92177889036E+03  0.98478520546E+03  0.15294330000E+03 0.  0.
<mgrwt>
<rscale>  0 0.60495769E+03</rscale>
<asrwt>0</asrwt>
<pdfrwt beam="1">  1        2 0.20799446E+00 0.72838460E+03</pdfrwt>
<pdfrwt beam="2">  1       -2 0.56029150E-01 0.72838460E+03</pdfrwt>
<totfact> 0.47145518E+01</totfact>
</mgrwt>
</event>
<event>
 4    5  0.1112901E-007  0.6962228E+03  0.7818608E-02  0.1001325E+00
         -2   -1    0    0    0  501 -0.00000000000E+00  0.00000000000E+00  0.21007535400E+03  0.21007535402E+03  0.25500000000E-02 0.  1.
          2   -1    0    0  501    0  0.00000000000E+00 -0.00000000000E+00 -0.13575812412E+04  0.13575812412E+04  0.25500000000E-02 0. -1.
    8880023    1    1    2    0    0  0.21293439517E+03  0.74665155665E+02 -0.47726318961E+03  0.84410088291E+03  0.65864270000E+03 0.  1.
    8880022    1    1    2    0    0 -0.21293439517E+03 -0.74665155665E+02 -0.67024269754E+03  0.72355571226E+03  0.15294330000E+03 0.  0.
<mgrwt>
<rscale>  0 0.55073201E+03</rscale>
<asrwt>0</asrwt>
<pdfrwt beam="1">  1        2 0.20885865E+00 0.69622277E+03</pdfrwt>
<pdfrwt beam="2">  1       -2 0.32319286E-01 0.69622277E+03</pdfrwt>
<totfact> 0.13907862E+02</totfact>
</mgrwt>
</event>
<event>
 4    5  0.1112901E-007  0.6991066E+03  0.7818608E-02  0.1000093E+00
         -2   -1    0    0    0  501 -0.00000000000E+00  0.00000000000E+00  0.82865580401E+03  0.82865580401E+03  0.25500000000E-02 0.  1.
          2   -1    0    0  501    0  0.00000000000E+00 -0.00000000000E+00 -0.13107833615E+04  0.13107833615E+04  0.25500000000E-02 0. -1.
    8880023    1    1    2    0    0  0.23296603784E+02  0.23323186377E+03  0.66125946887E+03  0.96229627738E+03  0.65864270000E+03 0.  1.
    8880022    1    1    2    0    0 -0.23296603784E+02 -0.23323186377E+03 -0.11433870264E+04  0.11771428882E+04  0.15294330000E+03 0.  0.
<mgrwt>
<rscale>  0 0.55609578E+03</rscale>
<asrwt>0</asrwt>
<pdfrwt beam="1">  1        2 0.20165898E+00 0.69910660E+03</pdfrwt>
<pdfrwt beam="2">  1       -2 0.12748551E+00 0.69910660E+03</pdfrwt>
<totfact> 0.76519231E+00</totfact>
</mgrwt>
</event>
<event>
 4    5  0.1112901E-007  0.8398325E+03  0.7818608E-02  0.9630496E-01
         -2   -1    0    0    0  501 -0.00000000000E+00  0.00000000000E+00  0.11646596046E+04  0.11646596046E+04  0.25500000000E-02 0.  1.
          2   -1    0    0  501    0  0.00000000000E+00 -0.00000000000E+00 -0.15206736389E+04  0.15206736389E+04  0.25500000000E-02 0. -1.
    8880023    1    1    2    0    0  0.52080696688E+03  0.16386831163E+02  0.95174499856E+03  0.12693057841E+04  0.65864270000E+03 0.  1.
    8880022    1    1    2    0    0 -0.52080696688E+03 -0.16386831163E+02 -0.13077590328E+04  0.14160274595E+04  0.15294330000E+03 0.  0.
<mgrwt>
<rscale>  0 0.75310212E+03</rscale>
<asrwt>0</asrwt>
<pdfrwt beam="1">  1        2 0.23394979E+00 0.83983250E+03</pdfrwt>
<pdfrwt beam="2">  1       -2 0.17917840E+00 0.83983250E+03</pdfrwt>
<totfact> 0.23044964E+00</totfact>
</mgrwt>
</event>
<event>
 4    5  0.1112901E-007  0.9840005E+03  0.7818608E-02  0.9402796E-01
          2   -1    0    0  501    0  0.00000000000E+00  0.00000000000E+00  0.13107443581E+04  0.13107443581E+04  0.25500000000E-02 0. -1.
         -2   -1    0    0    0  501 -0.00000000000E+00 -0.00000000000E+00 -0.77214943558E+03  0.77214943559E+03  0.25500000000E-02 0.  1.
    8880023    1    1    2    0    0 -0.15759911483E+03 -0.71386926883E+03 -0.23069186172E+03  0.10106808375E+04  0.65864270000E+03 0.  0.
    8880022    1    1    2    0    0  0.15759911483E+03  0.71386926883E+03  0.76928678421E+03  0.10722129562E+04  0.15294330000E+03 0.  0.
<mgrwt>
<rscale>  0 0.91845959E+03</rscale>
<asrwt>0</asrwt>
<pdfrwt beam="1">  1        2 0.20165297E+00 0.98400052E+03</pdfrwt>
<pdfrwt beam="2">  1       -2 0.11879222E+00 0.98400052E+03</pdfrwt>
<totfact> 0.88253471E+00</totfact>
</mgrwt>
</event>
<event>
 4    5  0.1112901E-007  0.9197233E+03  0.7818608E-02  0.9495083E-01
         -2   -1    0    0    0  501 -0.00000000000E+00  0.00000000000E+00  0.82944083554E+03  0.82944083554E+03  0.25500000000E-02 0.  1.
          2   -1    0    0  501    0  0.00000000000E+00 -0.00000000000E+00 -0.15750742104E+04  0.15750742104E+04  0.25500000000E-02 0. -1.
    8880023    1    1    2    0    0  0.62111085063E+03 -0.16217902394E+03  0.46132324926E+03  0.10289363786E+04  0.65864270000E+03 0.  0.
    8880022    1    1    2    0    0 -0.62111085063E+03  0.16217902394E+03 -0.12069566241E+04  0.13755786674E+04  0.15294330000E+03 0.  0.
<mgrwt>
<rscale>  0 0.84647272E+03</rscale>
<asrwt>0</asrwt>
<pdfrwt beam="1">  1        2 0.24231911E+00 0.91972329E+03</pdfrwt>
<pdfrwt beam="2">  1       -2 0.12760628E+00 0.91972329E+03</pdfrwt>
<totfact> 0.52607125E+00</totfact>
</mgrwt>
</event>
<event>
 4    5  0.1112901E-007  0.1868606E+04  0.7818608E-02  0.8685506E-01
         -2   -1    0    0    0  501 -0.00000000000E+00  0.00000000000E+00  0.11795176270E+04  0.11795176270E+04  0.25500000000E-02 0.  1.
          2   -1    0    0  501    0  0.00000000000E+00 -0.00000000000E+00 -0.33151488785E+04  0.33151488785E+04  0.25500000000E-02 0. -1.
    8880023    1    1    2    0    0  0.17456634968E+04  0.10264240241E+03 -0.19629311903E+03  0.18788873573E+04  0.65864270000E+03 0.  0.
    8880022    1    1    2    0    0 -0.17456634968E+04 -0.10264240241E+03 -0.19393381325E+04  0.26157791481E+04  0.15294330000E+03 0.  0.
<mgrwt>
<rscale>  0 0.18396255E+04</rscale>
<asrwt>0</asrwt>
<pdfrwt beam="1">  1        2 0.51002290E+00 0.18686056E+04</pdfrwt>
<pdfrwt beam="2">  1       -2 0.18146425E+00 0.18686056E+04</pdfrwt>
<totfact> 0.17508000E-01</totfact>
</mgrwt>
</event>
<event>
 4    5  0.1112901E-007  0.1025033E+04  0.7818608E-02  0.9349515E-01
          2   -1    0    0  501    0  0.00000000000E+00  0.00000000000E+00  0.14590367038E+04  0.14590367038E+04  0.25500000000E-02 0. -1.
         -2   -1    0    0    0  501 -0.00000000000E+00 -0.00000000000E+00 -0.17101401303E+04  0.17101401303E+04  0.25500000000E-02 0.  1.
    8880023    1    1    2    0    0 -0.76628188569E+03 -0.17232345114E+03 -0.14208079048E+04  0.17519670684E+04  0.65864270000E+03 0.  0.
    8880022    1    1    2    0    0  0.76628188569E+03  0.17232345114E+03  0.11697044783E+04  0.14172097656E+04  0.15294330000E+03 0.  0.
<mgrwt>
<rscale>  0 0.96349470E+03</rscale>
<asrwt>0</asrwt>
<pdfrwt beam="1">  1        2 0.22446719E+00 0.10250334E+04</pdfrwt>
<pdfrwt beam="2">  1       -2 0.26309848E+00 0.10250334E+04</pdfrwt>
<totfact> 0.71228504E-01</totfact>
</mgrwt>
</event>
<event>
 4    5  0.1112901E-007  0.1306703E+04  0.7818608E-02  0.9059793E-01
         -2   -1    0    0    0  501 -0.00000000000E+00  0.00000000000E+00  0.86276632075E+03  0.86276632076E+03  0.25500000000E-02 0.  1.
          2   -1    0    0  501    0  0.00000000000E+00 -0.00000000000E+00 -0.32962141905E+04  0.32962141905E+04  0.25500000000E-02 0. -1.
    8880023    1    1    2    0    0  0.11178721286E+04  0.15499901585E+03  0.16962855990E+03  0.13176671983E+04  0.65864270000E+03 0.  0.
    8880022    1    1    2    0    0 -0.11178721286E+04 -0.15499901585E+03 -0.26030764296E+04  0.28413133129E+04  0.15294330000E+03 0.  0.
<mgrwt>
<rscale>  0 0.12625613E+04</rscale>
<asrwt>0</asrwt>
<pdfrwt beam="1">  1        2 0.50710987E+00 0.13067031E+04</pdfrwt>
<pdfrwt beam="2">  1       -2 0.13273328E+00 0.13067031E+04</pdfrwt>
<totfact> 0.45088330E-01</totfact>
</mgrwt>
</event>
<event>
 4    5  0.1112901E-007  0.1026567E+04  0.7818608E-02  0.9347596E-01
          2   -1    0    0  501    0  0.00000000000E+00  0.00000000000E+00  0.27856750889E+04  0.27856750889E+04  0.25500000000E-02 0. -1.
         -2   -1    0    0    0  501 -0.00000000000E+00 -0.00000000000E+00 -0.56598251514E+03  0.56598251515E+03  0.25500000000E-02 0.  1.
    8880023    1    1    2    0    0 -0.77210961104E+03 -0.15452111835E+03  0.38102061137E+02  0.10272740631E+04  0.65864270000E+03 0.  1.
    8880022    1    1    2    0    0  0.77210961104E+03  0.15452111835E+03  0.21815905126E+04  0.23243835409E+04  0.15294330000E+03 0.  0.
<mgrwt>
<rscale>  0 0.96516708E+03</rscale>
<asrwt>0</asrwt>
<pdfrwt beam="1">  1        2 0.42856539E+00 0.10265672E+04</pdfrwt>
<pdfrwt beam="2">  1       -2 0.87074234E-01 0.10265672E+04</pdfrwt>
<totfact> 0.27213813E+00</totfact>
</mgrwt>
</event>
<event>
 4    5  0.1112901E-007  0.1050503E+04  0.7818608E-02  0.9318277E-01
          2   -1    0    0  501    0  0.00000000000E+00  0.00000000000E+00  0.19959234049E+04  0.19959234049E+04  0.25500000000E-02 0. -1.
         -2   -1    0    0    0  501 -0.00000000000E+00 -0.00000000000E+00 -0.54108239260E+03  0.54108239261E+03  0.25500000000E-02 0.  1.
    8880023    1    1    2    0    0  0.80505789376E+03  0.14706295834E+03  0.26256459486E+03  0.10828185900E+04  0.65864270000E+03 0.  0.
    8880022    1    1    2    0    0 -0.80505789376E+03 -0.14706295834E+03  0.11922764175E+04  0.14541872076E+04  0.15294330000E+03 0.  0.
<mgrwt>
<rscale>  0 0.99117490E+03</rscale>
<asrwt>0</asrwt>
<pdfrwt beam="1">  1        2 0.30706514E+00 0.10505027E+04</pdfrwt>
<pdfrwt beam="2">  1       -2 0.83243446E-01 0.10505027E+04</pdfrwt>
<totfact> 0.84536391E+00</totfact>
</mgrwt>
</event>
<event>
 4    5  0.1112901E-007  0.8493386E+03  0.7818608E-02  0.9612817E-01
          2   -1    0    0  501    0  0.00000000000E+00  0.00000000000E+00  0.14292961230E+04  0.14292961230E+04  0.25500000000E-02 0. -1.
         -2   -1    0    0    0  501 -0.00000000000E+00 -0.00000000000E+00 -0.85000765250E+03  0.85000765251E+03  0.25500000000E-02 0.  1.
    8880023    1    1    2    0    0  0.44666010755E+03 -0.29674998882E+03 -0.55552640679E+03  0.10148820633E+04  0.65864270000E+03 0.  1.
    8880022    1    1    2    0    0 -0.44666010755E+03  0.29674998882E+03  0.11348148773E+04  0.12644217122E+04  0.15294330000E+03 0.  0.
<mgrwt>
<rscale>  0 0.76453656E+03</rscale>
<asrwt>0</asrwt>
<pdfrwt beam="1">  1        2 0.21989171E+00 0.84933857E+03</pdfrwt>
<pdfrwt beam="2">  1       -2 0.13077041E+00 0.84933857E+03</pdfrwt>
<totfact> 0.60193857E+00</totfact>
</mgrwt>
</event>
<event>
 4    5  0.1112901E-007  0.8748626E+03  0.7818608E-02  0.9567654E-01
         -2   -1    0    0    0  501 -0.00000000000E+00  0.00000000000E+00  0.60078926541E+03  0.60078926542E+03  0.25500000000E-02 0.  1.
          2   -1    0    0  501    0  0.00000000000E+00 -0.00000000000E+00 -0.20512852325E+04  0.20512852325E+04  0.25500000000E-02 0. -1.
    8880023    1    1    2    0    0  0.21876007331E+03  0.53265228304E+03  0.19991829903E+03  0.89741403870E+03  0.65864270000E+03 0.  1.
    8880022    1    1    2    0    0 -0.21876007331E+03 -0.53265228304E+03 -0.16504142661E+04  0.17546604592E+04  0.15294330000E+03 0.  0.
<mgrwt>
<rscale>  0 0.79474583E+03</rscale>
<asrwt>0</asrwt>
<pdfrwt beam="1">  1        2 0.31558234E+00 0.87486264E+03</pdfrwt>
<pdfrwt beam="2">  1       -2 0.92429118E-01 0.87486264E+03</pdfrwt>
<totfact> 0.63272385E+00</totfact>
</mgrwt>
</event>
<event>
 4    5  0.1112901E-007  0.6937462E+03  0.7818608E-02  0.1002421E+00
          2   -1    0    0  501    0  0.00000000000E+00  0.00000000000E+00  0.51256849704E+03  0.51256849704E+03  0.25500000000E-02 0. -1.
         -2   -1    0    0    0  501 -0.00000000000E+00 -0.00000000000E+00 -0.81385569140E+03  0.81385569140E+03  0.25500000000E-02 0.  1.
    8880023    1    1    2    0    0 -0.15690284221E+03 -0.15117879743E+03 -0.60646457487E+03  0.92145700796E+03  0.65864270000E+03 0.  1.
    8880022    1    1    2    0    0  0.15690284221E+03  0.15117879743E+03  0.30517738050E+03  0.40496718049E+03  0.15294330000E+03 0.  0.
<mgrwt>
<rscale>  0 0.54601498E+03</rscale>
<asrwt>0</asrwt>
<pdfrwt beam="1">  1        2 0.78856692E-01 0.69374616E+03</pdfrwt>
<pdfrwt beam="2">  1       -2 0.12520857E+00 0.69374616E+03</pdfrwt>
<totfact> 0.29051652E+01</totfact>
</mgrwt>
</event>
<event>
 4    5  0.1112901E-007  0.7346061E+03  0.7818608E-02  0.9875947E-01
         -2   -1    0    0    0  501 -0.00000000000E+00  0.00000000000E+00  0.14162288186E+03  0.14162288188E+03  0.25500000000E-02 0.  1.
          2   -1    0    0  501    0  0.00000000000E+00 -0.00000000000E+00 -0.28765117656E+04  0.28765117656E+04  0.25500000000E-02 0. -1.
    8880023    1    1    2    0    0  0.11861378956E+03  0.30293027421E+03 -0.96874166618E+03  0.12157740761E+04  0.65864270000E+03 0.  0.
    8880022    1    1    2    0    0 -0.11861378956E+03 -0.30293027421E+03 -0.17661472176E+04  0.18023605714E+04  0.15294330000E+03 0.  0.
<mgrwt>
<rscale>  0 0.61441292E+03</rscale>
<asrwt>0</asrwt>
<pdfrwt beam="1">  1        2 0.44254023E+00 0.73460615E+03</pdfrwt>
<pdfrwt beam="2">  1       -2 0.21788138E-01 0.73460615E+03</pdfrwt>
<totfact> 0.40183755E+01</totfact>
</mgrwt>
</event>
<event>
 4    5  0.1112901E-007  0.1187074E+04  0.7818608E-02  0.9169791E-01
          2   -1    0    0  501    0  0.00000000000E+00  0.00000000000E+00  0.16877951569E+04  0.16877951569E+04  0.25500000000E-02 0. -1.
         -2   -1    0    0    0  501 -0.00000000000E+00 -0.00000000000E+00 -0.92724104583E+03  0.92724104583E+03  0.25500000000E-02 0.  1.
    8880023    1    1    2    0    0  0.87402477774E+03  0.45979851272E+03 -0.22864407366E+03  0.12088930073E+04  0.65864270000E+03 0.  1.
    8880022    1    1    2    0    0 -0.87402477774E+03 -0.45979851272E+03  0.98919818478E+03  0.14061431955E+04  0.15294330000E+03 0.  0.
<mgrwt>
<rscale>  0 0.11370749E+04</rscale>
<asrwt>0</asrwt>
<pdfrwt beam="1">  1        2 0.25966079E+00 0.11870738E+04</pdfrwt>
<pdfrwt beam="2">  1       -2 0.14265247E+00 0.11870738E+04</pdfrwt>
<totfact> 0.33183558E+00</totfact>
</mgrwt>
</event>
<event>
 4    5  0.1112901E-007  0.7426624E+03  0.7818608E-02  0.9852259E-01
         -2   -1    0    0    0  501 -0.00000000000E+00  0.00000000000E+00  0.98563924962E+03  0.98563924962E+03  0.25500000000E-02 0.  1.
          2   -1    0    0  501    0  0.00000000000E+00 -0.00000000000E+00 -0.94489260861E+03  0.94489260861E+03  0.25500000000E-02 0. -1.
    8880023    1    1    2    0    0 -0.34039203201E+03  0.43248902374E+02  0.79498753091E+03  0.10879120293E+04  0.65864270000E+03 0.  1.
    8880022    1    1    2    0    0  0.34039203201E+03 -0.43248902374E+02 -0.75424088990E+03  0.84261982889E+03  0.15294330000E+03 0.  0.
<mgrwt>
<rscale>  0 0.62631894E+03</rscale>
<asrwt>0</asrwt>
<pdfrwt beam="1">  1        2 0.14536810E+00 0.74266238E+03</pdfrwt>
<pdfrwt beam="2">  1       -2 0.15163681E+00 0.74266238E+03</pdfrwt>
<totfact> 0.81146457E+00</totfact>
</mgrwt>
</event>
<event>
 4    5  0.1112901E-007  0.1199052E+04  0.7818608E-02  0.9158045E-01
          2   -1    0    0  501    0  0.00000000000E+00  0.00000000000E+00  0.11787836191E+04  0.11787836191E+04  0.25500000000E-02 0. -1.
         -2   -1    0    0    0  501 -0.00000000000E+00 -0.00000000000E+00 -0.15325878612E+04  0.15325878612E+04  0.25500000000E-02 0.  1.
    8880023    1    1    2    0    0 -0.72083448110E+03 -0.69592554373E+03 -0.95502894453E+03  0.15329074345E+04  0.65864270000E+03 0.  0.
    8880022    1    1    2    0    0  0.72083448110E+03  0.69592554373E+03  0.60122470238E+03  0.11784640458E+04  0.15294330000E+03 0.  0.
<mgrwt>
<rscale>  0 0.11497169E+04</rscale>
<asrwt>0</asrwt>
<pdfrwt beam="1">  1        2 0.18135133E+00 0.11990517E+04</pdfrwt>
<pdfrwt beam="2">  1       -2 0.23578275E+00 0.11990517E+04</pdfrwt>
<totfact> 0.14918660E+00</totfact>
</mgrwt>
</event>
<event>
 4    5  0.1112901E-007  0.8173715E+03  0.7818608E-02  0.9674422E-01
         -2   -1    0    0    0  501 -0.00000000000E+00  0.00000000000E+00  0.68543839777E+03  0.68543839777E+03  0.25500000000E-02 0.  1.
          2   -1    0    0  501    0  0.00000000000E+00 -0.00000000000E+00 -0.13657121686E+04  0.13657121686E+04  0.25500000000E-02 0. -1.
    8880023    1    1    2    0    0 -0.47853779480E+03 -0.72715107462E+02  0.36037986255E+03  0.89329153108E+03  0.65864270000E+03 0.  0.
    8880022    1    1    2    0    0  0.47853779480E+03  0.72715107462E+02 -0.10406536334E+04  0.11578590353E+04  0.15294330000E+03 0.  0.
<mgrwt>
<rscale>  0 0.72560318E+03</rscale>
<asrwt>0</asrwt>
<pdfrwt beam="1">  1        2 0.21010956E+00 0.81737147E+03</pdfrwt>
<pdfrwt beam="2">  1       -2 0.10545206E+00 0.81737147E+03</pdfrwt>
<totfact> 0.11168237E+01</totfact>
</mgrwt>
</event>
<event>
 4    5  0.1112901E-007  0.1046817E+04  0.7818608E-02  0.9322717E-01
          2   -1    0    0  501    0  0.00000000000E+00  0.00000000000E+00  0.85940317614E+03  0.85940317614E+03  0.25500000000E-02 0. -1.
         -2   -1    0    0    0  501 -0.00000000000E+00 -0.00000000000E+00 -0.11940918636E+04  0.11940918636E+04  0.25500000000E-02 0.  1.
    8880023    1    1    2    0    0 -0.50701406885E+03 -0.63635939927E+03 -0.57115208005E+03  0.11924937970E+04  0.65864270000E+03 0.  1.
    8880022    1    1    2    0    0  0.50701406885E+03  0.63635939927E+03  0.23646339255E+03  0.86100124279E+03  0.15294330000E+03 0. -1.
<mgrwt>
<rscale>  0 0.98718120E+03</rscale>
<asrwt>0</asrwt>
<pdfrwt beam="1">  1        2 0.13221587E+00 0.10468174E+04</pdfrwt>
<pdfrwt beam="2">  1       -2 0.18370644E+00 0.10468174E+04</pdfrwt>
<totfact> 0.52785664E+00</totfact>
</mgrwt>
</event>
<event>
 4    5  0.1112901E-007  0.8321330E+03  0.7818608E-02  0.9645196E-01
         -2   -1    0    0    0  501 -0.00000000000E+00  0.00000000000E+00  0.28262375286E+03  0.28262375287E+03  0.25500000000E-02 0.  1.
          2   -1    0    0  501    0  0.00000000000E+00 -0.00000000000E+00 -0.36426787309E+04  0.36426787309E+04  0.25500000000E-02 0. -1.
    8880023    1    1    2    0    0 -0.49253791436E+03 -0.12665545198E+03 -0.40968198147E+03  0.92751535449E+03  0.65864270000E+03 0.  1.
    8880022    1    1    2    0    0  0.49253791436E+03  0.12665545198E+03 -0.29503729965E+04  0.29977871293E+04  0.15294330000E+03 0.  0.
<mgrwt>
<rscale>  0 0.74375669E+03</rscale>
<asrwt>0</asrwt>
<pdfrwt beam="1">  1        2 0.56041208E+00 0.83213305E+03</pdfrwt>
<pdfrwt beam="2">  1       -2 0.43480580E-01 0.83213305E+03</pdfrwt>
<totfact> 0.34605778E+00</totfact>
</mgrwt>
</event>
<event>
 4    5  0.1112901E-007  0.9412838E+03  0.7818608E-02  0.9462767E-01
          2   -1    0    0  501    0  0.00000000000E+00  0.00000000000E+00  0.15041301752E+04  0.15041301752E+04  0.25500000000E-02 0. -1.
         -2   -1    0    0    0  501 -0.00000000000E+00 -0.00000000000E+00 -0.13928597314E+04  0.13928597314E+04  0.25500000000E-02 0.  1.
    8880023    1    1    2    0    0  0.10913274097E+03 -0.66354734701E+03 -0.11338473688E+04  0.14736434776E+04  0.65864270000E+03 0.  1.
    8880022    1    1    2    0    0 -0.10913274097E+03  0.66354734701E+03  0.12451178126E+04  0.14233464291E+04  0.15294330000E+03 0.  0.
<mgrwt>
<rscale>  0 0.87085390E+03</rscale>
<asrwt>0</asrwt>
<pdfrwt beam="1">  1        2 0.23140464E+00 0.94128383E+03</pdfrwt>
<pdfrwt beam="2">  1       -2 0.21428611E+00 0.94128383E+03</pdfrwt>
<totfact> 0.13609291E+00</totfact>
</mgrwt>
</event>
<event>
 4    5  0.1112901E-007  0.1067977E+04  0.7818608E-02  0.9297576E-01
         -2   -1    0    0    0  501 -0.00000000000E+00  0.00000000000E+00  0.62663188556E+03  0.62663188557E+03  0.25500000000E-02 0.  1.
          2   -1    0    0  501    0  0.00000000000E+00 -0.00000000000E+00 -0.26539451196E+04  0.26539451196E+04  0.25500000000E-02 0. -1.
    8880023    1    1    2    0    0  0.74963878775E+03 -0.38053556827E+03  0.13534630034E+02  0.10680632113E+04  0.65864270000E+03 0.  0.
    8880022    1    1    2    0    0 -0.74963878775E+03  0.38053556827E+03 -0.20408478641E+04  0.22125137939E+04  0.15294330000E+03 0.  0.
<mgrwt>
<rscale>  0 0.10100634E+04</rscale>
<asrwt>0</asrwt>
<pdfrwt beam="1">  1        2 0.40829924E+00 0.10679775E+04</pdfrwt>
<pdfrwt beam="2">  1       -2 0.96404907E-01 0.10679775E+04</pdfrwt>
<totfact> 0.25528490E+00</totfact>
</mgrwt>
</event>
<event>
 4    5  0.1112901E-007  0.7030822E+03  0.7818608E-02  0.9984648E-01
         -2   -1    0    0    0  501 -0.00000000000E+00  0.00000000000E+00  0.64842298037E+03  0.64842298037E+03  0.25500000000E-02 0.  1.
          2   -1    0    0  501    0  0.00000000000E+00 -0.00000000000E+00 -0.11254707309E+04  0.11254707309E+04  0.25500000000E-02 0. -1.
    8880023    1    1    2    0    0 -0.21879564010E+02 -0.24502167111E+03  0.42834793492E+03  0.82329004260E+03  0.65864270000E+03 0.  1.
    8880022    1    1    2    0    0  0.21879564010E+02  0.24502167111E+03 -0.90539568550E+03  0.95060366871E+03  0.15294330000E+03 0.  0.
<mgrwt>
<rscale>  0 0.56328564E+03</rscale>
<asrwt>0</asrwt>
<pdfrwt beam="1">  1        2 0.17314934E+00 0.70308217E+03</pdfrwt>
<pdfrwt beam="2">  1       -2 0.99757382E-01 0.70308217E+03</pdfrwt>
<totfact> 0.17871786E+01</totfact>
</mgrwt>
</event>
<event>
 4    5  0.1112901E-007  0.1229687E+04  0.7818608E-02  0.9128791E-01
          2   -1    0    0  501    0  0.00000000000E+00  0.00000000000E+00  0.26702809525E+04  0.26702809525E+04  0.25500000000E-02 0. -1.
         -2   -1    0    0    0  501 -0.00000000000E+00 -0.00000000000E+00 -0.90292509979E+03  0.90292509979E+03  0.25500000000E-02 0.  1.
    8880023    1    1    2    0    0  0.96654970298E+03 -0.37960588083E+03 -0.29013324695E+03  0.12634502208E+04  0.65864270000E+03 0.  0.
    8880022    1    1    2    0    0 -0.96654970298E+03  0.37960588083E+03  0.20574890997E+04  0.23097558316E+04  0.15294330000E+03 0.  0.
<mgrwt>
<rscale>  0 0.11819641E+04</rscale>
<asrwt>0</asrwt>
<pdfrwt beam="1">  1        2 0.41081245E+00 0.12296866E+04</pdfrwt>
<pdfrwt beam="2">  1       -2 0.13891155E+00 0.12296866E+04</pdfrwt>
<totfact> 0.99048183E-01</totfact>
</mgrwt>
</event>
<event>
 4    5  0.1112901E-007  0.7017404E+03  0.7818608E-02  0.9990056E-01
          2   -1    0    0  501    0  0.00000000000E+00  0.00000000000E+00  0.12452237529E+04  0.12452237529E+04  0.25500000000E-02 0. -1.
         -2   -1    0    0    0  501 -0.00000000000E+00 -0.00000000000E+00 -0.59638310584E+03  0.59638310584E+03  0.25500000000E-02 0.  1.
    8880023    1    1    2    0    0  0.14326403662E+03  0.19520465839E+03 -0.36296313478E+03  0.79005182509E+03  0.65864270000E+03 0.  1.
    8880022    1    1    2    0    0 -0.14326403662E+03 -0.19520465839E+03  0.10118037819E+04  0.10515550337E+04  0.15294330000E+03 0.  0.
<mgrwt>
<rscale>  0 0.56088403E+03</rscale>
<asrwt>0</asrwt>
<pdfrwt beam="1">  1        2 0.19157288E+00 0.70174044E+03</pdfrwt>
<pdfrwt beam="2">  1       -2 0.91751247E-01 0.70174044E+03</pdfrwt>
<totfact> 0.18456517E+01</totfact>
</mgrwt>
</event>
<event>
 4    5  0.1112901E-007  0.9464669E+03  0.7818608E-02  0.9455216E-01
          2   -1    0    0  501    0  0.00000000000E+00  0.00000000000E+00  0.14853996325E+04  0.14853996325E+04  0.25500000000E-02 0. -1.
         -2   -1    0    0    0  501 -0.00000000000E+00 -0.00000000000E+00 -0.14170310738E+04  0.14170310738E+04  0.25500000000E-02 0.  1.
    8880023    1    1    2    0    0  0.31815764303E+03 -0.60063726777E+03 -0.11558106573E+04  0.14938868414E+04  0.65864270000E+03 0.  1.
    8880022    1    1    2    0    0 -0.31815764303E+03  0.60063726777E+03  0.12241792160E+04  0.14085438648E+04  0.15294330000E+03 0.  0.
<mgrwt>
<rscale>  0 0.87667663E+03</rscale>
<asrwt>0</asrwt>
<pdfrwt beam="1">  1        2 0.22852302E+00 0.94646691E+03</pdfrwt>
<pdfrwt beam="2">  1       -2 0.21800478E+00 0.94646691E+03</pdfrwt>
<totfact> 0.13196760E+00</totfact>
</mgrwt>
</event>
<event>
 4    5  0.1112901E-007  0.2263539E+04  0.7818608E-02  0.8501946E-01
         -2   -1    0    0    0  501 -0.00000000000E+00  0.00000000000E+00  0.28238166636E+04  0.28238166636E+04  0.25500000000E-02 0.  1.
          2   -1    0    0  501    0  0.00000000000E+00 -0.00000000000E+00 -0.25406661791E+04  0.25406661791E+04  0.25500000000E-02 0. -1.
    8880023    1    1    2    0    0  0.25518250040E+03  0.21505073287E+04  0.16481759605E+04  0.28000168004E+04  0.65864270000E+03 0.  0.
    8880022    1    1    2    0    0 -0.25518250040E+03 -0.21505073287E+04 -0.13650254759E+04  0.25644660423E+04  0.15294330000E+03 0.  0.
<mgrwt>
<rscale>  0 0.22400381E+04</rscale>
<asrwt>0</asrwt>
<pdfrwt beam="1">  1        2 0.39087172E+00 0.22635393E+04</pdfrwt>
<pdfrwt beam="2">  1       -2 0.43443333E+00 0.22635393E+04</pdfrwt>
<totfact> 0.12403136E-02</totfact>
</mgrwt>
</event>
<event>
 4    5  0.1112901E-007  0.7794786E+03  0.7818608E-02  0.9757063E-01
          2   -1    0    0  501    0  0.00000000000E+00  0.00000000000E+00  0.50185102981E+03  0.50185102981E+03  0.25500000000E-02 0. -1.
         -2   -1    0    0    0  501 -0.00000000000E+00 -0.00000000000E+00 -0.10306870618E+04  0.10306870618E+04  0.25500000000E-02 0.  1.
    8880023    1    1    2    0    0 -0.41616021048E+03  0.24234724334E+02 -0.70866725193E+03  0.10534686150E+04  0.65864270000E+03 0.  0.
    8880022    1    1    2    0    0  0.41616021048E+03 -0.24234724334E+02  0.17983121998E+03  0.47906947653E+03  0.15294330000E+03 0.  0.
<mgrwt>
<rscale>  0 0.67718569E+03</rscale>
<asrwt>0</asrwt>
<pdfrwt beam="1">  1        2 0.77207851E-01 0.77947858E+03</pdfrwt>
<pdfrwt beam="2">  1       -2 0.15856724E+00 0.77947858E+03</pdfrwt>
<totfact> 0.16011958E+01</totfact>
</mgrwt>
</event>
<event>
 4    5  0.1112901E-007  0.1620391E+04  0.7818608E-02  0.8828992E-01
          2   -1    0    0  501    0  0.00000000000E+00  0.00000000000E+00  0.25163220395E+04  0.25163220395E+04  0.25500000000E-02 0. -1.
         -2   -1    0    0    0  501 -0.00000000000E+00 -0.00000000000E+00 -0.14543885596E+04  0.14543885596E+04  0.25500000000E-02 0.  1.
    8880023    1    1    2    0    0 -0.13057506279E+03 -0.14747231921E+04 -0.61078629620E+03  0.17316837027E+04  0.65864270000E+03 0.  0.
    8880022    1    1    2    0    0  0.13057506279E+03  0.14747231921E+04  0.16727197761E+04  0.22390268964E+04  0.15294330000E+03 0.  0.
<mgrwt>
<rscale>  0 0.15863273E+04</rscale>
<asrwt>0</asrwt>
<pdfrwt beam="1">  1        2 0.38712646E+00 0.16203915E+04</pdfrwt>
<pdfrwt beam="2">  1       -2 0.22375209E+00 0.16203915E+04</pdfrwt>
<totfact> 0.29512486E-01</totfact>
</mgrwt>
</event>
<event>
 4    5  0.1112901E-007  0.6867891E+03  0.7818608E-02  0.1005718E+00
         -2   -1    0    0    0  501 -0.00000000000E+00  0.00000000000E+00  0.54199194906E+03  0.54199194907E+03  0.25500000000E-02 0.  1.
          2   -1    0    0  501    0  0.00000000000E+00 -0.00000000000E+00 -0.88503468096E+03  0.88503468097E+03  0.25500000000E-02 0. -1.
    8880023    1    1    2    0    0 -0.11290644594E+03 -0.15849663765E+03  0.29137140298E+03  0.74604058229E+03  0.65864270000E+03 0.  1.
    8880022    1    1    2    0    0  0.11290644594E+03  0.15849663765E+03 -0.63441413488E+03  0.68098604775E+03  0.15294330000E+03 0.  0.
<mgrwt>
<rscale>  0 0.53212699E+03</rscale>
<asrwt>0</asrwt>
<pdfrwt beam="1">  1        2 0.13615918E+00 0.68678909E+03</pdfrwt>
<pdfrwt beam="2">  1       -2 0.83383377E-01 0.68678909E+03</pdfrwt>
<totfact> 0.38560383E+01</totfact>
</mgrwt>
</event>
<event>
 4    5  0.1112901E-007  0.8241671E+03  0.7818608E-02  0.9660790E-01
          2   -1    0    0  501    0  0.00000000000E+00  0.00000000000E+00  0.20329361703E+04  0.20329361703E+04  0.25500000000E-02 0. -1.
         -2   -1    0    0    0  501 -0.00000000000E+00 -0.00000000000E+00 -0.42328057599E+03  0.42328057600E+03  0.25500000000E-02 0.  1.
    8880023    1    1    2    0    0  0.48263838086E+03  0.11180956469E+03  0.64842833392E+02  0.82671396791E+03  0.65864270000E+03 0.  1.
    8880022    1    1    2    0    0 -0.48263838086E+03 -0.11180956469E+03  0.15448127609E+04  0.16295027784E+04  0.15294330000E+03 0.  0.
<mgrwt>
<rscale>  0 0.73400115E+03</rscale>
<asrwt>0</asrwt>
<pdfrwt beam="1">  1        2 0.31275941E+00 0.82416709E+03</pdfrwt>
<pdfrwt beam="2">  1       -2 0.65120090E-01 0.82416709E+03</pdfrwt>
<totfact> 0.14275651E+01</totfact>
</mgrwt>
</event>
<event>
 4    5  0.1112901E-007  0.1432474E+04  0.7818608E-02  0.8958852E-01
          2   -1    0    0  501    0  0.00000000000E+00  0.00000000000E+00  0.46128615539E+04  0.46128615539E+04  0.25500000000E-02 0. -1.
         -2   -1    0    0    0  501 -0.00000000000E+00 -0.00000000000E+00 -0.43957628966E+03  0.43957628966E+03  0.25500000000E-02 0.  1.
    8880023    1    1    2    0    0 -0.12115164755E+04 -0.38781277088E+03  0.14268610910E+04  0.20218589701E+04  0.65864270000E+03 0.  0.
    8880022    1    1    2    0    0  0.12115164755E+04  0.38781277088E+03  0.27464241732E+04  0.30305788734E+04  0.15294330000E+03 0.  0.
<mgrwt>
<rscale>  0 0.13930676E+04</rscale>
<asrwt>0</asrwt>
<pdfrwt beam="1">  1        2 0.70967099E+00 0.14324738E+04</pdfrwt>
<pdfrwt beam="2">  1       -2 0.67627123E-01 0.14324738E+04</pdfrwt>
<totfact> 0.19008498E-01</totfact>
</mgrwt>
</event>
<event>
 4    5  0.1112901E-007  0.7037670E+03  0.7818608E-02  0.9981919E-01
          2   -1    0    0  501    0  0.00000000000E+00  0.00000000000E+00  0.64196381336E+03  0.64196381337E+03  0.25500000000E-02 0. -1.
         -2   -1    0    0    0  501 -0.00000000000E+00 -0.00000000000E+00 -0.64881469659E+03  0.64881469660E+03  0.25500000000E-02 0.  1.
    8880023    1    1    2    0    0  0.96944111267E+01 -0.24775763115E+03 -0.39377761115E+03  0.80644208640E+03  0.65864270000E+03 0. -1.
    8880022    1    1    2    0    0 -0.96944111267E+01  0.24775763115E+03  0.38692672792E+03  0.48433642357E+03  0.15294330000E+03 0.  0.
<mgrwt>
<rscale>  0 0.56450219E+03</rscale>
<asrwt>0</asrwt>
<pdfrwt beam="1">  1        2 0.98763663E-01 0.70376703E+03</pdfrwt>
<pdfrwt beam="2">  1       -2 0.99817646E-01 0.70376703E+03</pdfrwt>
<totfact> 0.38506134E+01</totfact>
</mgrwt>
</event>
<event>
 4    5  0.1112901E-007  0.1054111E+04  0.7818608E-02  0.9313955E-01
          2   -1    0    0  501    0  0.00000000000E+00  0.00000000000E+00  0.16027418794E+04  0.16027418794E+04  0.25500000000E-02 0. -1.
         -2   -1    0    0    0  501 -0.00000000000E+00 -0.00000000000E+00 -0.77565302667E+03  0.77565302667E+03  0.25500000000E-02 0.  1.
    8880023    1    1    2    0    0 -0.68273544737E+03  0.45957894021E+03 -0.17942449527E+03  0.10692725794E+04  0.65864270000E+03 0.  1.
    8880022    1    1    2    0    0  0.68273544737E+03 -0.45957894021E+03  0.10065133480E+04  0.13091223267E+04  0.15294330000E+03 0.  0.
<mgrwt>
<rscale>  0 0.99508199E+03</rscale>
<asrwt>0</asrwt>
<pdfrwt beam="1">  1        2 0.24657567E+00 0.10541113E+04</pdfrwt>
<pdfrwt beam="2">  1       -2 0.11933124E+00 0.10541113E+04</pdfrwt>
<totfact> 0.59176552E+00</totfact>
</mgrwt>
</event>
<event>
 4    5  0.1112901E-007  0.9048857E+03  0.7818608E-02  0.9518234E-01
          2   -1    0    0  501    0  0.00000000000E+00  0.00000000000E+00  0.16929797235E+04  0.16929797235E+04  0.25500000000E-02 0. -1.
         -2   -1    0    0    0  501 -0.00000000000E+00 -0.00000000000E+00 -0.46134457483E+03  0.46134457484E+03  0.25500000000E-02 0.  1.
    8880023    1    1    2    0    0 -0.38376954973E+03  0.48757449363E+03  0.17829567408E+03  0.92228385425E+03  0.65864270000E+03 0.  1.
    8880022    1    1    2    0    0  0.38376954973E+03 -0.48757449363E+03  0.10533394746E+04  0.12320404441E+04  0.15294330000E+03 0.  0.
<mgrwt>
<rscale>  0 0.82952784E+03</rscale>
<asrwt>0</asrwt>
<pdfrwt beam="1">  1        2 0.26045842E+00 0.90488572E+03</pdfrwt>
<pdfrwt beam="2">  1       -2 0.70976088E-01 0.90488572E+03</pdfrwt>
<totfact> 0.18008492E+01</totfact>
</mgrwt>
</event>
<event>
 4    5  0.1112901E-007  0.7563673E+03  0.7818608E-02  0.9814604E-01
          2   -1    0    0  501    0  0.00000000000E+00  0.00000000000E+00  0.26530597478E+03  0.26530597480E+03  0.25500000000E-02 0. -1.
         -2   -1    0    0    0  501 -0.00000000000E+00 -0.00000000000E+00 -0.14114792808E+04  0.14114792808E+04  0.25500000000E-02 0.  1.
    8880023    1    1    2    0    0 -0.36042020276E+03  0.91534645345E+02 -0.98899209862E+03  0.12450690307E+04  0.65864270000E+03 0.  0.
    8880022    1    1    2    0    0  0.36042020276E+03 -0.91534645345E+02 -0.15718120741E+03  0.43171622489E+03  0.15294330000E+03 0.  0.
<mgrwt>
<rscale>  0 0.64584640E+03</rscale>
<asrwt>0</asrwt>
<pdfrwt beam="1">  1        2 0.40816305E-01 0.75636732E+03</pdfrwt>
<pdfrwt beam="2">  1       -2 0.21715065E+00 0.75636732E+03</pdfrwt>
<totfact> 0.13227303E+01</totfact>
</mgrwt>
</event>
<event>
 4    5  0.1112901E-007  0.9266495E+03  0.7818608E-02  0.9484538E-01
         -2   -1    0    0    0  501 -0.00000000000E+00  0.00000000000E+00  0.11269204578E+04  0.11269204578E+04  0.25500000000E-02 0.  1.
          2   -1    0    0  501    0  0.00000000000E+00 -0.00000000000E+00 -0.17403662870E+04  0.17403662870E+04  0.25500000000E-02 0. -1.
    8880023    1    1    2    0    0 -0.64850017302E+03 -0.65700743474E+02  0.85032163238E+03  0.12576669459E+04  0.65864270000E+03 0.  0.
    8880022    1    1    2    0    0  0.64850017302E+03  0.65700743474E+02 -0.14637674617E+04  0.16096197989E+04  0.15294330000E+03 0.  0.
<mgrwt>
<rscale>  0 0.85433451E+03</rscale>
<asrwt>0</asrwt>
<pdfrwt beam="1">  1        2 0.26774866E+00 0.92664949E+03</pdfrwt>
<pdfrwt beam="2">  1       -2 0.17337238E+00 0.92664949E+03</pdfrwt>
<totfact> 0.18877597E+00</totfact>
</mgrwt>
</event>
<event>
 4    5  0.1112901E-007  0.1157394E+04  0.7818608E-02  0.9199693E-01
         -2   -1    0    0    0  501 -0.00000000000E+00  0.00000000000E+00  0.18652512303E+04  0.18652512303E+04  0.25500000000E-02 0.  1.
          2   -1    0    0  501    0  0.00000000000E+00 -0.00000000000E+00 -0.91494827663E+03  0.91494827664E+03  0.25500000000E-02 0. -1.
    8880023    1    1    2    0    0  0.86805373350E+03 -0.39017188655E+03  0.13130054091E+04  0.17502984876E+04  0.65864270000E+03 0.  0.
    8880022    1    1    2    0    0 -0.86805373350E+03  0.39017188655E+03 -0.36270245545E+03  0.10299010193E+04  0.15294330000E+03 0.  0.
<mgrwt>
<rscale>  0 0.11056593E+04</rscale>
<asrwt>0</asrwt>
<pdfrwt beam="1">  1        2 0.14076127E+00 0.11573943E+04</pdfrwt>
<pdfrwt beam="2">  1       -2 0.28696173E+00 0.11573943E+04</pdfrwt>
<totfact> 0.10750528E+00</totfact>
</mgrwt>
</event>
<event>
 4    5  0.1112901E-007  0.1167899E+04  0.7818608E-02  0.9188977E-01
          2   -1    0    0  501    0  0.00000000000E+00  0.00000000000E+00  0.90557205179E+03  0.90557205180E+03  0.25500000000E-02 0. -1.
         -2   -1    0    0    0  501 -0.00000000000E+00 -0.00000000000E+00 -0.22981326949E+04  0.22981326949E+04  0.25500000000E-02 0.  1.
    8880023    1    1    2    0    0 -0.72917982396E+03 -0.63124803215E+03 -0.17999299138E+04  0.21456316540E+04  0.65864270000E+03 0.  1.
    8880022    1    1    2    0    0  0.72917982396E+03  0.63124803215E+03  0.40736927070E+03  0.10580730927E+04  0.15294330000E+03 0.  0.
<mgrwt>
<rscale>  0 0.11167936E+04</rscale>
<asrwt>0</asrwt>
<pdfrwt beam="1">  1        2 0.13931878E+00 0.11678988E+04</pdfrwt>
<pdfrwt beam="2">  1       -2 0.35355887E+00 0.11678988E+04</pdfrwt>
<totfact> 0.42437560E-01</totfact>
</mgrwt>
</event>
<event>
 4    5  0.1112901E-007  0.1304491E+04  0.7818608E-02  0.9061691E-01
         -2   -1    0    0    0  501 -0.00000000000E+00  0.00000000000E+00  0.16344572142E+04  0.16344572142E+04  0.25500000000E-02 0.  1.
          2   -1    0    0  501    0  0.00000000000E+00 -0.00000000000E+00 -0.17280376770E+04  0.17280376770E+04  0.25500000000E-02 0. -1.
    8880023    1    1    2    0    0  0.64551791608E+03  0.92260125296E+03  0.11059258021E+04  0.17101954678E+04  0.65864270000E+03 0.  0.
    8880022    1    1    2    0    0 -0.64551791608E+03 -0.92260125296E+03 -0.11995062650E+04  0.16522994234E+04  0.15294330000E+03 0.  0.
<mgrwt>
<rscale>  0 0.12602546E+04</rscale>
<asrwt>0</asrwt>
<pdfrwt beam="1">  1        2 0.26585195E+00 0.13044910E+04</pdfrwt>
<pdfrwt beam="2">  1       -2 0.25145496E+00 0.13044910E+04</pdfrwt>
<totfact> 0.57133143E-01</totfact>
</mgrwt>
</event>
<event>
 4    5  0.1112901E-007  0.8986530E+03  0.7818608E-02  0.9528198E-01
          2   -1    0    0  501    0  0.00000000000E+00  0.00000000000E+00  0.13865248665E+04  0.13865248665E+04  0.25500000000E-02 0. -1.
         -2   -1    0    0    0  501 -0.00000000000E+00 -0.00000000000E+00 -0.57347992406E+03  0.57347992406E+03  0.25500000000E-02 0.  1.
    8880023    1    1    2    0    0 -0.44275413357E+03 -0.42158714700E+03  0.95781252755E+03  0.13133856972E+04  0.65864270000E+03 0.  1.
    8880022    1    1    2    0    0  0.44275413357E+03  0.42158714700E+03 -0.14476758507E+03  0.64661909345E+03  0.15294330000E+03 0.  0.
<mgrwt>
<rscale>  0 0.82236478E+03</rscale>
<asrwt>0</asrwt>
<pdfrwt beam="1">  1        2 0.21331151E+00 0.89865297E+03</pdfrwt>
<pdfrwt beam="2">  1       -2 0.88227682E-01 0.89865297E+03</pdfrwt>
<totfact> 0.16386620E+01</totfact>
</mgrwt>
</event>
<event>
 4    5  0.1112901E-007  0.1367456E+04  0.7818608E-02  0.9009392E-01
         -2   -1    0    0    0  501 -0.00000000000E+00  0.00000000000E+00  0.15987086379E+04  0.15987086379E+04  0.25500000000E-02 0.  1.
          2   -1    0    0  501    0  0.00000000000E+00 -0.00000000000E+00 -0.14270649082E+04  0.14270649082E+04  0.25500000000E-02 0. -1.
    8880023    1    1    2    0    0 -0.10931276200E+04  0.49111966213E+03  0.87920922511E+03  0.16257138690E+04  0.65864270000E+03 0.  1.
    8880022    1    1    2    0    0  0.10931276200E+04 -0.49111966213E+03 -0.70756549539E+03  0.14000596771E+04  0.15294330000E+03 0.  0.
<mgrwt>
<rscale>  0 0.13257489E+04</rscale>
<asrwt>0</asrwt>
<pdfrwt beam="1">  1        2 0.21954845E+00 0.13674563E+04</pdfrwt>
<pdfrwt beam="2">  1       -2 0.24595517E+00 0.13674563E+04</pdfrwt>
<totfact> 0.90633856E-01</totfact>
</mgrwt>
</event>
<event>
 4    5  0.1112901E-007  0.2243341E+04  0.7818608E-02  0.8510309E-01
          2   -1    0    0  501    0  0.00000000000E+00  0.00000000000E+00  0.23272556167E+04  0.23272556167E+04  0.25500000000E-02 0. -1.
         -2   -1    0    0    0  501 -0.00000000000E+00 -0.00000000000E+00 -0.22896638396E+04  0.22896638396E+04  0.25500000000E-02 0.  1.
    8880023    1    1    2    0    0 -0.17436257764E+04 -0.12484143940E+04  0.72857433463E+03  0.23586860992E+04  0.65864270000E+03 0.  0.
    8880022    1    1    2    0    0  0.17436257764E+04  0.12484143940E+04 -0.69098255753E+03  0.22582333571E+04  0.15294330000E+03 0.  0.
<mgrwt>
<rscale>  0 0.22196123E+04</rscale>
<asrwt>0</asrwt>
<pdfrwt beam="1">  1        2 0.35803933E+00 0.22433412E+04</pdfrwt>
<pdfrwt beam="2">  1       -2 0.35225598E+00 0.22433412E+04</pdfrwt>
<totfact> 0.56964294E-02</totfact>
</mgrwt>
</event>
<event>
 4    5  0.1112901E-007  0.7985846E+03  0.7818608E-02  0.9713865E-01
         -2   -1    0    0    0  501 -0.00000000000E+00  0.00000000000E+00  0.68198677991E+03  0.68198677991E+03  0.25500000000E-02 0.  1.
          2   -1    0    0  501    0  0.00000000000E+00 -0.00000000000E+00 -0.37750609199E+04  0.37750609199E+04  0.25500000000E-02 0. -1.
    8880023    1    1    2    0    0  0.42655518736E+03 -0.14824903963E+03  0.42649137652E+03  0.90533541084E+03  0.65864270000E+03 0.  1.
    8880022    1    1    2    0    0 -0.42655518736E+03  0.14824903963E+03 -0.35195655165E+04  0.35517122890E+04  0.15294330000E+03 0.  0.
<mgrwt>
<rscale>  0 0.70197249E+03</rscale>
<asrwt>0</asrwt>
<pdfrwt beam="1">  1        2 0.58077859E+00 0.79858457E+03</pdfrwt>
<pdfrwt beam="2">  1       -2 0.10492104E+00 0.79858457E+03</pdfrwt>
<totfact> 0.41133994E-01</totfact>
</mgrwt>
</event>
<event>
 4    5  0.1112901E-007  0.9797528E+03  0.7818608E-02  0.9408540E-01
          2   -1    0    0  501    0  0.00000000000E+00  0.00000000000E+00  0.28828320798E+04  0.28828320798E+04  0.25500000000E-02 0. -1.
         -2   -1    0    0    0  501 -0.00000000000E+00 -0.00000000000E+00 -0.30018392323E+03  0.30018392325E+03  0.25500000000E-02 0.  1.
    8880023    1    1    2    0    0 -0.72437464291E+03  0.37238175521E+02  0.84481464859E+03  0.12936874823E+04  0.65864270000E+03 0.  0.
    8880022    1    1    2    0    0  0.72437464291E+03 -0.37238175521E+02  0.17378335080E+04  0.18893285208E+04  0.15294330000E+03 0.  0.
<mgrwt>
<rscale>  0 0.91376189E+03</rscale>
<asrwt>0</asrwt>
<pdfrwt beam="1">  1        2 0.44351263E+00 0.97975278E+03</pdfrwt>
<pdfrwt beam="2">  1       -2 0.46182141E-01 0.97975278E+03</pdfrwt>
<totfact> 0.93627123E+00</totfact>
</mgrwt>
</event>
<event>
 4    5  0.1112901E-007  0.1222636E+04  0.7818608E-02  0.9135426E-01
          2   -1    0    0  501    0  0.00000000000E+00  0.00000000000E+00  0.27167292944E+04  0.27167292944E+04  0.25500000000E-02 0. -1.
         -2   -1    0    0    0  501 -0.00000000000E+00 -0.00000000000E+00 -0.85105265692E+03  0.85105265692E+03  0.25500000000E-02 0.  1.
    8880023    1    1    2    0    0 -0.92772523885E+03 -0.44761020834E+03 -0.21468493418E+03  0.12413415504E+04  0.65864270000E+03 0.  0.
    8880022    1    1    2    0    0  0.92772523885E+03  0.44761020834E+03  0.20803615717E+04  0.23264404010E+04  0.15294330000E+03 0.  0.
<mgrwt>
<rscale>  0 0.11745531E+04</rscale>
<asrwt>0</asrwt>
<pdfrwt beam="1">  1        2 0.41795836E+00 0.12226362E+04</pdfrwt>
<pdfrwt beam="2">  1       -2 0.13093118E+00 0.12226362E+04</pdfrwt>
<totfact> 0.10840644E+00</totfact>
</mgrwt>
</event>
<event>
 4    5  0.1112901E-007  0.9232662E+03  0.7818608E-02  0.9489669E-01
          2   -1    0    0  501    0  0.00000000000E+00  0.00000000000E+00  0.40986757227E+04  0.40986757227E+04  0.25500000000E-02 0. -1.
         -2   -1    0    0    0  501 -0.00000000000E+00 -0.00000000000E+00 -0.33706267183E+03  0.33706267184E+03  0.25500000000E-02 0.  1.
    8880023    1    1    2    0    0 -0.64516913103E+03  0.48653016346E+02  0.39517975629E+03  0.10042846059E+04  0.65864270000E+03 0.  1.
    8880022    1    1    2    0    0  0.64516913103E+03 -0.48653016346E+02  0.33664332946E+04  0.34314537886E+04  0.15294330000E+03 0.  0.
<mgrwt>
<rscale>  0 0.85049789E+03</rscale>
<asrwt>0</asrwt>
<pdfrwt beam="1">  1        2 0.63056553E+00 0.92326623E+03</pdfrwt>
<pdfrwt beam="2">  1       -2 0.51855793E-01 0.92326623E+03</pdfrwt>
<totfact> 0.10706226E+00</totfact>
</mgrwt>
</event>
<event>
 4    5  0.2761505E-007  0.1116867E+04  0.7818608E-02  0.9242505E-01
          2   -1    0    0  501    0  0.00000000000E+00  0.00000000000E+00  0.22274190148E+04  0.22274190148E+04  0.25500000000E-02 0. -1.
         -2   -1    0    0    0  501 -0.00000000000E+00 -0.00000000000E+00 -0.26628920721E+04  0.26628920721E+04  0.25500000000E-02 0.  1.
    8880023    1    1    2    0    0 -0.16705526966E+03  0.88638316388E+03 -0.24418771630E+04  0.26851735254E+04  0.65864270000E+03 0.  0.
    8880022    1    1    2    0    0  0.16705526966E+03 -0.88638316388E+03  0.20064041057E+04  0.22051375614E+04  0.15294330000E+03 0.  0.
<mgrwt>
<rscale>  0 0.10625276E+04</rscale>
<asrwt>0</asrwt>
<pdfrwt beam="1">  1        2 0.34267985E+00 0.11168674E+04</pdfrwt>
<pdfrwt beam="2">  1       -2 0.40967570E+00 0.11168674E+04</pdfrwt>
<totfact> 0.32038298E-02</totfact>
</mgrwt>
</event>
<event>
 4    5  0.1112901E-007  0.7394767E+03  0.7818608E-02  0.9861474E-01
         -2   -1    0    0    0  501 -0.00000000000E+00  0.00000000000E+00  0.14781197400E+03  0.14781197402E+03  0.25500000000E-02 0.  1.
          2   -1    0    0  501    0  0.00000000000E+00 -0.00000000000E+00 -0.27168477591E+04  0.27168477591E+04  0.25500000000E-02 0. -1.
    8880023    1    1    2    0    0  0.20935296703E+03 -0.26303393112E+03 -0.94917903318E+03  0.12032317138E+04  0.65864270000E+03 0.  1.
    8880022    1    1    2    0    0 -0.20935296703E+03  0.26303393112E+03 -0.16198567519E+04  0.16614280193E+04  0.15294330000E+03 0.  0.
<mgrwt>
<rscale>  0 0.62165295E+03</rscale>
<asrwt>0</asrwt>
<pdfrwt beam="1">  1        2 0.41797654E+00 0.73947665E+03</pdfrwt>
<pdfrwt beam="2">  1       -2 0.22740306E-01 0.73947665E+03</pdfrwt>
<totfact> 0.46245694E+01</totfact>
</mgrwt>
</event>
<event>
 4    5  0.1112901E-007  0.9254095E+03  0.7818608E-02  0.9486414E-01
          2   -1    0    0  501    0  0.00000000000E+00  0.00000000000E+00  0.10726500426E+04  0.10726500426E+04  0.25500000000E-02 0. -1.
         -2   -1    0    0    0  501 -0.00000000000E+00 -0.00000000000E+00 -0.14239370154E+04  0.14239370154E+04  0.25500000000E-02 0.  1.
    8880023    1    1    2    0    0 -0.55666002152E+03  0.33571137525E+03 -0.11366225530E+04  0.14657058168E+04  0.65864270000E+03 0.  0.
    8880022    1    1    2    0    0  0.55666002152E+03 -0.33571137525E+03  0.78533558015E+03  0.10308812412E+04  0.15294330000E+03 0.  0.
<mgrwt>
<rscale>  0 0.85292914E+03</rscale>
<asrwt>0</asrwt>
<pdfrwt beam="1">  1        2 0.16502308E+00 0.92540948E+03</pdfrwt>
<pdfrwt beam="2">  1       -2 0.21906723E+00 0.92540948E+03</pdfrwt>
<totfact> 0.22761799E+00</totfact>
</mgrwt>
</event>
<event>
 4    5  0.1112901E-007  0.8416777E+03  0.7818608E-02  0.9627025E-01
          2   -1    0    0  501    0  0.00000000000E+00  0.00000000000E+00  0.19685208618E+04  0.19685208618E+04  0.25500000000E-02 0. -1.
         -2   -1    0    0    0  501 -0.00000000000E+00 -0.00000000000E+00 -0.96457284224E+03  0.96457284224E+03  0.25500000000E-02 0.  1.
    8880023    1    1    2    0    0  0.50778369221E+03 -0.12948672159E+03 -0.73068215141E+03  0.11145930656E+04  0.65864270000E+03 0.  1.
    8880022    1    1    2    0    0 -0.50778369221E+03  0.12948672159E+03  0.17346301710E+04  0.18185006385E+04  0.15294330000E+03 0.  0.
<mgrwt>
<rscale>  0 0.75533026E+03</rscale>
<asrwt>0</asrwt>
<pdfrwt beam="1">  1        2 0.30284936E+00 0.84167767E+03</pdfrwt>
<pdfrwt beam="2">  1       -2 0.14839582E+00 0.84167767E+03</pdfrwt>
<totfact> 0.21891720E+00</totfact>
</mgrwt>
</event>
<event>
 4    5  0.1112901E-007  0.9064858E+03  0.7818608E-02  0.9515699E-01
          2   -1    0    0  501    0  0.00000000000E+00  0.00000000000E+00  0.19565078016E+04  0.19565078016E+04  0.25500000000E-02 0. -1.
         -2   -1    0    0    0  501 -0.00000000000E+00 -0.00000000000E+00 -0.36559531867E+03  0.36559531868E+03  0.25500000000E-02 0.  1.
    8880023    1    1    2    0    0 -0.12034267480E+02 -0.62270503380E+03  0.44706212569E+03  0.10107329683E+04  0.65864270000E+03 0. -1.
    8880022    1    1    2    0    0  0.12034267480E+02  0.62270503380E+03  0.11438503573E+04  0.13113701520E+04  0.15294330000E+03 0.  0.
<mgrwt>
<rscale>  0 0.83136234E+03</rscale>
<asrwt>0</asrwt>
<pdfrwt beam="1">  1        2 0.30100120E+00 0.90648585E+03</pdfrwt>
<pdfrwt beam="2">  1       -2 0.56245433E-01 0.90648585E+03</pdfrwt>
<totfact> 0.21236323E+01</totfact>
</mgrwt>
</event>
<event>
 4    5  0.1112901E-007  0.7390618E+03  0.7818608E-02  0.9862689E-01
         -2   -1    0    0    0  501 -0.00000000000E+00  0.00000000000E+00  0.56076220482E+03  0.56076220483E+03  0.25500000000E-02 0.  1.
          2   -1    0    0  501    0  0.00000000000E+00 -0.00000000000E+00 -0.60906284631E+03  0.60906284631E+03  0.25500000000E-02 0. -1.
    8880023    1    1    2    0    0 -0.14849823520E+03 -0.30058340340E+03  0.14583509811E+03  0.75331281043E+03  0.65864270000E+03 0.  0.
    8880022    1    1    2    0    0  0.14849823520E+03  0.30058340340E+03 -0.19413573960E+03  0.41651224071E+03  0.15294330000E+03 0.  0.
<mgrwt>
<rscale>  0 0.62104138E+03</rscale>
<asrwt>0</asrwt>
<pdfrwt beam="1">  1        2 0.93701977E-01 0.73906178E+03</pdfrwt>
<pdfrwt beam="2">  1       -2 0.86271108E-01 0.73906178E+03</pdfrwt>
<totfact> 0.57461106E+01</totfact>
</mgrwt>
</event>
<event>
 4    5  0.1112901E-007  0.1117713E+04  0.7818608E-02  0.9241586E-01
          2   -1    0    0  501    0  0.00000000000E+00  0.00000000000E+00  0.12991292956E+04  0.12991292956E+04  0.25500000000E-02 0. -1.
         -2   -1    0    0    0  501 -0.00000000000E+00 -0.00000000000E+00 -0.12896527033E+04  0.12896527033E+04  0.25500000000E-02 0.  1.
    8880023    1    1    2    0    0  0.90302237141E+03  0.48634288180E+01 -0.79349752520E+03  0.13707376062E+04  0.65864270000E+03 0.  0.
    8880022    1    1    2    0    0 -0.90302237141E+03 -0.48634288180E+01  0.80297411747E+03  0.12180443927E+04  0.15294330000E+03 0.  0.
<mgrwt>
<rscale>  0 0.10634310E+04</rscale>
<asrwt>0</asrwt>
<pdfrwt beam="1">  1        2 0.19986605E+00 0.11177134E+04</pdfrwt>
<pdfrwt beam="2">  1       -2 0.19840811E+00 0.11177134E+04</pdfrwt>
<totfact> 0.22077648E+00</totfact>
</mgrwt>
</event>
<event>
 4    5  0.1112901E-007  0.8807216E+03  0.7818608E-02  0.9557716E-01
          2   -1    0    0  501    0  0.00000000000E+00  0.00000000000E+00  0.35938290505E+04  0.35938290505E+04  0.25500000000E-02 0. -1.
         -2   -1    0    0    0  501 -0.00000000000E+00 -0.00000000000E+00 -0.23260827238E+03  0.23260827239E+03  0.25500000000E-02 0.  1.
    8880023    1    1    2    0    0 -0.55233349614E+03 -0.19180211651E+03  0.78341025402E+03  0.11787290508E+04  0.65864270000E+03 0.  1.
    8880022    1    1    2    0    0  0.55233349614E+03  0.19180211651E+03  0.25778105241E+04  0.26477082720E+04  0.15294330000E+03 0.  0.
<mgrwt>
<rscale>  0 0.80159143E+03</rscale>
<asrwt>0</asrwt>
<pdfrwt beam="1">  1        2 0.55289677E+00 0.88072161E+03</pdfrwt>
<pdfrwt beam="2">  1       -2 0.35785888E-01 0.88072161E+03</pdfrwt>
<totfact> 0.54279528E+00</totfact>
</mgrwt>
</event>
<event>
 4    5  0.1112901E-007  0.7387984E+03  0.7818608E-02  0.9863461E-01
         -2   -1    0    0    0  501 -0.00000000000E+00  0.00000000000E+00  0.35757801051E+03  0.35757801052E+03  0.25500000000E-02 0.  1.
          2   -1    0    0  501    0  0.00000000000E+00 -0.00000000000E+00 -0.17763355549E+04  0.17763355549E+04  0.25500000000E-02 0. -1.
    8880023    1    1    2    0    0 -0.25740971057E+03  0.21389963089E+03 -0.77217646953E+02  0.74282271267E+03  0.65864270000E+03 0.  1.
    8880022    1    1    2    0    0  0.25740971057E+03 -0.21389963089E+03 -0.13415398974E+04  0.13910908527E+04  0.15294330000E+03 0.  0.
<mgrwt>
<rscale>  0 0.62065258E+03</rscale>
<asrwt>0</asrwt>
<pdfrwt beam="1">  1        2 0.27328239E+00 0.73879836E+03</pdfrwt>
<pdfrwt beam="2">  1       -2 0.55012003E-01 0.73879836E+03</pdfrwt>
<totfact> 0.28461779E+01</totfact>
</mgrwt>
</event>
<event>
 4    5  0.1112901E-007  0.9134071E+03  0.7818608E-02  0.9504843E-01
         -2   -1    0    0    0  501 -0.00000000000E+00  0.00000000000E+00  0.94135066486E+03  0.94135066486E+03  0.25500000000E-02 0.  1.
          2   -1    0    0  501    0  0.00000000000E+00 -0.00000000000E+00 -0.17017684018E+04  0.17017684018E+04  0.25500000000E-02 0. -1.
    8880023    1    1    2    0    0  0.41450515885E+03 -0.47821310086E+03  0.62878874630E+03  0.11089128867E+04  0.65864270000E+03 0.  0.
    8880022    1    1    2    0    0 -0.41450515885E+03  0.47821310086E+03 -0.13892064833E+04  0.15342061800E+04  0.15294330000E+03 0.  0.
<mgrwt>
<rscale>  0 0.83927722E+03</rscale>
<asrwt>0</asrwt>
<pdfrwt beam="1">  1        2 0.26181052E+00 0.91340708E+03</pdfrwt>
<pdfrwt beam="2">  1       -2 0.14482318E+00 0.91340708E+03</pdfrwt>
<totfact> 0.32345971E+00</totfact>
</mgrwt>
</event>
<event>
 4    5  0.1112901E-007  0.8902998E+03  0.7818608E-02  0.9541786E-01
         -2   -1    0    0    0  501 -0.00000000000E+00  0.00000000000E+00  0.66069875876E+03  0.66069875877E+03  0.25500000000E-02 0.  1.
          2   -1    0    0  501    0  0.00000000000E+00 -0.00000000000E+00 -0.21800973479E+04  0.21800973479E+04  0.25500000000E-02 0. -1.
    8880023    1    1    2    0    0 -0.75547658875E+02 -0.59423568561E+03  0.28389598184E+03  0.93446810196E+03  0.65864270000E+03 0.  1.
    8880022    1    1    2    0    0  0.75547658875E+02  0.59423568561E+03 -0.18032945710E+04  0.19063280047E+04  0.15294330000E+03 0.  0.
<mgrwt>
<rscale>  0 0.81271952E+03</rscale>
<asrwt>0</asrwt>
<pdfrwt beam="1">  1        2 0.33539959E+00 0.89029978E+03</pdfrwt>
<pdfrwt beam="2">  1       -2 0.10164596E+00 0.89029978E+03</pdfrwt>
<totfact> 0.42855922E+00</totfact>
</mgrwt>
</event>
<event>
 4    5  0.1112901E-007  0.8538980E+03  0.7818608E-02  0.9604511E-01
         -2   -1    0    0    0  501 -0.00000000000E+00  0.00000000000E+00  0.57193791510E+03  0.57193791510E+03  0.25500000000E-02 0.  1.
          2   -1    0    0  501    0  0.00000000000E+00 -0.00000000000E+00 -0.13314927093E+04  0.13314927093E+04  0.25500000000E-02 0. -1.
    8880023    1    1    2    0    0 -0.48347317644E+03  0.24816375115E+03  0.11590036301E+03  0.86172771809E+03  0.65864270000E+03 0.  0.
    8880022    1    1    2    0    0  0.48347317644E+03 -0.24816375115E+03 -0.87545515718E+03  0.10417029063E+04  0.15294330000E+03 0.  0.
<mgrwt>
<rscale>  0 0.76998312E+03</rscale>
<asrwt>0</asrwt>
<pdfrwt beam="1">  1        2 0.20484503E+00 0.85389798E+03</pdfrwt>
<pdfrwt beam="2">  1       -2 0.87990449E-01 0.85389798E+03</pdfrwt>
<totfact> 0.17810715E+01</totfact>
</mgrwt>
</event>
<event>
 4    5  0.1112901E-007  0.8818702E+03  0.7818608E-02  0.9555786E-01
         -2   -1    0    0    0  501 -0.00000000000E+00  0.00000000000E+00  0.77591088603E+03  0.77591088603E+03  0.25500000000E-02 0.  1.
          2   -1    0    0  501    0  0.00000000000E+00 -0.00000000000E+00 -0.14372542546E+04  0.14372542546E+04  0.25500000000E-02 0. -1.
    8880023    1    1    2    0    0 -0.20060163769E+03 -0.55103891213E+03  0.41753936454E+03  0.97572241285E+03  0.65864270000E+03 0.  0.
    8880022    1    1    2    0    0  0.20060163769E+03  0.55103891213E+03 -0.10788827331E+04  0.12374427278E+04  0.15294330000E+03 0. -1.
<mgrwt>
<rscale>  0 0.80292996E+03</rscale>
<asrwt>0</asrwt>
<pdfrwt beam="1">  1        2 0.22111604E+00 0.88187023E+03</pdfrwt>
<pdfrwt beam="2">  1       -2 0.11937091E+00 0.88187023E+03</pdfrwt>
<totfact> 0.74621561E+00</totfact>
</mgrwt>
</event>
<event>
 4    5  0.1112901E-007  0.8799408E+03  0.7818608E-02  0.9559032E-01
         -2   -1    0    0    0  501 -0.00000000000E+00  0.00000000000E+00  0.83045190027E+03  0.83045190027E+03  0.25500000000E-02 0.  1.
          2   -1    0    0  501    0  0.00000000000E+00 -0.00000000000E+00 -0.20672483505E+04  0.20672483505E+04  0.25500000000E-02 0. -1.
    8880023    1    1    2    0    0  0.28571497395E+03  0.50877548921E+03  0.53241782979E+03  0.10284767846E+04  0.65864270000E+03 0.  1.
    8880022    1    1    2    0    0 -0.28571497395E+03 -0.50877548921E+03 -0.17692142800E+04  0.18692234661E+04  0.15294330000E+03 0.  0.
<mgrwt>
<rscale>  0 0.80068084E+03</rscale>
<asrwt>0</asrwt>
<pdfrwt beam="1">  1        2 0.31803821E+00 0.87994077E+03</pdfrwt>
<pdfrwt beam="2">  1       -2 0.12776183E+00 0.87994077E+03</pdfrwt>
<totfact> 0.28272703E+00</totfact>
</mgrwt>
</event>
<event>
 4    5  0.1112901E-007  0.9572979E+03  0.7818608E-02  0.9439691E-01
          2   -1    0    0  501    0  0.00000000000E+00  0.00000000000E+00  0.18500489921E+04  0.18500489921E+04  0.25500000000E-02 0. -1.
         -2   -1    0    0    0  501 -0.00000000000E+00 -0.00000000000E+00 -0.47664446716E+03  0.47664446717E+03  0.25500000000E-02 0.  1.
    8880023    1    1    2    0    0  0.55918785836E+03  0.41221103268E+03  0.23730109481E+03  0.98627126708E+03  0.65864270000E+03 0.  0.
    8880022    1    1    2    0    0 -0.55918785836E+03 -0.41221103268E+03  0.11361034301E+04  0.13404221922E+04  0.15294330000E+03 0.  0.
<mgrwt>
<rscale>  0 0.88880032E+03</rscale>
<asrwt>0</asrwt>
<pdfrwt beam="1">  1        2 0.28462292E+00 0.95729787E+03</pdfrwt>
<pdfrwt beam="2">  1       -2 0.73329918E-01 0.95729787E+03</pdfrwt>
<totfact> 0.13659187E+01</totfact>
</mgrwt>
</event>
<event>
 4    5  0.1112901E-007  0.8057155E+03  0.7818608E-02  0.9698572E-01
          2   -1    0    0  501    0  0.00000000000E+00  0.00000000000E+00  0.61452000861E+03  0.61452000862E+03  0.25500000000E-02 0. -1.
         -2   -1    0    0    0  501 -0.00000000000E+00 -0.00000000000E+00 -0.79292092268E+03  0.79292092269E+03  0.25500000000E-02 0.  1.
    8880023    1    1    2    0    0  0.23779656959E+03 -0.39852228665E+03  0.14884929827E+03  0.81934946227E+03  0.65864270000E+03 0. -1.
    8880022    1    1    2    0    0 -0.23779656959E+03  0.39852228665E+03 -0.32725021234E+03  0.58809146904E+03  0.15294330000E+03 0.  0.
<mgrwt>
<rscale>  0 0.71101902E+03</rscale>
<asrwt>0</asrwt>
<pdfrwt beam="1">  1        2 0.94541541E-01 0.80571548E+03</pdfrwt>
<pdfrwt beam="2">  1       -2 0.12198783E+00 0.80571548E+03</pdfrwt>
<totfact> 0.24761844E+01</totfact>
</mgrwt>
</event>
<event>
 4    5  0.1112901E-007  0.7943594E+03  0.7818608E-02  0.9723128E-01
          2   -1    0    0  501    0  0.00000000000E+00  0.00000000000E+00  0.20988248409E+04  0.20988248409E+04  0.25500000000E-02 0. -1.
         -2   -1    0    0    0  501 -0.00000000000E+00 -0.00000000000E+00 -0.69010609671E+03  0.69010609672E+03  0.25500000000E-02 0.  1.
    8880023    1    1    2    0    0  0.44376466004E+03 -0.16418881058E+02 -0.42160421574E+03  0.89930916494E+03  0.65864270000E+03 0.  1.
    8880022    1    1    2    0    0 -0.44376466004E+03  0.16418881058E+02  0.18303229600E+04  0.18896217727E+04  0.15294330000E+03 0.  0.
<mgrwt>
<rscale>  0 0.69656330E+03</rscale>
<asrwt>0</asrwt>
<pdfrwt beam="1">  1        2 0.32289613E+00 0.79435940E+03</pdfrwt>
<pdfrwt beam="2">  1       -2 0.10617017E+00 0.79435940E+03</pdfrwt>
<totfact> 0.43431233E+00</totfact>
</mgrwt>
</event>
<event>
 4    5  0.1112901E-007  0.1534061E+04  0.7818608E-02  0.8885951E-01
          2   -1    0    0  501    0  0.00000000000E+00  0.00000000000E+00  0.10783087185E+04  0.10783087185E+04  0.25500000000E-02 0. -1.
         -2   -1    0    0    0  501 -0.00000000000E+00 -0.00000000000E+00 -0.32217641033E+04  0.32217641033E+04  0.25500000000E-02 0.  1.
    8880023    1    1    2    0    0 -0.11006142727E+04  0.84153537034E+03  0.22640628877E+03  0.15506784227E+04  0.65864270000E+03 0.  0.
    8880022    1    1    2    0    0  0.11006142727E+04 -0.84153537034E+03 -0.23698616735E+04  0.27493943990E+04  0.15294330000E+03 0.  0.
<mgrwt>
<rscale>  0 0.14977490E+04</rscale>
<asrwt>0</asrwt>
<pdfrwt beam="1">  1        2 0.16589365E+00 0.15340612E+04</pdfrwt>
<pdfrwt beam="2">  1       -2 0.49565601E+00 0.15340612E+04</pdfrwt>
<totfact> 0.36939975E-02</totfact>
</mgrwt>
</event>
<event>
 4    5  0.1112901E-007  0.1945866E+04  0.7818608E-02  0.8645870E-01
         -2   -1    0    0    0  501 -0.00000000000E+00  0.00000000000E+00  0.14459246803E+04  0.14459246803E+04  0.25500000000E-02 0.  1.
          2   -1    0    0  501    0  0.00000000000E+00 -0.00000000000E+00 -0.27342137546E+04  0.27342137546E+04  0.25500000000E-02 0. -1.
    8880023    1    1    2    0    0  0.18816033257E+03 -0.18213131812E+04 -0.17205375107E+02  0.19459425084E+04  0.65864270000E+03 0.  0.
    8880022    1    1    2    0    0 -0.18816033257E+03  0.18213131812E+04 -0.12710836992E+04  0.22341959265E+04  0.15294330000E+03 0.  0.
<mgrwt>
<rscale>  0 0.19181595E+04</rscale>
<asrwt>0</asrwt>
<pdfrwt beam="1">  1        2 0.42064827E+00 0.19458664E+04</pdfrwt>
<pdfrwt beam="2">  1       -2 0.22244995E+00 0.19458664E+04</pdfrwt>
<totfact> 0.21651451E-01</totfact>
</mgrwt>
</event>
<event>
 4    5  0.1112901E-007  0.1091529E+04  0.7818608E-02  0.9270546E-01
         -2   -1    0    0    0  501 -0.00000000000E+00  0.00000000000E+00  0.17408009432E+04  0.17408009432E+04  0.25500000000E-02 0.  1.
          2   -1    0    0  501    0  0.00000000000E+00 -0.00000000000E+00 -0.62770082284E+03  0.62770082285E+03  0.25500000000E-02 0. -1.
    8880023    1    1    2    0    0 -0.68627928361E+03  0.53539395880E+03  0.22277443175E+03  0.11140307895E+04  0.65864270000E+03 0.  0.
    8880022    1    1    2    0    0  0.68627928361E+03 -0.53539395880E+03  0.89032568862E+03  0.12544709766E+04  0.15294330000E+03 0.  0.
<mgrwt>
<rscale>  0 0.10354023E+04</rscale>
<asrwt>0</asrwt>
<pdfrwt beam="1">  1        2 0.96569357E-01 0.10915293E+04</pdfrwt>
<pdfrwt beam="2">  1       -2 0.26781553E+00 0.10915293E+04</pdfrwt>
<totfact> 0.23254868E+00</totfact>
</mgrwt>
</event>
<event>
 4    5  0.1112901E-007  0.1026676E+04  0.7818608E-02  0.9347461E-01
          2   -1    0    0  501    0  0.00000000000E+00  0.00000000000E+00  0.21142170974E+04  0.21142170974E+04  0.25500000000E-02 0. -1.
         -2   -1    0    0    0  501 -0.00000000000E+00 -0.00000000000E+00 -0.46341377371E+03  0.46341377372E+03  0.25500000000E-02 0.  1.
    8880023    1    1    2    0    0 -0.74712047309E+03 -0.24912540340E+03  0.42179366049E+03  0.11099425959E+04  0.65864270000E+03 0. -1.
    8880022    1    1    2    0    0  0.74712047309E+03  0.24912540340E+03  0.12290096632E+04  0.14676882752E+04  0.15294330000E+03 0.  0.
<mgrwt>
<rscale>  0 0.96528518E+03</rscale>
<asrwt>0</asrwt>
<pdfrwt beam="1">  1        2 0.32526417E+00 0.10266755E+04</pdfrwt>
<pdfrwt beam="2">  1       -2 0.71294427E-01 0.10266755E+04</pdfrwt>
<totfact> 0.10317258E+01</totfact>
</mgrwt>
</event>
<event>
 4    5  0.1112901E-007  0.1011508E+04  0.7818608E-02  0.9366654E-01
         -2   -1    0    0    0  501 -0.00000000000E+00  0.00000000000E+00  0.30488717044E+03  0.30488717045E+03  0.25500000000E-02 0.  1.
          2   -1    0    0  501    0  0.00000000000E+00 -0.00000000000E+00 -0.32705750058E+04  0.32705750058E+04  0.25500000000E-02 0. -1.
    8880023    1    1    2    0    0 -0.43055062011E+03 -0.63558208416E+03 -0.85552294854E+03  0.13247898490E+04  0.65864270000E+03 0.  0.
    8880022    1    1    2    0    0  0.43055062011E+03  0.63558208416E+03 -0.21101648868E+04  0.22506723273E+04  0.15294330000E+03 0.  0.
<mgrwt>
<rscale>  0 0.94871479E+03</rscale>
<asrwt>0</asrwt>
<pdfrwt beam="1">  1        2 0.50316536E+00 0.10115081E+04</pdfrwt>
<pdfrwt beam="2">  1       -2 0.46905721E-01 0.10115081E+04</pdfrwt>
<totfact> 0.51639565E+00</totfact>
</mgrwt>
</event>
<event>
 4    5  0.1112901E-007  0.8092177E+03  0.7818608E-02  0.9691209E-01
          2   -1    0    0  501    0  0.00000000000E+00  0.00000000000E+00  0.10158124308E+04  0.10158124308E+04  0.25500000000E-02 0. -1.
         -2   -1    0    0    0  501 -0.00000000000E+00 -0.00000000000E+00 -0.19275336641E+04  0.19275336641E+04  0.25500000000E-02 0.  1.
    8880023    1    1    2    0    0  0.42520425872E+03 -0.20056030828E+03 -0.17737446359E+04  0.19496162028E+04  0.65864270000E+03 0.  0.
    8880022    1    1    2    0    0 -0.42520425872E+03  0.20056030828E+03  0.86202340248E+03  0.99372989204E+03  0.15294330000E+03 0.  0.
<mgrwt>
<rscale>  0 0.71542640E+03</rscale>
<asrwt>0</asrwt>
<pdfrwt beam="1">  1        2 0.15627884E+00 0.80921771E+03</pdfrwt>
<pdfrwt beam="2">  1       -2 0.29654364E+00 0.80921771E+03</pdfrwt>
<totfact> 0.84931567E-01</totfact>
</mgrwt>
</event>
<event>
 4    5  0.1112901E-007  0.7417191E+03  0.7818608E-02  0.9854967E-01
          2   -1    0    0  501    0  0.00000000000E+00  0.00000000000E+00  0.41786607429E+04  0.41786607429E+04  0.25500000000E-02 0. -1.
         -2   -1    0    0    0  501 -0.00000000000E+00 -0.00000000000E+00 -0.11211692858E+03  0.11211692861E+03  0.25500000000E-02 0.  1.
    8880023    1    1    2    0    0 -0.14356598294E+03 -0.30939596581E+03  0.12807974913E+04  0.14800640105E+04  0.65864270000E+03 0.  0.
    8880022    1    1    2    0    0  0.14356598294E+03  0.30939596581E+03  0.27857463230E+04  0.28107136611E+04  0.15294330000E+03 0.  0.
<mgrwt>
<rscale>  0 0.62494286E+03</rscale>
<asrwt>0</asrwt>
<pdfrwt beam="1">  1        2 0.64287080E+00 0.74171913E+03</pdfrwt>
<pdfrwt beam="2">  1       -2 0.17248761E-01 0.74171913E+03</pdfrwt>
<totfact> 0.74582082E+00</totfact>
</mgrwt>
</event>
<event>
 4    5  0.1112901E-007  0.7359375E+03  0.7818608E-02  0.9871943E-01
         -2   -1    0    0    0  501 -0.00000000000E+00  0.00000000000E+00  0.63534005411E+03  0.63534005412E+03  0.25500000000E-02 0.  1.
          2   -1    0    0  501    0  0.00000000000E+00 -0.00000000000E+00 -0.12885101750E+04  0.12885101750E+04  0.25500000000E-02 0. -1.
    8880023    1    1    2    0    0 -0.31824885623E+03  0.80693214879E+02  0.38055528633E+03  0.82850845598E+03  0.65864270000E+03 0.  0.
    8880022    1    1    2    0    0  0.31824885623E+03 -0.80693214879E+02 -0.10337254072E+04  0.10953417731E+04  0.15294330000E+03 0. -1.
<mgrwt>
<rscale>  0 0.61640529E+03</rscale>
<asrwt>0</asrwt>
<pdfrwt beam="1">  1        2 0.19823233E+00 0.73593745E+03</pdfrwt>
<pdfrwt beam="2">  1       -2 0.97744624E-01 0.73593745E+03</pdfrwt>
<totfact> 0.14964225E+01</totfact>
</mgrwt>
</event>
<event>
 4    5  0.1112901E-007  0.8935415E+03  0.7818608E-02  0.9536480E-01
         -2   -1    0    0    0  501 -0.00000000000E+00  0.00000000000E+00  0.80282554791E+03  0.80282554792E+03  0.25500000000E-02 0.  1.
          2   -1    0    0  501    0  0.00000000000E+00 -0.00000000000E+00 -0.22555851139E+04  0.22555851139E+04  0.25500000000E-02 0. -1.
    8880023    1    1    2    0    0  0.19881248931E+03 -0.57015770140E+03  0.48941358413E+03  0.10187944213E+04  0.65864270000E+03 0.  0.
    8880022    1    1    2    0    0 -0.19881248931E+03  0.57015770140E+03 -0.19421731501E+04  0.20396162405E+04  0.15294330000E+03 0.  0.
<mgrwt>
<rscale>  0 0.81646903E+03</rscale>
<asrwt>0</asrwt>
<pdfrwt beam="1">  1        2 0.34701309E+00 0.89354150E+03</pdfrwt>
<pdfrwt beam="2">  1       -2 0.12351162E+00 0.89354150E+03</pdfrwt>
<totfact> 0.24172238E+00</totfact>
</mgrwt>
</event>
<event>
 4    5  0.1112901E-007  0.1026131E+04  0.7818608E-02  0.9348141E-01
         -2   -1    0    0    0  501 -0.00000000000E+00  0.00000000000E+00  0.10678794781E+04  0.10678794781E+04  0.25500000000E-02 0.  1.
          2   -1    0    0  501    0  0.00000000000E+00 -0.00000000000E+00 -0.24282490046E+04  0.24282490046E+04  0.25500000000E-02 0. -1.
    8880023    1    1    2    0    0 -0.63955530434E+03 -0.45837102141E+03  0.72870265460E+03  0.12585518446E+04  0.65864270000E+03 0.  1.
    8880022    1    1    2    0    0  0.63955530434E+03  0.45837102141E+03 -0.20890721811E+04  0.22375766381E+04  0.15294330000E+03 0.  0.
<mgrwt>
<rscale>  0 0.96469172E+03</rscale>
<asrwt>0</asrwt>
<pdfrwt beam="1">  1        2 0.37357677E+00 0.10261312E+04</pdfrwt>
<pdfrwt beam="2">  1       -2 0.16428915E+00 0.10261312E+04</pdfrwt>
<totfact> 0.89743622E-01</totfact>
</mgrwt>
</event>
<event>
 4    5  0.1112901E-007  0.1456486E+04  0.7818608E-02  0.8940990E-01
          2   -1    0    0  501    0  0.00000000000E+00  0.00000000000E+00  0.34068226268E+04  0.34068226268E+04  0.25500000000E-02 0. -1.
         -2   -1    0    0    0  501 -0.00000000000E+00 -0.00000000000E+00 -0.68377126854E+03  0.68377126855E+03  0.25500000000E-02 0.  1.
    8880023    1    1    2    0    0  0.45616809601E+03  0.12163270535E+04  0.22877473170E+04  0.27120359190E+04  0.65864270000E+03 0.  0.
    8880022    1    1    2    0    0 -0.45616809601E+03 -0.12163270535E+04  0.43530404129E+03  0.13785579764E+04  0.15294330000E+03 0.  0.
<mgrwt>
<rscale>  0 0.14178615E+04</rscale>
<asrwt>0</asrwt>
<pdfrwt beam="1">  1        2 0.52412656E+00 0.14564859E+04</pdfrwt>
<pdfrwt beam="2">  1       -2 0.10519558E+00 0.14564859E+04</pdfrwt>
<totfact> 0.66584297E-01</totfact>
</mgrwt>
</event>
<event>
 4    5  0.1112901E-007  0.7895167E+03  0.7818608E-02  0.9733939E-01
         -2   -1    0    0    0  501 -0.00000000000E+00  0.00000000000E+00  0.67070005526E+03  0.67070005526E+03  0.25500000000E-02 0.  1.
          2   -1    0    0  501    0  0.00000000000E+00 -0.00000000000E+00 -0.13139661787E+04  0.13139661787E+04  0.25500000000E-02 0. -1.
    8880023    1    1    2    0    0  0.41855706957E+03 -0.11973475229E+03  0.36952454443E+03  0.87171384444E+03  0.65864270000E+03 0.  1.
    8880022    1    1    2    0    0 -0.41855706957E+03  0.11973475229E+03 -0.10127906679E+04  0.11129523895E+04  0.15294330000E+03 0.  0.
<mgrwt>
<rscale>  0 0.69031540E+03</rscale>
<asrwt>0</asrwt>
<pdfrwt beam="1">  1        2 0.20214864E+00 0.78951671E+03</pdfrwt>
<pdfrwt beam="2">  1       -2 0.10318462E+00 0.78951671E+03</pdfrwt>
<totfact> 0.12639394E+01</totfact>
</mgrwt>
</event>
<event>
 4    5  0.1112901E-007  0.6709367E+03  0.7818608E-02  0.1015000E+00
          2   -1    0    0  501    0  0.00000000000E+00  0.00000000000E+00  0.23093849291E+04  0.23093849291E+04  0.25500000000E-02 0. -1.
         -2   -1    0    0    0  501 -0.00000000000E+00 -0.00000000000E+00 -0.10078139029E+03  0.10078139032E+03  0.25500000000E-02 0.  1.
    8880023    1    1    2    0    0  0.87073661531E+02  0.93616681252E+02  0.20451044954E+04  0.21523495322E+04  0.65864270000E+03 0. -1.
    8880022    1    1    2    0    0 -0.87073661531E+02 -0.93616681252E+02  0.16349904340E+03  0.25781678717E+03  0.15294330000E+03 0.  0.
<mgrwt>
<rscale>  0 0.49534904E+03</rscale>
<asrwt>0</asrwt>
<pdfrwt beam="1">  1        2 0.35529001E+00 0.67093674E+03</pdfrwt>
<pdfrwt beam="2">  1       -2 0.15504828E-01 0.67093674E+03</pdfrwt>
<totfact> 0.15443409E+02</totfact>
</mgrwt>
</event>
<event>
 4    5  0.1112901E-007  0.9616456E+03  0.7818608E-02  0.9433553E-01
         -2   -1    0    0    0  501 -0.00000000000E+00  0.00000000000E+00  0.66908184531E+03  0.66908184532E+03  0.25500000000E-02 0.  1.
          2   -1    0    0  501    0  0.00000000000E+00 -0.00000000000E+00 -0.27107782993E+04  0.27107782993E+04  0.25500000000E-02 0. -1.
    8880023    1    1    2    0    0  0.35217831862E+03 -0.60574133316E+03  0.23746014672E+03  0.99052998862E+03  0.65864270000E+03 0.  0.
    8880022    1    1    2    0    0 -0.35217831862E+03  0.60574133316E+03 -0.22791566007E+04  0.23893301560E+04  0.15294330000E+03 0.  0.
<mgrwt>
<rscale>  0 0.89365109E+03</rscale>
<asrwt>0</asrwt>
<pdfrwt beam="1">  1        2 0.41704281E+00 0.96164564E+03</pdfrwt>
<pdfrwt beam="2">  1       -2 0.10293567E+00 0.96164564E+03</pdfrwt>
<totfact> 0.20546385E+00</totfact>
</mgrwt>
</event>
<event>
 4    5  0.1112901E-007  0.1021661E+04  0.7818608E-02  0.9353751E-01
         -2   -1    0    0    0  501 -0.00000000000E+00  0.00000000000E+00  0.11108463136E+04  0.11108463136E+04  0.25500000000E-02 0.  1.
          2   -1    0    0  501    0  0.00000000000E+00 -0.00000000000E+00 -0.15210879188E+04  0.15210879188E+04  0.25500000000E-02 0. -1.
    8880023    1    1    2    0    0 -0.43707861047E+03 -0.64725823933E+03  0.71980922215E+03  0.12497665633E+04  0.65864270000E+03 0.  1.
    8880022    1    1    2    0    0  0.43707861047E+03  0.64725823933E+03 -0.11300508274E+04  0.13821676691E+04  0.15294330000E+03 0.  0.
<mgrwt>
<rscale>  0 0.95981495E+03</rscale>
<asrwt>0</asrwt>
<pdfrwt beam="1">  1        2 0.23401353E+00 0.10216610E+04</pdfrwt>
<pdfrwt beam="2">  1       -2 0.17089943E+00 0.10216610E+04</pdfrwt>
<totfact> 0.25681715E+00</totfact>
</mgrwt>
</event>
<event>
 4    5  0.1112901E-007  0.7333255E+03  0.7818608E-02  0.9879834E-01
          2   -1    0    0  501    0  0.00000000000E+00  0.00000000000E+00  0.30277575272E+03  0.30277575273E+03  0.25500000000E-02 0. -1.
         -2   -1    0    0    0  501 -0.00000000000E+00 -0.00000000000E+00 -0.10889074996E+04  0.10889074996E+04  0.25500000000E-02 0.  1.
    8880023    1    1    2    0    0 -0.32019357396E+03  0.37843971616E+02 -0.72201251295E+03  0.10291104732E+04  0.65864270000E+03 0.  1.
    8880022    1    1    2    0    0  0.32019357396E+03 -0.37843971616E+02 -0.64119233977E+02  0.36257277914E+03  0.15294330000E+03 0.  0.
<mgrwt>
<rscale>  0 0.61248647E+03</rscale>
<asrwt>0</asrwt>
<pdfrwt beam="1">  1        2 0.46580885E-01 0.73332551E+03</pdfrwt>
<pdfrwt beam="2">  1       -2 0.16752423E+00 0.73332551E+03</pdfrwt>
<totfact> 0.24477589E+01</totfact>
</mgrwt>
</event>
<event>
 4    5  0.1112901E-007  0.1000468E+04  0.7818608E-02  0.9380945E-01
         -2   -1    0    0    0  501 -0.00000000000E+00  0.00000000000E+00  0.14953630570E+04  0.14953630570E+04  0.25500000000E-02 0.  1.
          2   -1    0    0  501    0  0.00000000000E+00 -0.00000000000E+00 -0.79656839156E+03  0.79656839156E+03  0.25500000000E-02 0. -1.
    8880023    1    1    2    0    0 -0.56747182459E+03 -0.49507842590E+03  0.10471028486E+04  0.14482270199E+04  0.65864270000E+03 0.  1.
    8880022    1    1    2    0    0  0.56747182459E+03  0.49507842590E+03 -0.34830818312E+03  0.84370442866E+03  0.15294330000E+03 0.  0.
<mgrwt>
<rscale>  0 0.93660559E+03</rscale>
<asrwt>0</asrwt>
<pdfrwt beam="1">  1        2 0.12254898E+00 0.10004685E+04</pdfrwt>
<pdfrwt beam="2">  1       -2 0.23005585E+00 0.10004685E+04</pdfrwt>
<totfact> 0.29455403E+00</totfact>
</mgrwt>
</event>
<event>
 4    5  0.1112901E-007  0.6987245E+03  0.7818608E-02  0.1000253E+00
          2   -1    0    0  501    0  0.00000000000E+00  0.00000000000E+00  0.83056335677E+03  0.83056335678E+03  0.25500000000E-02 0. -1.
         -2   -1    0    0    0  501 -0.00000000000E+00 -0.00000000000E+00 -0.83387860000E+03  0.83387860001E+03  0.25500000000E-02 0.  1.
    8880023    1    1    2    0    0  0.22714004312E+03 -0.53039286526E+02 -0.65365814473E+03  0.95680977291E+03  0.65864270000E+03 0.  0.
    8880022    1    1    2    0    0 -0.22714004312E+03  0.53039286526E+02  0.65034290150E+03  0.70763218387E+03  0.15294330000E+03 0. -1.
<mgrwt>
<rscale>  0 0.55539267E+03</rscale>
<asrwt>0</asrwt>
<pdfrwt beam="1">  1        2 0.12777898E+00 0.69872453E+03</pdfrwt>
<pdfrwt beam="2">  1       -2 0.12828902E+00 0.69872453E+03</pdfrwt>
<totfact> 0.15018398E+01</totfact>
</mgrwt>
</event>
<event>
 4    5  0.1112901E-007  0.1475186E+04  0.7818608E-02  0.8927359E-01
          2   -1    0    0  501    0  0.00000000000E+00  0.00000000000E+00  0.35132962318E+04  0.35132962318E+04  0.25500000000E-02 0. -1.
         -2   -1    0    0    0  501 -0.00000000000E+00 -0.00000000000E+00 -0.62248222950E+03  0.62248222951E+03  0.25500000000E-02 0.  1.
    8880023    1    1    2    0    0 -0.12634982431E+04 -0.38201569625E+03  0.85613879018E+03  0.17056223605E+04  0.65864270000E+03 0.  0.
    8880022    1    1    2    0    0  0.12634982431E+04  0.38201569625E+03  0.20346752121E+04  0.24301561008E+04  0.15294330000E+03 0.  0.
<mgrwt>
<rscale>  0 0.14371478E+04</rscale>
<asrwt>0</asrwt>
<pdfrwt beam="1">  1        2 0.54050711E+00 0.14751861E+04</pdfrwt>
<pdfrwt beam="2">  1       -2 0.95766496E-01 0.14751861E+04</pdfrwt>
<totfact> 0.70293165E-01</totfact>
</mgrwt>
</event>
<event>
 4    5  0.1112901E-007  0.7110703E+03  0.7818608E-02  0.9954048E-01
         -2   -1    0    0    0  501 -0.00000000000E+00  0.00000000000E+00  0.40815999977E+03  0.40815999978E+03  0.25500000000E-02 0.  1.
          2   -1    0    0  501    0  0.00000000000E+00 -0.00000000000E+00 -0.86405250537E+03  0.86405250538E+03  0.25500000000E-02 0. -1.
    8880023    1    1    2    0    0  0.83397603380E+02  0.25466757725E+03  0.12670762196E+02  0.71118316180E+03  0.65864270000E+03 0.  1.
    8880022    1    1    2    0    0 -0.83397603380E+02 -0.25466757725E+03 -0.46856326780E+03  0.56102934335E+03  0.15294330000E+03 0.  0.
<mgrwt>
<rscale>  0 0.57711900E+03</rscale>
<asrwt>0</asrwt>
<pdfrwt beam="1">  1        2 0.13293115E+00 0.71107028E+03</pdfrwt>
<pdfrwt beam="2">  1       -2 0.62793846E-01 0.71107028E+03</pdfrwt>
<totfact> 0.74159731E+01</totfact>
</mgrwt>
</event>
<event>
 4    5  0.1112901E-007  0.1213476E+04  0.7818608E-02  0.9144133E-01
          2   -1    0    0  501    0  0.00000000000E+00  0.00000000000E+00  0.12580390754E+04  0.12580390754E+04  0.25500000000E-02 0. -1.
         -2   -1    0    0    0  501 -0.00000000000E+00 -0.00000000000E+00 -0.29843436081E+04  0.29843436081E+04  0.25500000000E-02 0.  1.
    8880023    1    1    2    0    0  0.41143469845E+03 -0.93243480471E+03 -0.26141706120E+04  0.28820845530E+04  0.65864270000E+03 0.  0.
    8880022    1    1    2    0    0 -0.41143469845E+03  0.93243480471E+03  0.88786607919E+03  0.13602981305E+04  0.15294330000E+03 0.  0.
<mgrwt>
<rscale>  0 0.11649150E+04</rscale>
<asrwt>0</asrwt>
<pdfrwt beam="1">  1        2 0.19354447E+00 0.12134757E+04</pdfrwt>
<pdfrwt beam="2">  1       -2 0.45912978E+00 0.12134757E+04</pdfrwt>
<totfact> 0.51827179E-02</totfact>
</mgrwt>
</event>
<event>
 4    5  0.1112901E-007  0.6984229E+03  0.7818608E-02  0.1000381E+00
         -2   -1    0    0    0  501 -0.00000000000E+00  0.00000000000E+00  0.18434476117E+04  0.18434476117E+04  0.25500000000E-02 0.  1.
          2   -1    0    0  501    0  0.00000000000E+00 -0.00000000000E+00 -0.43516478628E+03  0.43516478629E+03  0.25500000000E-02 0. -1.
    8880023    1    1    2    0    0  0.17825794474E+03 -0.14902502748E+03  0.17226493174E+04  0.18588478235E+04  0.65864270000E+03 0.  0.
    8880022    1    1    2    0    0 -0.17825794474E+03  0.14902502748E+03 -0.31436649204E+03  0.41976457451E+03  0.15294330000E+03 0.  0.
<mgrwt>
<rscale>  0 0.55483602E+03</rscale>
<asrwt>0</asrwt>
<pdfrwt beam="1">  1        2 0.66948428E-01 0.69842291E+03</pdfrwt>
<pdfrwt beam="2">  1       -2 0.28360733E+00 0.69842291E+03</pdfrwt>
<totfact> 0.30224537E+00</totfact>
</mgrwt>
</event>
<event>
 4    5  0.1112901E-007  0.1546908E+04  0.7818608E-02  0.8877203E-01
         -2   -1    0    0    0  501 -0.00000000000E+00  0.00000000000E+00  0.11511885286E+04  0.11511885286E+04  0.25500000000E-02 0.  1.
          2   -1    0    0  501    0  0.00000000000E+00 -0.00000000000E+00 -0.24265676266E+04  0.24265676266E+04  0.25500000000E-02 0. -1.
    8880023    1    1    2    0    0  0.12159305882E+04  0.69327364268E+03  0.17447973635E+03  0.15567173551E+04  0.65864270000E+03 0.  1.
    8880022    1    1    2    0    0 -0.12159305882E+04 -0.69327364268E+03 -0.14498588343E+04  0.20210388001E+04  0.15294330000E+03 0.  0.
<mgrwt>
<rscale>  0 0.15109507E+04</rscale>
<asrwt>0</asrwt>
<pdfrwt beam="1">  1        2 0.37331810E+00 0.15469084E+04</pdfrwt>
<pdfrwt beam="2">  1       -2 0.17710593E+00 0.15469084E+04</pdfrwt>
<totfact> 0.68290113E-01</totfact>
</mgrwt>
</event>
<event>
 4    5  0.1112901E-007  0.1590523E+04  0.7818608E-02  0.8848225E-01
          2   -1    0    0  501    0  0.00000000000E+00  0.00000000000E+00  0.20705965064E+04  0.20705965064E+04  0.25500000000E-02 0. -1.
         -2   -1    0    0    0  501 -0.00000000000E+00 -0.00000000000E+00 -0.12115692173E+04  0.12115692173E+04  0.25500000000E-02 0.  1.
    8880023    1    1    2    0    0 -0.14224272225E+04 -0.26954438764E+03 -0.25427954486E+01  0.15905250870E+04  0.65864270000E+03 0.  0.
    8880022    1    1    2    0    0  0.14224272225E+04  0.26954438764E+03  0.86157008453E+03  0.16916406367E+04  0.15294330000E+03 0.  0.
<mgrwt>
<rscale>  0 0.15557155E+04</rscale>
<asrwt>0</asrwt>
<pdfrwt beam="1">  1        2 0.31855330E+00 0.15905231E+04</pdfrwt>
<pdfrwt beam="2">  1       -2 0.18639527E+00 0.15905231E+04</pdfrwt>
<totfact> 0.93264043E-01</totfact>
</mgrwt>
</event>
<event>
 4    5  0.1112901E-007  0.8199680E+03  0.7818608E-02  0.9669176E-01
          2   -1    0    0  501    0  0.00000000000E+00  0.00000000000E+00  0.18514035177E+04  0.18514035177E+04  0.25500000000E-02 0. -1.
         -2   -1    0    0    0  501 -0.00000000000E+00 -0.00000000000E+00 -0.34152179088E+03  0.34152179089E+03  0.25500000000E-02 0.  1.
    8880023    1    1    2    0    0  0.44276959217E+03  0.20613679289E+03  0.28949999688E+03  0.86957331122E+03  0.65864270000E+03 0.  1.
    8880022    1    1    2    0    0 -0.44276959217E+03 -0.20613679289E+03  0.12203817299E+04  0.13233519974E+04  0.15294330000E+03 0.  0.
<mgrwt>
<rscale>  0 0.72882055E+03</rscale>
<asrwt>0</asrwt>
<pdfrwt beam="1">  1        2 0.28483131E+00 0.81996798E+03</pdfrwt>
<pdfrwt beam="2">  1       -2 0.52541814E-01 0.81996798E+03</pdfrwt>
<totfact> 0.28200627E+01</totfact>
</mgrwt>
</event>
<event>
 4    5  0.1112901E-007  0.8432138E+03  0.7818608E-02  0.9624150E-01
          2   -1    0    0  501    0  0.00000000000E+00  0.00000000000E+00  0.17090159484E+04  0.17090159484E+04  0.25500000000E-02 0. -1.
         -2   -1    0    0    0  501 -0.00000000000E+00 -0.00000000000E+00 -0.16298002408E+04  0.16298002408E+04  0.25500000000E-02 0.  1.
    8880023    1    1    2    0    0 -0.29506187508E+03  0.43604800176E+03 -0.14704290527E+04  0.16950431190E+04  0.65864270000E+03 0.  1.
    8880022    1    1    2    0    0  0.29506187508E+03 -0.43604800176E+03  0.15496447603E+04  0.16437730701E+04  0.15294330000E+03 0.  0.
<mgrwt>
<rscale>  0 0.75718202E+03</rscale>
<asrwt>0</asrwt>
<pdfrwt beam="1">  1        2 0.26292553E+00 0.84321384E+03</pdfrwt>
<pdfrwt beam="2">  1       -2 0.25073850E+00 0.84321384E+03</pdfrwt>
<totfact> 0.63341314E-01</totfact>
</mgrwt>
</event>
<event>
 4    5  0.1112901E-007  0.1318193E+04  0.7818608E-02  0.9050007E-01
         -2   -1    0    0    0  501 -0.00000000000E+00  0.00000000000E+00  0.16808580003E+04  0.16808580003E+04  0.25500000000E-02 0.  1.
          2   -1    0    0  501    0  0.00000000000E+00 -0.00000000000E+00 -0.20703857485E+04  0.20703857485E+04  0.25500000000E-02 0. -1.
    8880023    1    1    2    0    0 -0.10796099266E+04 -0.37183831406E+03  0.12037335988E+04  0.17851067499E+04  0.65864270000E+03 0.  0.
    8880022    1    1    2    0    0  0.10796099266E+04  0.37183831406E+03 -0.15932613470E+04  0.19661369989E+04  0.15294330000E+03 0.  0.
<mgrwt>
<rscale>  0 0.12745348E+04</rscale>
<asrwt>0</asrwt>
<pdfrwt beam="1">  1        2 0.31852088E+00 0.13181925E+04</pdfrwt>
<pdfrwt beam="2">  1       -2 0.25859354E+00 0.13181925E+04</pdfrwt>
<totfact> 0.33291229E-01</totfact>
</mgrwt>
</event>
<event>
 4    5  0.1112901E-007  0.7657472E+03  0.7818608E-02  0.9790449E-01
         -2   -1    0    0    0  501 -0.00000000000E+00  0.00000000000E+00  0.67064477979E+03  0.67064477980E+03  0.25500000000E-02 0.  1.
          2   -1    0    0  501    0  0.00000000000E+00 -0.00000000000E+00 -0.74400039371E+03  0.74400039371E+03  0.25500000000E-02 0. -1.
    8880023    1    1    2    0    0  0.29564270589E+03 -0.25525282822E+03  0.32897451625E+03  0.83342249457E+03  0.65864270000E+03 0.  0.
    8880022    1    1    2    0    0 -0.29564270589E+03  0.25525282822E+03 -0.40233013016E+03  0.58122267893E+03  0.15294330000E+03 0.  0.
<mgrwt>
<rscale>  0 0.65877607E+03</rscale>
<asrwt>0</asrwt>
<pdfrwt beam="1">  1        2 0.11446160E+00 0.76574723E+03</pdfrwt>
<pdfrwt beam="2">  1       -2 0.10317612E+00 0.76574723E+03</pdfrwt>
<totfact> 0.29409290E+01</totfact>
</mgrwt>
</event>
<event>
 4    5  0.1112901E-007  0.6790642E+03  0.7818608E-02  0.1009858E+00
         -2   -1    0    0    0  501 -0.00000000000E+00  0.00000000000E+00  0.48997864769E+03  0.48997864769E+03  0.25500000000E-02 0.  1.
          2   -1    0    0  501    0  0.00000000000E+00 -0.00000000000E+00 -0.11083915733E+04  0.11083915733E+04  0.25500000000E-02 0. -1.
    8880023    1    1    2    0    0 -0.97736654352E+01  0.16499248616E+03  0.23281044316E+03  0.71786416106E+03  0.65864270000E+03 0.  1.
    8880022    1    1    2    0    0  0.97736654352E+01 -0.16499248616E+03 -0.85122336874E+03  0.88050605991E+03  0.15294330000E+03 0.  0.
<mgrwt>
<rscale>  0 0.51531114E+03</rscale>
<asrwt>0</asrwt>
<pdfrwt beam="1">  1        2 0.17052178E+00 0.67906425E+03</pdfrwt>
<pdfrwt beam="2">  1       -2 0.75381331E-01 0.67906425E+03</pdfrwt>
<totfact> 0.34831889E+01</totfact>
</mgrwt>
</event>
<event>
 4    5  0.1112901E-007  0.6981627E+03  0.7818608E-02  0.1000491E+00
          2   -1    0    0  501    0  0.00000000000E+00  0.00000000000E+00  0.12927070563E+04  0.12927070563E+04  0.25500000000E-02 0. -1.
         -2   -1    0    0    0  501 -0.00000000000E+00 -0.00000000000E+00 -0.51980651608E+03  0.51980651608E+03  0.25500000000E-02 0.  1.
    8880023    1    1    2    0    0 -0.23109980264E+03  0.14625161220E+02 -0.25846137022E+03  0.74446860262E+03  0.65864270000E+03 0.  1.
    8880022    1    1    2    0    0  0.23109980264E+03 -0.14625161220E+02  0.10313619105E+04  0.10680449698E+04  0.15294330000E+03 0.  0.
<mgrwt>
<rscale>  0 0.55435475E+03</rscale>
<asrwt>0</asrwt>
<pdfrwt beam="1">  1        2 0.19887801E+00 0.69816275E+03</pdfrwt>
<pdfrwt beam="2">  1       -2 0.79970234E-01 0.69816275E+03</pdfrwt>
<totfact> 0.23707507E+01</totfact>
</mgrwt>
</event>
<event>
 4    5  0.1112901E-007  0.8259497E+03  0.7818608E-02  0.9657265E-01
         -2   -1    0    0    0  501 -0.00000000000E+00  0.00000000000E+00  0.30467638701E+03  0.30467638702E+03  0.25500000000E-02 0.  1.
          2   -1    0    0  501    0  0.00000000000E+00 -0.00000000000E+00 -0.22227363399E+04  0.22227363399E+04  0.25500000000E-02 0. -1.
    8880023    1    1    2    0    0 -0.49522784984E+03 -0.55965391081E+02 -0.39101034260E+03  0.91382823470E+03  0.65864270000E+03 0.  0.
    8880022    1    1    2    0    0  0.49522784984E+03  0.55965391081E+02 -0.15270496103E+04  0.16135844922E+04  0.15294330000E+03 0.  0.
<mgrwt>
<rscale>  0 0.73619232E+03</rscale>
<asrwt>0</asrwt>
<pdfrwt beam="1">  1        2 0.34195943E+00 0.82594973E+03</pdfrwt>
<pdfrwt beam="2">  1       -2 0.46873292E-01 0.82594973E+03</pdfrwt>
<totfact> 0.22236227E+01</totfact>
</mgrwt>
</event>
<event>
 4    5  0.1112901E-007  0.8980268E+03  0.7818608E-02  0.9529207E-01
          2   -1    0    0  501    0  0.00000000000E+00  0.00000000000E+00  0.33250265483E+04  0.33250265483E+04  0.25500000000E-02 0. -1.
         -2   -1    0    0    0  501 -0.00000000000E+00 -0.00000000000E+00 -0.20517092090E+03  0.20517092091E+03  0.25500000000E-02 0.  1.
    8880023    1    1    2    0    0  0.14697817262E+03  0.59248575708E+03  0.11310700286E+04  0.14442200564E+04  0.65864270000E+03 0.  0.
    8880022    1    1    2    0    0 -0.14697817262E+03 -0.59248575708E+03  0.19887855989E+04  0.20859774128E+04  0.15294330000E+03 0. -1.
<mgrwt>
<rscale>  0 0.82164361E+03</rscale>
<asrwt>0</asrwt>
<pdfrwt beam="1">  1        2 0.51154254E+00 0.89802682E+03</pdfrwt>
<pdfrwt beam="2">  1       -2 0.31564757E-01 0.89802682E+03</pdfrwt>
<totfact> 0.10454386E+01</totfact>
</mgrwt>
</event>
<event>
 4    5  0.1112901E-007  0.7910664E+03  0.7818608E-02  0.9730456E-01
          2   -1    0    0  501    0  0.00000000000E+00  0.00000000000E+00  0.24533783807E+04  0.24533783807E+04  0.25500000000E-02 0. -1.
         -2   -1    0    0    0  501 -0.00000000000E+00 -0.00000000000E+00 -0.71395773767E+03  0.71395773767E+03  0.25500000000E-02 0.  1.
    8880023    1    1    2    0    0  0.43171359836E+03 -0.74828149234E+02 -0.46296855706E+03  0.91658386088E+03  0.65864270000E+03 0.  1.
    8880022    1    1    2    0    0 -0.43171359836E+03  0.74828149234E+02  0.22023892001E+04  0.22507522575E+04  0.15294330000E+03 0.  0.
<mgrwt>
<rscale>  0 0.69232058E+03</rscale>
<asrwt>0</asrwt>
<pdfrwt beam="1">  1        2 0.37744283E+00 0.79106643E+03</pdfrwt>
<pdfrwt beam="2">  1       -2 0.10983965E+00 0.79106643E+03</pdfrwt>
<totfact> 0.25428377E+00</totfact>
</mgrwt>
</event>
<event>
 4    5  0.1112901E-007  0.7444810E+03  0.7818608E-02  0.9847081E-01
          2   -1    0    0  501    0  0.00000000000E+00  0.00000000000E+00  0.69748639655E+03  0.69748639655E+03  0.25500000000E-02 0. -1.
         -2   -1    0    0    0  501 -0.00000000000E+00 -0.00000000000E+00 -0.19447052075E+04  0.19447052075E+04  0.25500000000E-02 0.  1.
    8880023    1    1    2    0    0 -0.33199261987E+03  0.10110683091E+03 -0.18136581696E+04  0.19605121405E+04  0.65864270000E+03 0.  1.
    8880022    1    1    2    0    0  0.33199261987E+03 -0.10110683091E+03  0.56643935864E+03  0.68167946348E+03  0.15294330000E+03 0.  0.
<mgrwt>
<rscale>  0 0.62895944E+03</rscale>
<asrwt>0</asrwt>
<pdfrwt beam="1">  1        2 0.10730560E+00 0.74448096E+03</pdfrwt>
<pdfrwt beam="2">  1       -2 0.29918541E+00 0.74448096E+03</pdfrwt>
<totfact> 0.13814194E+00</totfact>
</mgrwt>
</event>
<event>
 4    5  0.1112901E-007  0.6657312E+03  0.7818608E-02  0.1018928E+00
         -2   -1    0    0    0  501 -0.00000000000E+00  0.00000000000E+00  0.26572092968E+03  0.26572092969E+03  0.25500000000E-02 0.  1.
          2   -1    0    0  501    0  0.00000000000E+00 -0.00000000000E+00 -0.23489236746E+04  0.23489236746E+04  0.25500000000E-02 0. -1.
    8880023    1    1    2    0    0 -0.40509258410E+02  0.88015879314E+02 -0.16230125083E+03  0.68522966757E+03  0.65864270000E+03 0.  1.
    8880022    1    1    2    0    0  0.40509258410E+02 -0.88015879314E+02 -0.19209014941E+04  0.19294149367E+04  0.15294330000E+03 0.  0.
<mgrwt>
<rscale>  0 0.48075563E+03</rscale>
<asrwt>0</asrwt>
<pdfrwt beam="1">  1        2 0.36137286E+00 0.66573118E+03</pdfrwt>
<pdfrwt beam="2">  1       -2 0.40880145E-01 0.66573118E+03</pdfrwt>
<totfact> 0.25407860E+01</totfact>
</mgrwt>
</event>
<event>
 4    5  0.1112901E-007  0.6735433E+03  0.7818608E-02  0.1013241E+00
          2   -1    0    0  501    0  0.00000000000E+00  0.00000000000E+00  0.10604871248E+04  0.10604871248E+04  0.25500000000E-02 0. -1.
         -2   -1    0    0    0  501 -0.00000000000E+00 -0.00000000000E+00 -0.44186113060E+03  0.44186113061E+03  0.25500000000E-02 0.  1.
    8880023    1    1    2    0    0 -0.13421334418E+03  0.42861948705E+02 -0.16345557872E+03  0.69309328440E+03  0.65864270000E+03 0.  0.
    8880022    1    1    2    0    0  0.13421334418E+03 -0.42861948705E+02  0.78208157288E+03  0.80925497098E+03  0.15294330000E+03 0. -1.
<mgrwt>
<rscale>  0 0.50206782E+03</rscale>
<asrwt>0</asrwt>
<pdfrwt beam="1">  1        2 0.16315187E+00 0.67354330E+03</pdfrwt>
<pdfrwt beam="2">  1       -2 0.67978635E-01 0.67354330E+03</pdfrwt>
<totfact> 0.46768437E+01</totfact>
</mgrwt>
</event>
<event>
 4    5  0.1112901E-007  0.6618406E+03  0.7818608E-02  0.1022345E+00
         -2   -1    0    0    0  501 -0.00000000000E+00  0.00000000000E+00  0.10560799646E+04  0.10560799646E+04  0.25500000000E-02 0.  1.
          2   -1    0    0  501    0  0.00000000000E+00 -0.00000000000E+00 -0.16169122662E+04  0.16169122662E+04  0.25500000000E-02 0. -1.
    8880023    1    1    2    0    0 -0.42980247857E+02 -0.48739223284E+02  0.94737322843E+03  0.11556595752E+04  0.65864270000E+03 0.  1.
    8880022    1    1    2    0    0  0.42980247857E+02  0.48739223284E+02 -0.15082055301E+04  0.15173326556E+04  0.15294330000E+03 0.  0.
<mgrwt>
<rscale>  0 0.46849736E+03</rscale>
<asrwt>0</asrwt>
<pdfrwt beam="1">  1        2 0.24875573E+00 0.66184063E+03</pdfrwt>
<pdfrwt beam="2">  1       -2 0.16247384E+00 0.66184063E+03</pdfrwt>
<totfact> 0.27583105E+00</totfact>
</mgrwt>
</event>
<event>
 4    5  0.1112901E-007  0.1652876E+04  0.7818608E-02  0.8808607E-01
         -2   -1    0    0    0  501 -0.00000000000E+00  0.00000000000E+00  0.21083802639E+04  0.21083802639E+04  0.25500000000E-02 0.  1.
          2   -1    0    0  501    0  0.00000000000E+00 -0.00000000000E+00 -0.22086814765E+04  0.22086814765E+04  0.25500000000E-02 0. -1.
    8880023    1    1    2    0    0  0.47469237982E+03  0.14397415196E+04  0.14093481588E+04  0.21721558272E+04  0.65864270000E+03 0.  0.
    8880022    1    1    2    0    0 -0.47469237982E+03 -0.14397415196E+04 -0.15096493714E+04  0.21449059131E+04  0.15294330000E+03 0.  0.
<mgrwt>
<rscale>  0 0.16195828E+04</rscale>
<asrwt>0</asrwt>
<pdfrwt beam="1">  1        2 0.33979715E+00 0.16528759E+04</pdfrwt>
<pdfrwt beam="2">  1       -2 0.32436620E+00 0.16528759E+04</pdfrwt>
<totfact> 0.10579047E-01</totfact>
</mgrwt>
</event>
<event>
 4    5  0.1112901E-007  0.8393835E+03  0.7818608E-02  0.9631344E-01
         -2   -1    0    0    0  501 -0.00000000000E+00  0.00000000000E+00  0.83075150471E+03  0.83075150471E+03  0.25500000000E-02 0.  1.
          2   -1    0    0  501    0  0.00000000000E+00 -0.00000000000E+00 -0.80046046208E+03  0.80046046209E+03  0.25500000000E-02 0. -1.
    8880023    1    1    2    0    0  0.41217065691E+03 -0.31760005129E+03  0.44353698193E+03  0.94936278819E+03  0.65864270000E+03 0.  1.
    8880022    1    1    2    0    0 -0.41217065691E+03  0.31760005129E+03 -0.41324593931E+03  0.68184917861E+03  0.15294330000E+03 0.  0.
<mgrwt>
<rscale>  0 0.75255926E+03</rscale>
<asrwt>0</asrwt>
<pdfrwt beam="1">  1        2 0.12314776E+00 0.83938349E+03</pdfrwt>
<pdfrwt beam="2">  1       -2 0.12780792E+00 0.83938349E+03</pdfrwt>
<totfact> 0.15702866E+01</totfact>
</mgrwt>
</event>
<event>
 4    5  0.1112901E-007  0.1483223E+04  0.7818608E-02  0.8921574E-01
          2   -1    0    0  501    0  0.00000000000E+00  0.00000000000E+00  0.22803904891E+04  0.22803904891E+04  0.25500000000E-02 0. -1.
         -2   -1    0    0    0  501 -0.00000000000E+00 -0.00000000000E+00 -0.14407147815E+04  0.14407147816E+04  0.25500000000E-02 0.  1.
    8880023    1    1    2    0    0  0.10782056244E+04  0.77692537577E+03 -0.73464263406E+03  0.16551889360E+04  0.65864270000E+03 0.  0.
    8880022    1    1    2    0    0 -0.10782056244E+04 -0.77692537577E+03  0.15743183416E+04  0.20659163346E+04  0.15294330000E+03 0.  0.
<mgrwt>
<rscale>  0 0.14454307E+04</rscale>
<asrwt>0</asrwt>
<pdfrwt beam="1">  1        2 0.35082931E+00 0.14832230E+04</pdfrwt>
<pdfrwt beam="2">  1       -2 0.22164843E+00 0.14832230E+04</pdfrwt>
<totfact> 0.42177395E-01</totfact>
</mgrwt>
</event>
<event>
 4    5  0.1112901E-007  0.7188149E+03  0.7818608E-02  0.9926616E-01
         -2   -1    0    0    0  501 -0.00000000000E+00  0.00000000000E+00  0.29313898915E+03  0.29313898916E+03  0.25500000000E-02 0.  1.
          2   -1    0    0  501    0  0.00000000000E+00 -0.00000000000E+00 -0.13703507684E+04  0.13703507684E+04  0.25500000000E-02 0. -1.
    8880023    1    1    2    0    0 -0.27390725643E+03 -0.88653772708E+02 -0.22840236395E+03  0.75422975456E+03  0.65864270000E+03 0.  0.
    8880022    1    1    2    0    0  0.27390725643E+03  0.88653772708E+02 -0.84880941530E+03  0.90926000300E+03  0.15294330000E+03 0.  0.
<mgrwt>
<rscale>  0 0.58988503E+03</rscale>
<asrwt>0</asrwt>
<pdfrwt beam="1">  1        2 0.21082319E+00 0.71881492E+03</pdfrwt>
<pdfrwt beam="2">  1       -2 0.45098307E-01 0.71881492E+03</pdfrwt>
<totfact> 0.71680274E+01</totfact>
</mgrwt>
</event>
<event>
 4    5  0.1112901E-007  0.1224018E+04  0.7818608E-02  0.9134122E-01
          2   -1    0    0  501    0  0.00000000000E+00  0.00000000000E+00  0.39931891332E+04  0.39931891332E+04  0.25500000000E-02 0. -1.
         -2   -1    0    0    0  501 -0.00000000000E+00 -0.00000000000E+00 -0.33660827097E+03  0.33660827098E+03  0.25500000000E-02 0.  1.
    8880023    1    1    2    0    0 -0.62107566765E+03  0.82381660474E+03  0.24212773882E+04  0.27130800172E+04  0.65864270000E+03 0.  0.
    8880022    1    1    2    0    0  0.62107566765E+03 -0.82381660474E+03  0.12353034741E+04  0.16167173869E+04  0.15294330000E+03 0.  0.
<mgrwt>
<rscale>  0 0.11760056E+04</rscale>
<asrwt>0</asrwt>
<pdfrwt beam="1">  1        2 0.61433682E+00 0.12240176E+04</pdfrwt>
<pdfrwt beam="2">  1       -2 0.51785885E-01 0.12240176E+04</pdfrwt>
<totfact> 0.12410001E+00</totfact>
</mgrwt>
</event>
<event>
 4    5  0.1112901E-007  0.6734632E+03  0.7818608E-02  0.1013293E+00
         -2   -1    0    0    0  501 -0.00000000000E+00  0.00000000000E+00  0.18282221932E+03  0.18282221933E+03  0.25500000000E-02 0.  1.
          2   -1    0    0  501    0  0.00000000000E+00 -0.00000000000E+00 -0.21943215192E+04  0.21943215192E+04  0.25500000000E-02 0. -1.
    8880023    1    1    2    0    0  0.12687981517E+03 -0.60365652938E+02 -0.46888911911E+03  0.82061544699E+03  0.65864270000E+03 0.  1.
    8880022    1    1    2    0    0 -0.12687981517E+03  0.60365652938E+02 -0.15426101808E+04  0.15565282915E+04  0.15294330000E+03 0.  0.
<mgrwt>
<rscale>  0 0.50186634E+03</rscale>
<asrwt>0</asrwt>
<pdfrwt beam="1">  1        2 0.33758791E+00 0.67346322E+03</pdfrwt>
<pdfrwt beam="2">  1       -2 0.28126497E-01 0.67346322E+03</pdfrwt>
<totfact> 0.62673987E+01</totfact>
</mgrwt>
</event>
<event>
 4    5  0.1112901E-007  0.8677927E+03  0.7818608E-02  0.9579849E-01
          2   -1    0    0  501    0  0.00000000000E+00  0.00000000000E+00  0.12292174755E+04  0.12292174755E+04  0.25500000000E-02 0. -1.
         -2   -1    0    0    0  501 -0.00000000000E+00 -0.00000000000E+00 -0.71384552016E+03  0.71384552016E+03  0.25500000000E-02 0.  1.
    8880023    1    1    2    0    0 -0.48138354526E+03 -0.29584431281E+03 -0.31837173159E+03  0.92435098356E+03  0.65864270000E+03 0.  1.
    8880022    1    1    2    0    0  0.48138354526E+03  0.29584431281E+03  0.83374368691E+03  0.10187120121E+04  0.15294330000E+03 0.  0.
<mgrwt>
<rscale>  0 0.78644372E+03</rscale>
<asrwt>0</asrwt>
<pdfrwt beam="1">  1        2 0.18911038E+00 0.86779271E+03</pdfrwt>
<pdfrwt beam="2">  1       -2 0.10982239E+00 0.86779271E+03</pdfrwt>
<totfact> 0.12079183E+01</totfact>
</mgrwt>
</event>
<event>
 4    5  0.1112901E-007  0.8821715E+03  0.7818608E-02  0.9555280E-01
          2   -1    0    0  501    0  0.00000000000E+00  0.00000000000E+00  0.15165912278E+04  0.15165912278E+04  0.25500000000E-02 0. -1.
         -2   -1    0    0    0  501 -0.00000000000E+00 -0.00000000000E+00 -0.10647446692E+04  0.10647446692E+04  0.25500000000E-02 0.  1.
    8880023    1    1    2    0    0 -0.23000256975E+03 -0.53992141113E+03 -0.79963472075E+03  0.11906478090E+04  0.65864270000E+03 0.  1.
    8880022    1    1    2    0    0  0.23000256975E+03  0.53992141113E+03  0.12514812794E+04  0.13906880880E+04  0.15294330000E+03 0.  0.
<mgrwt>
<rscale>  0 0.80328083E+03</rscale>
<asrwt>0</asrwt>
<pdfrwt beam="1">  1        2 0.23332173E+00 0.88217148E+03</pdfrwt>
<pdfrwt beam="2">  1       -2 0.16380687E+00 0.88217148E+03</pdfrwt>
<totfact> 0.29572589E+00</totfact>
</mgrwt>
</event>
<event>
 4    5  0.1112901E-007  0.1114711E+04  0.7818608E-02  0.9244851E-01
          2   -1    0    0  501    0  0.00000000000E+00  0.00000000000E+00  0.68159069436E+03  0.68159069436E+03  0.25500000000E-02 0. -1.
         -2   -1    0    0    0  501 -0.00000000000E+00 -0.00000000000E+00 -0.20661981405E+04  0.20661981405E+04  0.25500000000E-02 0.  1.
    8880023    1    1    2    0    0  0.13625484812E+03  0.88893493059E+03 -0.14549136630E+04  0.18328542407E+04  0.65864270000E+03 0.  0.
    8880022    1    1    2    0    0 -0.13625484812E+03 -0.88893493059E+03  0.70306216888E+02  0.91493459417E+03  0.15294330000E+03 0.  0.
<mgrwt>
<rscale>  0 0.10602243E+04</rscale>
<asrwt>0</asrwt>
<pdfrwt beam="1">  1        2 0.10486011E+00 0.11147111E+04</pdfrwt>
<pdfrwt beam="2">  1       -2 0.31787663E+00 0.11147111E+04</pdfrwt>
<totfact> 0.10392266E+00</totfact>
</mgrwt>
</event>
<event>
 4    5  0.1112901E-007  0.6878856E+03  0.7818608E-02  0.1005174E+00
          2   -1    0    0  501    0  0.00000000000E+00  0.00000000000E+00  0.23121201558E+04  0.23121201558E+04  0.25500000000E-02 0. -1.
         -2   -1    0    0    0  501 -0.00000000000E+00 -0.00000000000E+00 -0.73243422600E+03  0.73243422600E+03  0.25500000000E-02 0.  1.
    8880023    1    1    2    0    0 -0.34139595011E+02 -0.19547609915E+03 -0.56199409231E+03  0.88827021978E+03  0.65864270000E+03 0.  0.
    8880022    1    1    2    0    0  0.34139595011E+02  0.19547609915E+03  0.21416800222E+04  0.21562841621E+04  0.15294330000E+03 0. -1.
<mgrwt>
<rscale>  0 0.53438532E+03</rscale>
<asrwt>0</asrwt>
<pdfrwt beam="1">  1        2 0.35571078E+00 0.68788562E+03</pdfrwt>
<pdfrwt beam="2">  1       -2 0.11268219E+00 0.68788562E+03</pdfrwt>
<totfact> 0.29243305E+00</totfact>
</mgrwt>
</event>
<event>
 4    5  0.1112901E-007  0.7897493E+03  0.7818608E-02  0.9733415E-01
          2   -1    0    0  501    0  0.00000000000E+00  0.00000000000E+00  0.25337980092E+04  0.25337980092E+04  0.25500000000E-02 0. -1.
         -2   -1    0    0    0  501 -0.00000000000E+00 -0.00000000000E+00 -0.45307690917E+03  0.45307690917E+03  0.25500000000E-02 0.  1.
    8880023    1    1    2    0    0  0.43468656089E+03 -0.30681831614E+02 -0.64619188152E+02  0.79238855794E+03  0.65864270000E+03 0.  1.
    8880022    1    1    2    0    0 -0.43468656089E+03  0.30681831614E+02  0.21453402882E+04  0.21944863604E+04  0.15294330000E+03 0.  0.
<mgrwt>
<rscale>  0 0.69061673E+03</rscale>
<asrwt>0</asrwt>
<pdfrwt beam="1">  1        2 0.38981509E+00 0.78974932E+03</pdfrwt>
<pdfrwt beam="2">  1       -2 0.69704138E-01 0.78974932E+03</pdfrwt>
<totfact> 0.65133117E+00</totfact>
</mgrwt>
</event>
<event>
 4    5  0.1112901E-007  0.1443212E+04  0.7818608E-02  0.8950813E-01
         -2   -1    0    0    0  501 -0.00000000000E+00  0.00000000000E+00  0.12692981423E+04  0.12692981423E+04  0.25500000000E-02 0.  1.
          2   -1    0    0  501    0  0.00000000000E+00 -0.00000000000E+00 -0.25601557863E+04  0.25601557863E+04  0.25500000000E-02 0. -1.
    8880023    1    1    2    0    0  0.10712039403E+04 -0.70821714502E+03  0.57977669552E+03  0.15553136755E+04  0.65864270000E+03 0.  0.
    8880022    1    1    2    0    0 -0.10712039403E+04  0.70821714502E+03 -0.18706343395E+04  0.22741402532E+04  0.15294330000E+03 0.  0.
<mgrwt>
<rscale>  0 0.14041592E+04</rscale>
<asrwt>0</asrwt>
<pdfrwt beam="1">  1        2 0.39387012E+00 0.14432116E+04</pdfrwt>
<pdfrwt beam="2">  1       -2 0.19527664E+00 0.14432116E+04</pdfrwt>
<totfact> 0.43434578E-01</totfact>
</mgrwt>
</event>
<event>
 4    5  0.1112901E-007  0.7406266E+03  0.7818608E-02  0.9858126E-01
         -2   -1    0    0    0  501 -0.00000000000E+00  0.00000000000E+00  0.92670119717E+03  0.92670119717E+03  0.25500000000E-02 0.  1.
          2   -1    0    0  501    0  0.00000000000E+00 -0.00000000000E+00 -0.95062552102E+03  0.95062552103E+03  0.25500000000E-02 0. -1.
    8880023    1    1    2    0    0  0.45193621925E+02  0.33567107407E+03  0.72803995242E+03  0.10385422052E+04  0.65864270000E+03 0.  0.
    8880022    1    1    2    0    0 -0.45193621925E+02 -0.33567107407E+03 -0.75196427627E+03  0.83878451299E+03  0.15294330000E+03 0.  0.
<mgrwt>
<rscale>  0 0.62334330E+03</rscale>
<asrwt>0</asrwt>
<pdfrwt beam="1">  1        2 0.14625008E+00 0.74062659E+03</pdfrwt>
<pdfrwt beam="2">  1       -2 0.14256941E+00 0.74062659E+03</pdfrwt>
<totfact> 0.94623594E+00</totfact>
</mgrwt>
</event>
<event>
 4    5  0.1112901E-007  0.6689930E+03  0.7818608E-02  0.1016395E+00
         -2   -1    0    0    0  501 -0.00000000000E+00  0.00000000000E+00  0.78396386788E+03  0.78396386788E+03  0.25500000000E-02 0.  1.
          2   -1    0    0  501    0  0.00000000000E+00 -0.00000000000E+00 -0.97762073572E+03  0.97762073573E+03  0.25500000000E-02 0. -1.
    8880023    1    1    2    0    0  0.11194644411E+03 -0.34777122854E+02  0.62803810945E+03  0.91759660407E+03  0.65864270000E+03 0.  1.
    8880022    1    1    2    0    0 -0.11194644411E+03  0.34777122854E+02 -0.82169497730E+03  0.84398799953E+03  0.15294330000E+03 0.  0.
<mgrwt>
<rscale>  0 0.49010186E+03</rscale>
<asrwt>0</asrwt>
<pdfrwt beam="1">  1        2 0.15040319E+00 0.66899302E+03</pdfrwt>
<pdfrwt beam="2">  1       -2 0.12060983E+00 0.66899302E+03</pdfrwt>
<totfact> 0.14016354E+01</totfact>
</mgrwt>
</event>
<event>
 4    5  0.1720594E-007  0.1277503E+04  0.7818608E-02  0.9085235E-01
         -2   -1    0    0    0  501 -0.00000000000E+00  0.00000000000E+00  0.22243134661E+04  0.22243134661E+04  0.25500000000E-02 0.  1.
          2   -1    0    0  501    0  0.00000000000E+00 -0.00000000000E+00 -0.42449315087E+04  0.42449315087E+04  0.25500000000E-02 0. -1.
    8880023    1    1    2    0    0  0.98692097457E+03 -0.47348862402E+03  0.19591432555E+04  0.23388580523E+04  0.65864270000E+03 0.  0.
    8880022    1    1    2    0    0 -0.98692097457E+03  0.47348862402E+03 -0.39797612981E+04  0.41303869225E+04  0.15294330000E+03 0.  0.
<mgrwt>
<rscale>  0 0.12320760E+04</rscale>
<asrwt>0</asrwt>
<pdfrwt beam="1">  1        2 0.65306639E+00 0.12775033E+04</pdfrwt>
<pdfrwt beam="2">  1       -2 0.34220207E+00 0.12775033E+04</pdfrwt>
<totfact> 0.37172465E-03</totfact>
</mgrwt>
</event>
<event>
 4    5  0.1112901E-007  0.6849043E+03  0.7818608E-02  0.1006675E+00
          2   -1    0    0  501    0  0.00000000000E+00  0.00000000000E+00  0.23370434471E+04  0.23370434471E+04  0.25500000000E-02 0. -1.
         -2   -1    0    0    0  501 -0.00000000000E+00 -0.00000000000E+00 -0.70790537309E+03  0.70790537309E+03  0.25500000000E-02 0.  1.
    8880023    1    1    2    0    0 -0.11681446127E+03  0.14709872787E+03 -0.53388490756E+03  0.86840483352E+03  0.65864270000E+03 0.  1.
    8880022    1    1    2    0    0  0.11681446127E+03 -0.14709872787E+03  0.21630229816E+04  0.21765439867E+04  0.15294330000E+03 0.  0.
<mgrwt>
<rscale>  0 0.52817681E+03</rscale>
<asrwt>0</asrwt>
<pdfrwt beam="1">  1        2 0.35954514E+00 0.68490427E+03</pdfrwt>
<pdfrwt beam="2">  1       -2 0.10890852E+00 0.68490427E+03</pdfrwt>
<totfact> 0.30780384E+00</totfact>
</mgrwt>
</event>
<event>
 4    5  0.1112901E-007  0.8989984E+03  0.7818608E-02  0.9527641E-01
         -2   -1    0    0    0  501 -0.00000000000E+00  0.00000000000E+00  0.63148136224E+03  0.63148136224E+03  0.25500000000E-02 0.  1.
          2   -1    0    0  501    0  0.00000000000E+00 -0.00000000000E+00 -0.12625238334E+04  0.12625238334E+04  0.25500000000E-02 0. -1.
    8880023    1    1    2    0    0 -0.55231177850E+03  0.26332401571E+03  0.12697047820E+03  0.90792045165E+03  0.65864270000E+03 0.  0.
    8880022    1    1    2    0    0  0.55231177850E+03 -0.26332401571E+03 -0.75801294931E+03  0.98608474396E+03  0.15294330000E+03 0.  0.
<mgrwt>
<rscale>  0 0.82276247E+03</rscale>
<asrwt>0</asrwt>
<pdfrwt beam="1">  1        2 0.19423444E+00 0.89899836E+03</pdfrwt>
<pdfrwt beam="2">  1       -2 0.97150979E-01 0.89899836E+03</pdfrwt>
<totfact> 0.15438680E+01</totfact>
</mgrwt>
</event>
<event>
 4    5  0.1112901E-007  0.7109201E+03  0.7818608E-02  0.9954600E-01
          2   -1    0    0  501    0  0.00000000000E+00  0.00000000000E+00  0.17287670439E+04  0.17287670439E+04  0.25500000000E-02 0. -1.
         -2   -1    0    0    0  501 -0.00000000000E+00 -0.00000000000E+00 -0.25464008012E+03  0.25464008013E+03  0.25500000000E-02 0.  1.
    8880023    1    1    2    0    0 -0.20517105453E+03 -0.17176141788E+03  0.30368424386E+03  0.77306627951E+03  0.65864270000E+03 0.  1.
    8880022    1    1    2    0    0  0.20517105453E+03  0.17176141788E+03  0.11704427199E+04  0.12103408445E+04  0.15294330000E+03 0.  0.
<mgrwt>
<rscale>  0 0.57686559E+03</rscale>
<asrwt>0</asrwt>
<pdfrwt beam="1">  1        2 0.26596415E+00 0.71092007E+03</pdfrwt>
<pdfrwt beam="2">  1       -2 0.39175398E-01 0.71092007E+03</pdfrwt>
<totfact> 0.59901704E+01</totfact>
</mgrwt>
</event>
<event>
 4    5  0.1112901E-007  0.8883537E+03  0.7818608E-02  0.9544992E-01
          2   -1    0    0  501    0  0.00000000000E+00  0.00000000000E+00  0.10299064579E+04  0.10299064579E+04  0.25500000000E-02 0. -1.
         -2   -1    0    0    0  501 -0.00000000000E+00 -0.00000000000E+00 -0.11870282416E+04  0.11870282416E+04  0.25500000000E-02 0.  1.
    8880023    1    1    2    0    0  0.89295422770E+02  0.58939670209E+03 -0.89165521414E+03  0.12586585606E+04  0.65864270000E+03 0.  1.
    8880022    1    1    2    0    0 -0.89295422770E+02 -0.58939670209E+03  0.73453343042E+03  0.95827613890E+03  0.15294330000E+03 0.  0.
<mgrwt>
<rscale>  0 0.81046464E+03</rscale>
<asrwt>0</asrwt>
<pdfrwt beam="1">  1        2 0.15844715E+00 0.88835373E+03</pdfrwt>
<pdfrwt beam="2">  1       -2 0.18261973E+00 0.88835373E+03</pdfrwt>
<totfact> 0.42089622E+00</totfact>
</mgrwt>
</event>
<event>
 4    5  0.1112901E-007  0.6726676E+03  0.7818608E-02  0.1013819E+00
          2   -1    0    0  501    0  0.00000000000E+00  0.00000000000E+00  0.15074514888E+04  0.15074514888E+04  0.25500000000E-02 0. -1.
         -2   -1    0    0    0  501 -0.00000000000E+00 -0.00000000000E+00 -0.17991169901E+03  0.17991169903E+03  0.25500000000E-02 0.  1.
    8880023    1    1    2    0    0  0.12002919037E+03 -0.65303379087E+02  0.50905822111E+03  0.84357691801E+03  0.65864270000E+03 0.  1.
    8880022    1    1    2    0    0 -0.12002919037E+03  0.65303379087E+02  0.81848156870E+03  0.84378626985E+03  0.15294330000E+03 0.  0.
<mgrwt>
<rscale>  0 0.49984825E+03</rscale>
<asrwt>0</asrwt>
<pdfrwt beam="1">  1        2 0.23191561E+00 0.67266763E+03</pdfrwt>
<pdfrwt beam="2">  1       -2 0.27678723E-01 0.67266763E+03</pdfrwt>
<totfact> 0.15305030E+02</totfact>
</mgrwt>
</event>
<event>
 4    5  0.1112901E-007  0.1284380E+04  0.7818608E-02  0.9079167E-01
         -2   -1    0    0    0  501 -0.00000000000E+00  0.00000000000E+00  0.10417556148E+04  0.10417556148E+04  0.25500000000E-02 0.  1.
          2   -1    0    0  501    0  0.00000000000E+00 -0.00000000000E+00 -0.14095311986E+04  0.14095311986E+04  0.25500000000E-02 0. -1.
    8880023    1    1    2    0    0  0.69518396693E+03 -0.85588614285E+03 -0.37520505194E+03  0.13380623583E+04  0.65864270000E+03 0. -1.
    8880022    1    1    2    0    0 -0.69518396693E+03  0.85588614285E+03  0.74294680969E+01  0.11132244551E+04  0.15294330000E+03 0.  0.
<mgrwt>
<rscale>  0 0.12392628E+04</rscale>
<asrwt>0</asrwt>
<pdfrwt beam="1">  1        2 0.21685095E+00 0.12843800E+04</pdfrwt>
<pdfrwt beam="2">  1       -2 0.16027009E+00 0.12843800E+04</pdfrwt>
<totfact> 0.34537956E+00</totfact>
</mgrwt>
</event>
<event>
 4    5  0.1112901E-007  0.1343691E+04  0.7818608E-02  0.9028719E-01
          2   -1    0    0  501    0  0.00000000000E+00  0.00000000000E+00  0.10875319743E+04  0.10875319743E+04  0.25500000000E-02 0. -1.
         -2   -1    0    0    0  501 -0.00000000000E+00 -0.00000000000E+00 -0.15781919409E+04  0.15781919409E+04  0.25500000000E-02 0.  1.
    8880023    1    1    2    0    0  0.63324902308E+03  0.98523695607E+03  0.95609128643E+02  0.13470885259E+04  0.65864270000E+03 0.  0.
    8880022    1    1    2    0    0 -0.63324902308E+03 -0.98523695607E+03 -0.58626909528E+03  0.13186353893E+04  0.15294330000E+03 0.  0.
<mgrwt>
<rscale>  0 0.13010675E+04</rscale>
<asrwt>0</asrwt>
<pdfrwt beam="1">  1        2 0.16731261E+00 0.13436913E+04</pdfrwt>
<pdfrwt beam="2">  1       -2 0.24279876E+00 0.13436913E+04</pdfrwt>
<totfact> 0.15141914E+00</totfact>
</mgrwt>
</event>
<event>
 4    5  0.1112901E-007  0.1071372E+04  0.7818608E-02  0.9293620E-01
         -2   -1    0    0    0  501 -0.00000000000E+00  0.00000000000E+00  0.69178811373E+03  0.69178811373E+03  0.25500000000E-02 0.  1.
          2   -1    0    0  501    0  0.00000000000E+00 -0.00000000000E+00 -0.30228292074E+04  0.30228292074E+04  0.25500000000E-02 0. -1.
    8880023    1    1    2    0    0  0.75712333306E+03 -0.37522252233E+03  0.15675936502E+03  0.10827794732E+04  0.65864270000E+03 0.  0.
    8880022    1    1    2    0    0 -0.75712333306E+03  0.37522252233E+03 -0.24878004587E+04  0.26318378480E+04  0.15294330000E+03 0.  0.
<mgrwt>
<rscale>  0 0.10137235E+04</rscale>
<asrwt>0</asrwt>
<pdfrwt beam="1">  1        2 0.46505064E+00 0.10713720E+04</pdfrwt>
<pdfrwt beam="2">  1       -2 0.10642894E+00 0.10713720E+04</pdfrwt>
<totfact> 0.12085624E+00</totfact>
</mgrwt>
</event>
<event>
 4    5  0.1112901E-007  0.1525816E+04  0.7818608E-02  0.8891619E-01
         -2   -1    0    0    0  501 -0.00000000000E+00  0.00000000000E+00  0.23766440611E+04  0.23766440611E+04  0.25500000000E-02 0.  1.
          2   -1    0    0  501    0  0.00000000000E+00 -0.00000000000E+00 -0.13172219532E+04  0.13172219532E+04  0.25500000000E-02 0. -1.
    8880023    1    1    2    0    0 -0.13684472299E+04 -0.14715669093E+03  0.15966653608E+04  0.22084957309E+04  0.65864270000E+03 0.  0.
    8880022    1    1    2    0    0  0.13684472299E+04  0.14715669093E+03 -0.53724325291E+03  0.14853702833E+04  0.15294330000E+03 0.  0.
<mgrwt>
<rscale>  0 0.14892718E+04</rscale>
<asrwt>0</asrwt>
<pdfrwt beam="1">  1        2 0.20264953E+00 0.15258156E+04</pdfrwt>
<pdfrwt beam="2">  1       -2 0.36563754E+00 0.15258156E+04</pdfrwt>
<totfact> 0.18833522E-01</totfact>
</mgrwt>
</event>
<event>
 4    5  0.1112901E-007  0.1136385E+04  0.7818608E-02  0.9221588E-01
          2   -1    0    0  501    0  0.00000000000E+00  0.00000000000E+00  0.12754562210E+04  0.12754562210E+04  0.25500000000E-02 0. -1.
         -2   -1    0    0    0  501 -0.00000000000E+00 -0.00000000000E+00 -0.13688800768E+04  0.13688800768E+04  0.25500000000E-02 0.  1.
    8880023    1    1    2    0    0  0.73898615789E+03  0.55808514169E+03 -0.86594222649E+03  0.14287147066E+04  0.65864270000E+03 0.  0.
    8880022    1    1    2    0    0 -0.73898615789E+03 -0.55808514169E+03  0.77251837073E+03  0.12156215912E+04  0.15294330000E+03 0.  0.
<mgrwt>
<rscale>  0 0.10833355E+04</rscale>
<asrwt>0</asrwt>
<pdfrwt beam="1">  1        2 0.19622403E+00 0.11363845E+04</pdfrwt>
<pdfrwt beam="2">  1       -2 0.21059693E+00 0.11363845E+04</pdfrwt>
<totfact> 0.18955922E+00</totfact>
</mgrwt>
</event>
<event>
 4    5  0.1112901E-007  0.6938936E+03  0.7818608E-02  0.1002354E+00
          2   -1    0    0  501    0  0.00000000000E+00  0.00000000000E+00  0.20065351855E+04  0.20065351855E+04  0.25500000000E-02 0. -1.
         -2   -1    0    0    0  501 -0.00000000000E+00 -0.00000000000E+00 -0.12416918479E+03  0.12416918481E+03  0.25500000000E-02 0.  1.
    8880023    1    1    2    0    0 -0.74454509611E+02 -0.20526727231E+03  0.15912715218E+04  0.17359819670E+04  0.65864270000E+03 0. -1.
    8880022    1    1    2    0    0  0.74454509611E+02  0.20526727231E+03  0.29109447890E+03  0.39472240340E+03  0.15294330000E+03 0.  0.
<mgrwt>
<rscale>  0 0.54629885E+03</rscale>
<asrwt>0</asrwt>
<pdfrwt beam="1">  1        2 0.30869769E+00 0.69389360E+03</pdfrwt>
<pdfrwt beam="2">  1       -2 0.19102954E-01 0.69389360E+03</pdfrwt>
<totfact> 0.15787043E+02</totfact>
</mgrwt>
</event>
<event>
 4    5  0.1112901E-007  0.7024776E+03  0.7818608E-02  0.9987074E-01
          2   -1    0    0  501    0  0.00000000000E+00  0.00000000000E+00  0.25141992117E+03  0.25141992119E+03  0.25500000000E-02 0. -1.
         -2   -1    0    0    0  501 -0.00000000000E+00 -0.00000000000E+00 -0.17547395376E+04  0.17547395376E+04  0.25500000000E-02 0.  1.
    8880023    1    1    2    0    0  0.20308829934E+03 -0.13571921577E+03 -0.15614218097E+04  0.17121661242E+04  0.65864270000E+03 0.  1.
    8880022    1    1    2    0    0 -0.20308829934E+03  0.13571921577E+03  0.58102193323E+02  0.29399333452E+03  0.15294330000E+03 0.  0.
<mgrwt>
<rscale>  0 0.56220652E+03</rscale>
<asrwt>0</asrwt>
<pdfrwt beam="1">  1        2 0.38679989E-01 0.70247759E+03</pdfrwt>
<pdfrwt beam="2">  1       -2 0.26995992E+00 0.70247759E+03</pdfrwt>
<totfact> 0.67265519E+00</totfact>
</mgrwt>
</event>
<event>
 4    5  0.1112901E-007  0.6881764E+03  0.7818608E-02  0.1005032E+00
         -2   -1    0    0    0  501 -0.00000000000E+00  0.00000000000E+00  0.10076382272E+04  0.10076382272E+04  0.25500000000E-02 0.  1.
          2   -1    0    0  501    0  0.00000000000E+00 -0.00000000000E+00 -0.14436815969E+04  0.14436815969E+04  0.25500000000E-02 0. -1.
    8880023    1    1    2    0    0  0.57117582250E+02  0.19108666319E+03  0.87681180730E+03  0.11146235610E+04  0.65864270000E+03 0.  1.
    8880022    1    1    2    0    0 -0.57117582250E+02 -0.19108666319E+03 -0.13128551770E+04  0.13366962631E+04  0.15294330000E+03 0.  0.
<mgrwt>
<rscale>  0 0.53497948E+03</rscale>
<asrwt>0</asrwt>
<pdfrwt beam="1">  1        2 0.22210486E+00 0.68817639E+03</pdfrwt>
<pdfrwt beam="2">  1       -2 0.15502127E+00 0.68817639E+03</pdfrwt>
<totfact> 0.38853410E+00</totfact>
</mgrwt>
</event>
<event>
 4    5  0.1112901E-007  0.9248289E+03  0.7818608E-02  0.9487294E-01
          2   -1    0    0  501    0  0.00000000000E+00  0.00000000000E+00  0.27803498968E+04  0.27803498968E+04  0.25500000000E-02 0. -1.
         -2   -1    0    0    0  501 -0.00000000000E+00 -0.00000000000E+00 -0.44630173026E+03  0.44630173027E+03  0.25500000000E-02 0.  1.
    8880023    1    1    2    0    0 -0.56063231828E+03 -0.32739846852E+03  0.14236723703E+03  0.93572270996E+03  0.65864270000E+03 0.  0.
    8880022    1    1    2    0    0  0.56063231828E+03  0.32739846852E+03  0.21916809295E+04  0.22909289171E+04  0.15294330000E+03 0.  0.
<mgrwt>
<rscale>  0 0.85227086E+03</rscale>
<asrwt>0</asrwt>
<pdfrwt beam="1">  1        2 0.42774613E+00 0.92482894E+03</pdfrwt>
<pdfrwt beam="2">  1       -2 0.68661806E-01 0.92482894E+03</pdfrwt>
<totfact> 0.47373599E+00</totfact>
</mgrwt>
</event>
<event>
 4    5  0.1112901E-007  0.1454893E+04  0.7818608E-02  0.8942162E-01
          2   -1    0    0  501    0  0.00000000000E+00  0.00000000000E+00  0.17628453484E+04  0.17628453484E+04  0.25500000000E-02 0. -1.
         -2   -1    0    0    0  501 -0.00000000000E+00 -0.00000000000E+00 -0.19025532676E+04  0.19025532676E+04  0.25500000000E-02 0.  1.
    8880023    1    1    2    0    0 -0.11850262418E+04 -0.52784069626E+03 -0.12751722974E+04  0.19346259557E+04  0.65864270000E+03 0.  0.
    8880022    1    1    2    0    0  0.11850262418E+04  0.52784069626E+03  0.11354643782E+04  0.17307726603E+04  0.15294330000E+03 0.  0.
<mgrwt>
<rscale>  0 0.14162177E+04</rscale>
<asrwt>0</asrwt>
<pdfrwt beam="1">  1        2 0.27120698E+00 0.14548928E+04</pdfrwt>
<pdfrwt beam="2">  1       -2 0.29270050E+00 0.14548928E+04</pdfrwt>
<totfact> 0.30079653E-01</totfact>
</mgrwt>
</event>
<event>
 4    5  0.1112901E-007  0.7700768E+03  0.7818608E-02  0.9779685E-01
         -2   -1    0    0    0  501 -0.00000000000E+00  0.00000000000E+00  0.59704278889E+03  0.59704278889E+03  0.25500000000E-02 0.  1.
          2   -1    0    0  501    0  0.00000000000E+00 -0.00000000000E+00 -0.17415136278E+04  0.17415136278E+04  0.25500000000E-02 0. -1.
    8880023    1    1    2    0    0 -0.39183522811E+03  0.75320790501E+02  0.30434597227E+03  0.82803668069E+03  0.65864270000E+03 0.  1.
    8880022    1    1    2    0    0  0.39183522811E+03 -0.75320790501E+02 -0.14488168112E+04  0.15105197360E+04  0.15294330000E+03 0.  0.
<mgrwt>
<rscale>  0 0.66464240E+03</rscale>
<asrwt>0</asrwt>
<pdfrwt beam="1">  1        2 0.26792517E+00 0.77007680E+03</pdfrwt>
<pdfrwt beam="2">  1       -2 0.91852737E-01 0.77007680E+03</pdfrwt>
<totfact> 0.96238543E+00</totfact>
</mgrwt>
</event>
<event>
 4    5  0.1112901E-007  0.6895961E+03  0.7818608E-02  0.1004345E+00
          2   -1    0    0  501    0  0.00000000000E+00  0.00000000000E+00  0.19767564422E+04  0.19767564422E+04  0.25500000000E-02 0. -1.
         -2   -1    0    0    0  501 -0.00000000000E+00 -0.00000000000E+00 -0.20883372587E+03  0.20883372589E+03  0.25500000000E-02 0.  1.
    8880023    1    1    2    0    0 -0.14461088010E+03  0.14429224207E+03  0.40657210495E+03  0.80052710170E+03  0.65864270000E+03 0.  0.
    8880022    1    1    2    0    0  0.14461088010E+03 -0.14429224207E+03  0.13613506114E+04  0.13850630664E+04  0.15294330000E+03 0.  0.
<mgrwt>
<rscale>  0 0.53785338E+03</rscale>
<asrwt>0</asrwt>
<pdfrwt beam="1">  1        2 0.30411639E+00 0.68959609E+03</pdfrwt>
<pdfrwt beam="2">  1       -2 0.32128264E-01 0.68959609E+03</pdfrwt>
<totfact> 0.64250626E+01</totfact>
</mgrwt>
</event>
<event>
 4    5  0.1112901E-007  0.1671625E+04  0.7818608E-02  0.8797084E-01
         -2   -1    0    0    0  501 -0.00000000000E+00  0.00000000000E+00  0.17822094722E+04  0.17822094722E+04  0.25500000000E-02 0.  1.
          2   -1    0    0  501    0  0.00000000000E+00 -0.00000000000E+00 -0.24397810939E+04  0.24397810939E+04  0.25500000000E-02 0. -1.
    8880023    1    1    2    0    0 -0.24344401439E+03  0.15169890600E+04  0.10070676938E+04  0.19515420421E+04  0.65864270000E+03 0.  1.
    8880022    1    1    2    0    0  0.24344401439E+03 -0.15169890600E+04 -0.16646393155E+04  0.22704485239E+04  0.15294330000E+03 0.  0.
<mgrwt>
<rscale>  0 0.16387605E+04</rscale>
<asrwt>0</asrwt>
<pdfrwt beam="1">  1        2 0.37535094E+00 0.16716253E+04</pdfrwt>
<pdfrwt beam="2">  1       -2 0.27418607E+00 0.16716253E+04</pdfrwt>
<totfact> 0.15835509E-01</totfact>
</mgrwt>
</event>
<event>
 4    5  0.1112901E-007  0.7075994E+03  0.7818608E-02  0.9967026E-01
         -2   -1    0    0    0  501 -0.00000000000E+00  0.00000000000E+00  0.66440966964E+03  0.66440966964E+03  0.25500000000E-02 0.  1.
          2   -1    0    0  501    0  0.00000000000E+00 -0.00000000000E+00 -0.10741005836E+04  0.10741005836E+04  0.25500000000E-02 0. -1.
    8880023    1    1    2    0    0 -0.17867785160E+03  0.18697856631E+03  0.44272694012E+03  0.83468803075E+03  0.65864270000E+03 0.  1.
    8880022    1    1    2    0    0  0.17867785160E+03 -0.18697856631E+03 -0.85241785405E+03  0.90382222247E+03  0.15294330000E+03 0.  0.
<mgrwt>
<rscale>  0 0.57120053E+03</rscale>
<asrwt>0</asrwt>
<pdfrwt beam="1">  1        2 0.16524624E+00 0.70759944E+03</pdfrwt>
<pdfrwt beam="2">  1       -2 0.10221687E+00 0.70759944E+03</pdfrwt>
<totfact> 0.18120259E+01</totfact>
</mgrwt>
</event>
<event>
 4    5  0.1112901E-007  0.9766550E+03  0.7818608E-02  0.9412758E-01
          2   -1    0    0  501    0  0.00000000000E+00  0.00000000000E+00  0.17820748312E+04  0.17820748312E+04  0.25500000000E-02 0. -1.
         -2   -1    0    0    0  501 -0.00000000000E+00 -0.00000000000E+00 -0.19675004671E+04  0.19675004671E+04  0.25500000000E-02 0.  1.
    8880023    1    1    2    0    0  0.59050484457E+03  0.41394294375E+03  0.15681117766E+04  0.18473844977E+04  0.65864270000E+03 0. -1.
    8880022    1    1    2    0    0 -0.59050484457E+03 -0.41394294375E+03 -0.17535374125E+04  0.19021908006E+04  0.15294330000E+03 0.  0.
<mgrwt>
<rscale>  0 0.91033128E+03</rscale>
<asrwt>0</asrwt>
<pdfrwt beam="1">  1        2 0.27416536E+00 0.97665497E+03</pdfrwt>
<pdfrwt beam="2">  1       -2 0.30269238E+00 0.97665497E+03</pdfrwt>
<totfact> 0.27352153E-01</totfact>
</mgrwt>
</event>
<event>
 4    5  0.1112901E-007  0.7398884E+03  0.7818608E-02  0.9860272E-01
          2   -1    0    0  501    0  0.00000000000E+00  0.00000000000E+00  0.15491384081E+04  0.15491384081E+04  0.25500000000E-02 0. -1.
         -2   -1    0    0    0  501 -0.00000000000E+00 -0.00000000000E+00 -0.22559014649E+04  0.22559014649E+04  0.25500000000E-02 0.  1.
    8880023    1    1    2    0    0  0.11061681642E+03  0.31841575493E+03 -0.21715863683E+04  0.22941713612E+04  0.65864270000E+03 0.  1.
    8880022    1    1    2    0    0 -0.11061681642E+03 -0.31841575493E+03  0.14648233116E+04  0.15108685119E+04  0.15294330000E+03 0.  0.
<mgrwt>
<rscale>  0 0.62225904E+03</rscale>
<asrwt>0</asrwt>
<pdfrwt beam="1">  1        2 0.23832899E+00 0.73988842E+03</pdfrwt>
<pdfrwt beam="2">  1       -2 0.34706176E+00 0.73988842E+03</pdfrwt>
<totfact> 0.20698941E-01</totfact>
</mgrwt>
</event>
<event>
 4    5  0.1112901E-007  0.1034646E+04  0.7818608E-02  0.9337570E-01
         -2   -1    0    0    0  501 -0.00000000000E+00  0.00000000000E+00  0.89524983430E+03  0.89524983431E+03  0.25500000000E-02 0.  1.
          2   -1    0    0  501    0  0.00000000000E+00 -0.00000000000E+00 -0.10600311148E+04  0.10600311148E+04  0.25500000000E-02 0. -1.
    8880023    1    1    2    0    0  0.77183091844E+03 -0.20238502736E+03  0.21770096644E+03  0.10573015573E+04  0.65864270000E+03 0.  0.
    8880022    1    1    2    0    0 -0.77183091844E+03  0.20238502736E+03 -0.38248224695E+03  0.89797939186E+03  0.15294330000E+03 0.  0.
<mgrwt>
<rscale>  0 0.97396426E+03</rscale>
<asrwt>0</asrwt>
<pdfrwt beam="1">  1        2 0.16308171E+00 0.10346463E+04</pdfrwt>
<pdfrwt beam="2">  1       -2 0.13773074E+00 0.10346463E+04</pdfrwt>
<totfact> 0.85456010E+00</totfact>
</mgrwt>
</event>
<event>
 4    5  0.1112901E-007  0.9055752E+03  0.7818608E-02  0.9517140E-01
         -2   -1    0    0    0  501 -0.00000000000E+00  0.00000000000E+00  0.62660097413E+03  0.62660097414E+03  0.25500000000E-02 0.  1.
          2   -1    0    0  501    0  0.00000000000E+00 -0.00000000000E+00 -0.21130226081E+04  0.21130226081E+04  0.25500000000E-02 0. -1.
    8880023    1    1    2    0    0  0.24947342476E+03 -0.56922692993E+03  0.20730457951E+03  0.92900036726E+03  0.65864270000E+03 0.  0.
    8880022    1    1    2    0    0 -0.24947342476E+03  0.56922692993E+03 -0.16937262135E+04  0.18106232150E+04  0.15294330000E+03 0.  0.
<mgrwt>
<rscale>  0 0.83031856E+03</rscale>
<asrwt>0</asrwt>
<pdfrwt beam="1">  1        2 0.32508040E+00 0.90557523E+03</pdfrwt>
<pdfrwt beam="2">  1       -2 0.96400151E-01 0.90557523E+03</pdfrwt>
<totfact> 0.52804478E+00</totfact>
</mgrwt>
</event>
<event>
 4    5  0.1112901E-007  0.8277653E+03  0.7818608E-02  0.9653696E-01
         -2   -1    0    0    0  501 -0.00000000000E+00  0.00000000000E+00  0.16461510980E+04  0.16461510980E+04  0.25500000000E-02 0.  1.
          2   -1    0    0  501    0  0.00000000000E+00 -0.00000000000E+00 -0.17338369392E+04  0.17338369392E+04  0.25500000000E-02 0. -1.
    8880023    1    1    2    0    0 -0.49614382454E+03  0.72294254060E+02  0.14971312785E+04  0.17107300854E+04  0.65864270000E+03 0.  1.
    8880022    1    1    2    0    0  0.49614382454E+03 -0.72294254060E+02 -0.15848171196E+04  0.16692579518E+04  0.15294330000E+03 0.  0.
<mgrwt>
<rscale>  0 0.73841909E+03</rscale>
<asrwt>0</asrwt>
<pdfrwt beam="1">  1        2 0.26674415E+00 0.82776528E+03</pdfrwt>
<pdfrwt beam="2">  1       -2 0.25325401E+00 0.82776528E+03</pdfrwt>
<totfact> 0.59443431E-01</totfact>
</mgrwt>
</event>
<event>
 4    5  0.1112901E-007  0.8636640E+03  0.7818608E-02  0.9587079E-01
          2   -1    0    0  501    0  0.00000000000E+00  0.00000000000E+00  0.34059600486E+04  0.34059600486E+04  0.25500000000E-02 0. -1.
         -2   -1    0    0    0  501 -0.00000000000E+00 -0.00000000000E+00 -0.54796100302E+03  0.54796100303E+03  0.25500000000E-02 0.  1.
    8880023    1    1    2    0    0  0.73910458585E+02 -0.55375318156E+03 -0.16213001681E+03  0.87875007288E+03  0.65864270000E+03 0.  0.
    8880022    1    1    2    0    0 -0.73910458585E+02  0.55375318156E+03  0.30201290624E+04  0.30751709788E+04  0.15294330000E+03 0.  0.
<mgrwt>
<rscale>  0 0.78157328E+03</rscale>
<asrwt>0</asrwt>
<pdfrwt beam="1">  1        2 0.52399386E+00 0.86366403E+03</pdfrwt>
<pdfrwt beam="2">  1       -2 0.84301692E-01 0.86366403E+03</pdfrwt>
<totfact> 0.12268614E+00</totfact>
</mgrwt>
</event>
<event>
 4    5  0.1112901E-007  0.8388895E+03  0.7818608E-02  0.9632278E-01
         -2   -1    0    0    0  501 -0.00000000000E+00  0.00000000000E+00  0.47117714250E+03  0.47117714250E+03  0.25500000000E-02 0.  1.
          2   -1    0    0  501    0  0.00000000000E+00 -0.00000000000E+00 -0.21163989698E+04  0.21163989698E+04  0.25500000000E-02 0. -1.
    8880023    1    1    2    0    0  0.10905967296E+03 -0.50796786558E+03  0.17295670127E+02  0.83906776317E+03  0.65864270000E+03 0.  0.
    8880022    1    1    2    0    0 -0.10905967296E+03  0.50796786558E+03 -0.16625174975E+04  0.17485083492E+04  0.15294330000E+03 0.  0.
<mgrwt>
<rscale>  0 0.75196170E+03</rscale>
<asrwt>0</asrwt>
<pdfrwt beam="1">  1        2 0.32559984E+00 0.83888949E+03</pdfrwt>
<pdfrwt beam="2">  1       -2 0.72488792E-01 0.83888949E+03</pdfrwt>
<totfact> 0.10151267E+01</totfact>
</mgrwt>
</event>
<event>
 4    5  0.1112901E-007  0.6697943E+03  0.7818608E-02  0.1015811E+00
         -2   -1    0    0    0  501 -0.00000000000E+00  0.00000000000E+00  0.18946799193E+03  0.18946799195E+03  0.25500000000E-02 0.  1.
          2   -1    0    0  501    0  0.00000000000E+00 -0.00000000000E+00 -0.21813808176E+04  0.21813808176E+04  0.25500000000E-02 0. -1.
    8880023    1    1    2    0    0 -0.10183950044E+03 -0.66655314031E+02 -0.42821001916E+03  0.79497688112E+03  0.65864270000E+03 0.  1.
    8880022    1    1    2    0    0  0.10183950044E+03  0.66655314031E+02 -0.15637028065E+04  0.15758719284E+04  0.15294330000E+03 0.  0.
<mgrwt>
<rscale>  0 0.49229151E+03</rscale>
<asrwt>0</asrwt>
<pdfrwt beam="1">  1        2 0.33559703E+00 0.66979431E+03</pdfrwt>
<pdfrwt beam="2">  1       -2 0.29148923E-01 0.66979431E+03</pdfrwt>
<totfact> 0.59687796E+01</totfact>
</mgrwt>
</event>
<event>
 4    5  0.1112901E-007  0.7239574E+03  0.7818608E-02  0.9909416E-01
          2   -1    0    0  501    0  0.00000000000E+00  0.00000000000E+00  0.18037022254E+04  0.18037022254E+04  0.25500000000E-02 0. -1.
         -2   -1    0    0    0  501 -0.00000000000E+00 -0.00000000000E+00 -0.47190262404E+03  0.47190262404E+03  0.25500000000E-02 0.  1.
    8880023    1    1    2    0    0  0.29915414894E+03 -0.28476288225E+02 -0.16397532056E+03  0.74229523495E+03  0.65864270000E+03 0.  1.
    8880022    1    1    2    0    0 -0.29915414894E+03  0.28476288225E+02  0.14957749219E+04  0.15333096145E+04  0.15294330000E+03 0.  0.
<mgrwt>
<rscale>  0 0.59807106E+03</rscale>
<asrwt>0</asrwt>
<pdfrwt beam="1">  1        2 0.27749265E+00 0.72395740E+03</pdfrwt>
<pdfrwt beam="2">  1       -2 0.72600403E-01 0.72395740E+03</pdfrwt>
<totfact> 0.15238287E+01</totfact>
</mgrwt>
</event>
<event>
 4    5  0.1112901E-007  0.7214582E+03  0.7818608E-02  0.9917682E-01
         -2   -1    0    0    0  501 -0.00000000000E+00  0.00000000000E+00  0.92866683852E+03  0.92866683852E+03  0.25500000000E-02 0.  1.
          2   -1    0    0  501    0  0.00000000000E+00 -0.00000000000E+00 -0.88394873224E+03  0.88394873224E+03  0.25500000000E-02 0. -1.
    8880023    1    1    2    0    0 -0.23566962977E+03 -0.17649816020E+03  0.74539091496E+03  0.10373570250E+04  0.65864270000E+03 0.  1.
    8880022    1    1    2    0    0  0.23566962977E+03  0.17649816020E+03 -0.70067280868E+03  0.77525854577E+03  0.15294330000E+03 0.  0.
<mgrwt>
<rscale>  0 0.59411927E+03</rscale>
<asrwt>0</asrwt>
<pdfrwt beam="1">  1        2 0.13599211E+00 0.72145823E+03</pdfrwt>
<pdfrwt beam="2">  1       -2 0.14287182E+00 0.72145823E+03</pdfrwt>
<totfact> 0.10446956E+01</totfact>
</mgrwt>
</event>
<event>
 4    5  0.1112901E-007  0.1164600E+04  0.7818608E-02  0.9192326E-01
          2   -1    0    0  501    0  0.00000000000E+00  0.00000000000E+00  0.25321326951E+04  0.25321326951E+04  0.25500000000E-02 0. -1.
         -2   -1    0    0    0  501 -0.00000000000E+00 -0.00000000000E+00 -0.85328040962E+03  0.85328040963E+03  0.25500000000E-02 0.  1.
    8880023    1    1    2    0    0  0.42329786374E+03  0.86214923278E+03 -0.28055315914E+03  0.11979159663E+04  0.65864270000E+03 0.  0.
    8880022    1    1    2    0    0 -0.42329786374E+03 -0.86214923278E+03  0.19594054446E+04  0.21874971384E+04  0.15294330000E+03 0.  0.
<mgrwt>
<rscale>  0 0.11132987E+04</rscale>
<asrwt>0</asrwt>
<pdfrwt beam="1">  1        2 0.38955887E+00 0.11645998E+04</pdfrwt>
<pdfrwt beam="2">  1       -2 0.13127391E+00 0.11645998E+04</pdfrwt>
<totfact> 0.13906162E+00</totfact>
</mgrwt>
</event>
<event>
 4    5  0.1112901E-007  0.1217987E+04  0.7818608E-02  0.9139833E-01
         -2   -1    0    0    0  501 -0.00000000000E+00  0.00000000000E+00  0.89582078188E+03  0.89582078189E+03  0.25500000000E-02 0.  1.
          2   -1    0    0  501    0  0.00000000000E+00 -0.00000000000E+00 -0.17397023231E+04  0.17397023231E+04  0.25500000000E-02 0. -1.
    8880023    1    1    2    0    0 -0.40972429454E+03  0.93904661801E+03  0.11571032351E+03  0.12234711413E+04  0.65864270000E+03 0.  0.
    8880022    1    1    2    0    0  0.40972429454E+03 -0.93904661801E+03 -0.95959186472E+03  0.14120519637E+04  0.15294330000E+03 0.  0.
<mgrwt>
<rscale>  0 0.11696630E+04</rscale>
<asrwt>0</asrwt>
<pdfrwt beam="1">  1        2 0.26764651E+00 0.12179872E+04</pdfrwt>
<pdfrwt beam="2">  1       -2 0.13781858E+00 0.12179872E+04</pdfrwt>
<totfact> 0.33875997E+00</totfact>
</mgrwt>
</event>
<event>
 4    5  0.1112901E-007  0.6672436E+03  0.7818608E-02  0.1017721E+00
          2   -1    0    0  501    0  0.00000000000E+00  0.00000000000E+00  0.12847582451E+04  0.12847582451E+04  0.25500000000E-02 0. -1.
         -2   -1    0    0    0  501 -0.00000000000E+00 -0.00000000000E+00 -0.74267410071E+03  0.74267410072E+03  0.25500000000E-02 0.  1.
    8880023    1    1    2    0    0 -0.66276230048E+02 -0.83733262648E+02 -0.58356494611E+03  0.88643220301E+03  0.65864270000E+03 0.  1.
    8880022    1    1    2    0    0  0.66276230048E+02  0.83733262648E+02  0.11256490905E+04  0.11410001428E+04  0.15294330000E+03 0.  0.
<mgrwt>
<rscale>  0 0.48518081E+03</rscale>
<asrwt>0</asrwt>
<pdfrwt beam="1">  1        2 0.19765511E+00 0.66724359E+03</pdfrwt>
<pdfrwt beam="2">  1       -2 0.11425756E+00 0.66724359E+03</pdfrwt>
<totfact> 0.10438004E+01</totfact>
</mgrwt>
</event>
<event>
 4    5  0.1112901E-007  0.7112854E+03  0.7818608E-02  0.9953258E-01
          2   -1    0    0  501    0  0.00000000000E+00  0.00000000000E+00  0.30408489534E+04  0.30408489534E+04  0.25500000000E-02 0. -1.
         -2   -1    0    0    0  501 -0.00000000000E+00 -0.00000000000E+00 -0.19567270338E+03  0.19567270340E+03  0.25500000000E-02 0.  1.
    8880023    1    1    2    0    0 -0.20261538642E+03  0.17624921622E+03  0.49609995878E+03  0.86720364183E+03  0.65864270000E+03 0.  1.
    8880022    1    1    2    0    0  0.20261538642E+03 -0.17624921622E+03  0.23490762912E+04  0.23693180150E+04  0.15294330000E+03 0.  0.
<mgrwt>
<rscale>  0 0.57748161E+03</rscale>
<asrwt>0</asrwt>
<pdfrwt beam="1">  1        2 0.46782290E+00 0.71128545E+03</pdfrwt>
<pdfrwt beam="2">  1       -2 0.30103494E-01 0.71128545E+03</pdfrwt>
<totfact> 0.17856224E+01</totfact>
</mgrwt>
</event>
<event>
 4    5  0.1112901E-007  0.9225498E+03  0.7818608E-02  0.9490760E-01
         -2   -1    0    0    0  501 -0.00000000000E+00  0.00000000000E+00  0.40202385595E+03  0.40202385596E+03  0.25500000000E-02 0.  1.
          2   -1    0    0  501    0  0.00000000000E+00 -0.00000000000E+00 -0.27552682786E+04  0.27552682786E+04  0.25500000000E-02 0. -1.
    8880023    1    1    2    0    0 -0.64528478385E+03  0.29923928727E+02 -0.25587833034E+03  0.95737757441E+03  0.65864270000E+03 0.  1.
    8880022    1    1    2    0    0  0.64528478385E+03 -0.29923928727E+02 -0.20973660923E+04  0.21999145601E+04  0.15294330000E+03 0.  0.
<mgrwt>
<rscale>  0 0.84968455E+03</rscale>
<asrwt>0</asrwt>
<pdfrwt beam="1">  1        2 0.42388742E+00 0.92254978E+03</pdfrwt>
<pdfrwt beam="2">  1       -2 0.61849826E-01 0.92254978E+03</pdfrwt>
<totfact> 0.61425156E+00</totfact>
</mgrwt>
</event>
<event>
 4    5  0.1112901E-007  0.6882057E+03  0.7818608E-02  0.1005017E+00
         -2   -1    0    0    0  501 -0.00000000000E+00  0.00000000000E+00  0.45674549720E+03  0.45674549721E+03  0.25500000000E-02 0.  1.
          2   -1    0    0  501    0  0.00000000000E+00 -0.00000000000E+00 -0.12451147473E+04  0.12451147473E+04  0.25500000000E-02 0. -1.
    8880023    1    1    2    0    0 -0.19844997584E+03  0.20844554499E+02  0.17179673113E+03  0.70932447544E+03  0.65864270000E+03 0.  1.
    8880022    1    1    2    0    0  0.19844997584E+03 -0.20844554499E+02 -0.96016598123E+03  0.99253576907E+03  0.15294330000E+03 0.  0.
<mgrwt>
<rscale>  0 0.53503929E+03</rscale>
<asrwt>0</asrwt>
<pdfrwt beam="1">  1        2 0.19155611E+00 0.68820571E+03</pdfrwt>
<pdfrwt beam="2">  1       -2 0.70268539E-01 0.68820571E+03</pdfrwt>
<totfact> 0.33675906E+01</totfact>
</mgrwt>
</event>
<event>
 4    5  0.1112901E-007  0.7045519E+03  0.7818608E-02  0.9978817E-01
         -2   -1    0    0    0  501 -0.00000000000E+00  0.00000000000E+00  0.32278251126E+03  0.32278251127E+03  0.25500000000E-02 0.  1.
          2   -1    0    0  501    0  0.00000000000E+00 -0.00000000000E+00 -0.18351684085E+04  0.18351684086E+04  0.25500000000E-02 0. -1.
    8880023    1    1    2    0    0 -0.24399490892E+03  0.55223603959E+02 -0.95442121774E+02  0.71098703707E+03  0.65864270000E+03 0.  1.
    8880022    1    1    2    0    0  0.24399490892E+03 -0.55223603959E+02 -0.14169437755E+04  0.14469638828E+04  0.15294330000E+03 0.  0.
<mgrwt>
<rscale>  0 0.56588886E+03</rscale>
<asrwt>0</asrwt>
<pdfrwt beam="1">  1        2 0.28233359E+00 0.70455189E+03</pdfrwt>
<pdfrwt beam="2">  1       -2 0.49658849E-01 0.70455189E+03</pdfrwt>
<totfact> 0.32764458E+01</totfact>
</mgrwt>
</event>
<event>
 4    5  0.1112901E-007  0.7449378E+03  0.7818608E-02  0.9845790E-01
          2   -1    0    0  501    0  0.00000000000E+00  0.00000000000E+00  0.16288106812E+04  0.16288106812E+04  0.25500000000E-02 0. -1.
         -2   -1    0    0    0  501 -0.00000000000E+00 -0.00000000000E+00 -0.25081673376E+03  0.25081673378E+03  0.25500000000E-02 0.  1.
    8880023    1    1    2    0    0 -0.24213763544E+02  0.34718277521E+03  0.43441873241E+03  0.86235261180E+03  0.65864270000E+03 0.  1.
    8880022    1    1    2    0    0  0.24213763544E+02 -0.34718277521E+03  0.94357521507E+03  0.10172748032E+04  0.15294330000E+03 0.  0.
<mgrwt>
<rscale>  0 0.62962028E+03</rscale>
<asrwt>0</asrwt>
<pdfrwt beam="1">  1        2 0.25058626E+00 0.74493784E+03</pdfrwt>
<pdfrwt beam="2">  1       -2 0.38587189E-01 0.74493784E+03</pdfrwt>
<totfact> 0.69713091E+01</totfact>
</mgrwt>
</event>
<event>
 4    5  0.1112901E-007  0.9323682E+03  0.7818608E-02  0.9475950E-01
         -2   -1    0    0    0  501 -0.00000000000E+00  0.00000000000E+00  0.12041100292E+04  0.12041100292E+04  0.25500000000E-02 0.  1.
          2   -1    0    0  501    0  0.00000000000E+00 -0.00000000000E+00 -0.97465657315E+03  0.97465657316E+03  0.25500000000E-02 0. -1.
    8880023    1    1    2    0    0 -0.43834962758E+03 -0.49330505906E+03  0.84882730118E+03  0.12608799589E+04  0.65864270000E+03 0.  0.
    8880022    1    1    2    0    0  0.43834962758E+03  0.49330505906E+03 -0.61937384509E+03  0.91788664349E+03  0.15294330000E+03 0.  0.
<mgrwt>
<rscale>  0 0.86080424E+03</rscale>
<asrwt>0</asrwt>
<pdfrwt beam="1">  1        2 0.14994717E+00 0.93236821E+03</pdfrwt>
<pdfrwt beam="2">  1       -2 0.18524770E+00 0.93236821E+03</pdfrwt>
<totfact> 0.43606256E+00</totfact>
</mgrwt>
</event>
<event>
 4    5  0.1112901E-007  0.1148355E+04  0.7818608E-02  0.9209037E-01
          2   -1    0    0  501    0  0.00000000000E+00  0.00000000000E+00  0.22681252177E+04  0.22681252177E+04  0.25500000000E-02 0. -1.
         -2   -1    0    0    0  501 -0.00000000000E+00 -0.00000000000E+00 -0.69838550975E+03  0.69838550975E+03  0.25500000000E-02 0.  1.
    8880023    1    1    2    0    0  0.49540305683E+03  0.79967760701E+03  0.16497911762E+04  0.20101068617E+04  0.65864270000E+03 0.  0.
    8880022    1    1    2    0    0 -0.49540305683E+03 -0.79967760701E+03 -0.80051468302E+02  0.95640386577E+03  0.15294330000E+03 0.  0.
<mgrwt>
<rscale>  0 0.10960635E+04</rscale>
<asrwt>0</asrwt>
<pdfrwt beam="1">  1        2 0.34894234E+00 0.11483548E+04</pdfrwt>
<pdfrwt beam="2">  1       -2 0.10744393E+00 0.11483548E+04</pdfrwt>
<totfact> 0.32397986E+00</totfact>
</mgrwt>
</event>
<event>
 4    5  0.1112901E-007  0.6784249E+03  0.7818608E-02  0.1010229E+00
          2   -1    0    0  501    0  0.00000000000E+00  0.00000000000E+00  0.22398958808E+04  0.22398958808E+04  0.25500000000E-02 0. -1.
         -2   -1    0    0    0  501 -0.00000000000E+00 -0.00000000000E+00 -0.33748823098E+03  0.33748823099E+03  0.25500000000E-02 0.  1.
    8880023    1    1    2    0    0  0.15425261945E+03  0.51538757396E+02  0.16827648094E+02  0.67863354627E+03  0.65864270000E+03 0.  1.
    8880022    1    1    2    0    0 -0.15425261945E+03 -0.51538757396E+02  0.18855800018E+04  0.18987505655E+04  0.15294330000E+03 0.  0.
<mgrwt>
<rscale>  0 0.51383716E+03</rscale>
<asrwt>0</asrwt>
<pdfrwt beam="1">  1        2 0.34459937E+00 0.67842488E+03</pdfrwt>
<pdfrwt beam="2">  1       -2 0.51921266E-01 0.67842488E+03</pdfrwt>
<totfact> 0.18059613E+01</totfact>
</mgrwt>
</event>
<event>
 4    5  0.1112901E-007  0.7039620E+03  0.7818608E-02  0.9981146E-01
         -2   -1    0    0    0  501 -0.00000000000E+00  0.00000000000E+00  0.11945838487E+04  0.11945838487E+04  0.25500000000E-02 0.  1.
          2   -1    0    0  501    0  0.00000000000E+00 -0.00000000000E+00 -0.20572816851E+04  0.20572816851E+04  0.25500000000E-02 0. -1.
    8880023    1    1    2    0    0  0.22158845670E+03 -0.11247574112E+03  0.10790171925E+04  0.12883479904E+04  0.65864270000E+03 0.  1.
    8880022    1    1    2    0    0 -0.22158845670E+03  0.11247574112E+03 -0.19417150289E+04  0.19635175434E+04  0.15294330000E+03 0.  0.
<mgrwt>
<rscale>  0 0.56484733E+03</rscale>
<asrwt>0</asrwt>
<pdfrwt beam="1">  1        2 0.31650488E+00 0.70396196E+03</pdfrwt>
<pdfrwt beam="2">  1       -2 0.18378213E+00 0.70396196E+03</pdfrwt>
<totfact> 0.11164562E+00</totfact>
</mgrwt>
</event>
<event>
 4    5  0.1112901E-007  0.7698451E+03  0.7818608E-02  0.9780255E-01
         -2   -1    0    0    0  501 -0.00000000000E+00  0.00000000000E+00  0.15131260754E+04  0.15131260754E+04  0.25500000000E-02 0.  1.
          2   -1    0    0  501    0  0.00000000000E+00 -0.00000000000E+00 -0.44186912190E+03  0.44186912190E+03  0.25500000000E-02 0. -1.
    8880023    1    1    2    0    0  0.26744585735E+03 -0.29550628444E+03  0.12692066547E+04  0.14844349057E+04  0.65864270000E+03 0.  1.
    8880022    1    1    2    0    0 -0.26744585735E+03  0.29550628444E+03 -0.19794970122E+03  0.47056029155E+03  0.15294330000E+03 0.  0.
<mgrwt>
<rscale>  0 0.66432995E+03</rscale>
<asrwt>0</asrwt>
<pdfrwt beam="1">  1        2 0.67979863E-01 0.76984509E+03</pdfrwt>
<pdfrwt beam="2">  1       -2 0.23278863E+00 0.76984509E+03</pdfrwt>
<totfact> 0.59642617E+00</totfact>
</mgrwt>
</event>
<event>
 4    5  0.1112901E-007  0.7114605E+03  0.7818608E-02  0.9952617E-01
          2   -1    0    0  501    0  0.00000000000E+00  0.00000000000E+00  0.83605196704E+03  0.83605196705E+03  0.25500000000E-02 0. -1.
         -2   -1    0    0    0  501 -0.00000000000E+00 -0.00000000000E+00 -0.51741519392E+03  0.51741519393E+03  0.25500000000E-02 0.  1.
    8880023    1    1    2    0    0  0.25991466562E+03  0.69355376941E+02 -0.20922640285E+03  0.74158728119E+03  0.65864270000E+03 0.  1.
    8880022    1    1    2    0    0 -0.25991466562E+03 -0.69355376941E+02  0.52786317597E+03  0.61187987978E+03  0.15294330000E+03 0.  0.
<mgrwt>
<rscale>  0 0.57777621E+03</rscale>
<asrwt>0</asrwt>
<pdfrwt beam="1">  1        2 0.12862338E+00 0.71146048E+03</pdfrwt>
<pdfrwt beam="2">  1       -2 0.79602339E-01 0.71146048E+03</pdfrwt>
<totfact> 0.46166184E+01</totfact>
</mgrwt>
</event>
<event>
 4    5  0.1112901E-007  0.1164525E+04  0.7818608E-02  0.9192402E-01
         -2   -1    0    0    0  501 -0.00000000000E+00  0.00000000000E+00  0.17562358531E+04  0.17562358531E+04  0.25500000000E-02 0.  1.
          2   -1    0    0  501    0  0.00000000000E+00 -0.00000000000E+00 -0.12478736111E+04  0.12478736111E+04  0.25500000000E-02 0. -1.
    8880023    1    1    2    0    0  0.42778048512E+02  0.95941602770E+03  0.13035179016E+04  0.17479354112E+04  0.65864270000E+03 0.  1.
    8880022    1    1    2    0    0 -0.42778048512E+02 -0.95941602770E+03 -0.79515565950E+03  0.12561740530E+04  0.15294330000E+03 0.  0.
<mgrwt>
<rscale>  0 0.11132198E+04</rscale>
<asrwt>0</asrwt>
<pdfrwt beam="1">  1        2 0.19198055E+00 0.11645253E+04</pdfrwt>
<pdfrwt beam="2">  1       -2 0.27019013E+00 0.11645253E+04</pdfrwt>
<totfact> 0.83861883E-01</totfact>
</mgrwt>
</event>
<event>
 4    5  0.1112901E-007  0.1318996E+04  0.7818608E-02  0.9049327E-01
         -2   -1    0    0    0  501 -0.00000000000E+00  0.00000000000E+00  0.15966355397E+04  0.15966355397E+04  0.25500000000E-02 0.  1.
          2   -1    0    0  501    0  0.00000000000E+00 -0.00000000000E+00 -0.10795426069E+04  0.10795426069E+04  0.25500000000E-02 0. -1.
    8880023    1    1    2    0    0  0.29285916309E+03  0.11046149571E+04  0.72424010339E+03  0.15047506858E+04  0.65864270000E+03 0.  0.
    8880022    1    1    2    0    0 -0.29285916309E+03 -0.11046149571E+04 -0.20714717059E+03  0.11714274609E+04  0.15294330000E+03 0.  0.
<mgrwt>
<rscale>  0 0.12753719E+04</rscale>
<asrwt>0</asrwt>
<pdfrwt beam="1">  1        2 0.16608348E+00 0.13189962E+04</pdfrwt>
<pdfrwt beam="2">  1       -2 0.24563623E+00 0.13189962E+04</pdfrwt>
<totfact> 0.14747559E+00</totfact>
</mgrwt>
</event>
<event>
 4    5  0.1112901E-007  0.7134134E+03  0.7818608E-02  0.9945537E-01
          2   -1    0    0  501    0  0.00000000000E+00  0.00000000000E+00  0.29357663995E+03  0.29357663996E+03  0.25500000000E-02 0. -1.
         -2   -1    0    0    0  501 -0.00000000000E+00 -0.00000000000E+00 -0.13315056822E+04  0.13315056822E+04  0.25500000000E-02 0.  1.
    8880023    1    1    2    0    0  0.21565902572E+03  0.16923262126E+03 -0.10941401986E+04  0.13061781945E+04  0.65864270000E+03 0.  1.
    8880022    1    1    2    0    0 -0.21565902572E+03 -0.16923262126E+03  0.56211156374E+02  0.31890412758E+03  0.15294330000E+03 0.  0.
<mgrwt>
<rscale>  0 0.58104211E+03</rscale>
<asrwt>0</asrwt>
<pdfrwt beam="1">  1        2 0.45165638E-01 0.71341342E+03</pdfrwt>
<pdfrwt beam="2">  1       -2 0.20484702E+00 0.71341342E+03</pdfrwt>
<totfact> 0.14208164E+01</totfact>
</mgrwt>
</event>
<event>
 4    5  0.1112901E-007  0.8489231E+03  0.7818608E-02  0.9613579E-01
          2   -1    0    0  501    0  0.00000000000E+00  0.00000000000E+00  0.16022842350E+04  0.16022842350E+04  0.25500000000E-02 0. -1.
         -2   -1    0    0    0  501 -0.00000000000E+00 -0.00000000000E+00 -0.90475912109E+03  0.90475912110E+03  0.25500000000E-02 0.  1.
    8880023    1    1    2    0    0  0.25802510435E+03 -0.46934338221E+03 -0.63673966817E+03  0.10611822540E+04  0.65864270000E+03 0.  1.
    8880022    1    1    2    0    0 -0.25802510435E+03  0.46934338221E+03  0.13342647821E+04  0.14458611021E+04  0.15294330000E+03 0.  0.
<mgrwt>
<rscale>  0 0.76403903E+03</rscale>
<asrwt>0</asrwt>
<pdfrwt beam="1">  1        2 0.24650526E+00 0.84892307E+03</pdfrwt>
<pdfrwt beam="2">  1       -2 0.13919371E+00 0.84892307E+03</pdfrwt>
<totfact> 0.41067987E+00</totfact>
</mgrwt>
</event>
<event>
 4    5  0.1112901E-007  0.7278095E+03  0.7818608E-02  0.9896996E-01
         -2   -1    0    0    0  501 -0.00000000000E+00  0.00000000000E+00  0.30900084879E+03  0.30900084880E+03  0.25500000000E-02 0.  1.
          2   -1    0    0  501    0  0.00000000000E+00 -0.00000000000E+00 -0.14828864822E+04  0.14828864822E+04  0.25500000000E-02 0. -1.
    8880023    1    1    2    0    0 -0.29762815274E+03  0.85521635678E+02 -0.19444764497E+03  0.75333695009E+03  0.65864270000E+03 0.  1.
    8880022    1    1    2    0    0  0.29762815274E+03 -0.85521635678E+02 -0.97943798845E+03  0.10385503809E+04  0.15294330000E+03 0.  0.
<mgrwt>
<rscale>  0 0.60407094E+03</rscale>
<asrwt>0</asrwt>
<pdfrwt beam="1">  1        2 0.22813638E+00 0.72780950E+03</pdfrwt>
<pdfrwt beam="2">  1       -2 0.47538593E-01 0.72780950E+03</pdfrwt>
<totfact> 0.55701642E+01</totfact>
</mgrwt>
</event>
<event>
 4    5  0.1112901E-007  0.9783775E+03  0.7818608E-02  0.9410410E-01
          2   -1    0    0  501    0  0.00000000000E+00  0.00000000000E+00  0.19027982095E+04  0.19027982095E+04  0.25500000000E-02 0. -1.
         -2   -1    0    0    0  501 -0.00000000000E+00 -0.00000000000E+00 -0.49931080876E+03  0.49931080877E+03  0.25500000000E-02 0.  1.
    8880023    1    1    2    0    0  0.82525523054E+02 -0.71875024967E+03  0.21400086598E+03  0.10015083426E+04  0.65864270000E+03 0.  0.
    8880022    1    1    2    0    0 -0.82525523054E+02  0.71875024967E+03  0.11894865347E+04  0.14006006757E+04  0.15294330000E+03 0.  0.
<mgrwt>
<rscale>  0 0.91223938E+03</rscale>
<asrwt>0</asrwt>
<pdfrwt beam="1">  1        2 0.29273819E+00 0.97837753E+03</pdfrwt>
<pdfrwt beam="2">  1       -2 0.76817047E-01 0.97837753E+03</pdfrwt>
<totfact> 0.11496001E+01</totfact>
</mgrwt>
</event>
<event>
 4    5  0.1112901E-007  0.6939144E+03  0.7818608E-02  0.1002345E+00
          2   -1    0    0  501    0  0.00000000000E+00  0.00000000000E+00  0.22504951454E+04  0.22504951454E+04  0.25500000000E-02 0. -1.
         -2   -1    0    0    0  501 -0.00000000000E+00 -0.00000000000E+00 -0.80417387635E+03  0.80417387635E+03  0.25500000000E-02 0.  1.
    8880023    1    1    2    0    0 -0.23872126092E+02  0.21711084525E+03 -0.64442051462E+03  0.94699261003E+03  0.65864270000E+03 0.  1.
    8880022    1    1    2    0    0  0.23872126092E+02 -0.21711084525E+03  0.20907417836E+04  0.21076764117E+04  0.15294330000E+03 0.  0.
<mgrwt>
<rscale>  0 0.54633887E+03</rscale>
<asrwt>0</asrwt>
<pdfrwt beam="1">  1        2 0.34623002E+00 0.69391441E+03</pdfrwt>
<pdfrwt beam="2">  1       -2 0.12371906E+00 0.69391441E+03</pdfrwt>
<totfact> 0.25100316E+00</totfact>
</mgrwt>
</event>
<event>
 4    5  0.1793906E-007  0.1245839E+04  0.7818608E-02  0.9113802E-01
          2   -1    0    0  501    0  0.00000000000E+00  0.00000000000E+00  0.18698700225E+04  0.18698700225E+04  0.25500000000E-02 0. -1.
         -2   -1    0    0    0  501 -0.00000000000E+00 -0.00000000000E+00 -0.25369754296E+04  0.25369754296E+04  0.25500000000E-02 0.  1.
    8880023    1    1    2    0    0  0.82375291764E+03 -0.66312653343E+03 -0.22059339657E+04  0.25334286127E+04  0.65864270000E+03 0.  0.
    8880022    1    1    2    0    0 -0.82375291764E+03  0.66312653343E+03  0.15388285585E+04  0.18734168394E+04  0.15294330000E+03 0.  0.
<mgrwt>
<rscale>  0 0.11989206E+04</rscale>
<asrwt>0</asrwt>
<pdfrwt beam="1">  1        2 0.28767231E+00 0.12458394E+04</pdfrwt>
<pdfrwt beam="2">  1       -2 0.39030391E+00 0.12458394E+04</pdfrwt>
<totfact> 0.66135301E-02</totfact>
</mgrwt>
</event>
<event>
 4    5  0.1112901E-007  0.1614537E+04  0.7818608E-02  0.8832724E-01
         -2   -1    0    0    0  501 -0.00000000000E+00  0.00000000000E+00  0.22962610536E+04  0.22962610536E+04  0.25500000000E-02 0.  1.
          2   -1    0    0  501    0  0.00000000000E+00 -0.00000000000E+00 -0.13346182859E+04  0.13346182859E+04  0.25500000000E-02 0. -1.
    8880023    1    1    2    0    0  0.12222894513E+04 -0.82397106875E+03 -0.34973831309E+03  0.16519827235E+04  0.65864270000E+03 0. -1.
    8880022    1    1    2    0    0 -0.12222894513E+04  0.82397106875E+03  0.13113810808E+04  0.19788966160E+04  0.15294330000E+03 0.  0.
<mgrwt>
<rscale>  0 0.15803299E+04</rscale>
<asrwt>0</asrwt>
<pdfrwt beam="1">  1        2 0.20532589E+00 0.16145371E+04</pdfrwt>
<pdfrwt beam="2">  1       -2 0.35327093E+00 0.16145371E+04</pdfrwt>
<totfact> 0.21832539E-01</totfact>
</mgrwt>
</event>
<event>
 4    5  0.1112901E-007  0.6891011E+03  0.7818608E-02  0.1004583E+00
          2   -1    0    0  501    0  0.00000000000E+00  0.00000000000E+00  0.23103789826E+04  0.23103789826E+04  0.25500000000E-02 0. -1.
         -2   -1    0    0    0  501 -0.00000000000E+00 -0.00000000000E+00 -0.32874333982E+03  0.32874333983E+03  0.25500000000E-02 0.  1.
    8880023    1    1    2    0    0 -0.16954661201E+03  0.11092339731E+03  0.50038242193E+02  0.69091539689E+03  0.65864270000E+03 0.  0.
    8880022    1    1    2    0    0  0.16954661201E+03 -0.11092339731E+03  0.19315974006E+04  0.19482069255E+04  0.15294330000E+03 0. -1.
<mgrwt>
<rscale>  0 0.53685631E+03</rscale>
<asrwt>0</asrwt>
<pdfrwt beam="1">  1        2 0.35544292E+00 0.68910105E+03</pdfrwt>
<pdfrwt beam="2">  1       -2 0.50575898E-01 0.68910105E+03</pdfrwt>
<totfact> 0.17388988E+01</totfact>
</mgrwt>
</event>
<event>
 4    5  0.1112901E-007  0.7780017E+03  0.7818608E-02  0.9760552E-01
          2   -1    0    0  501    0  0.00000000000E+00  0.00000000000E+00  0.74115352549E+03  0.74115352549E+03  0.25500000000E-02 0. -1.
         -2   -1    0    0    0  501 -0.00000000000E+00 -0.00000000000E+00 -0.13266427186E+04  0.13266427186E+04  0.25500000000E-02 0.  1.
    8880023    1    1    2    0    0 -0.41336230676E+03  0.24657141711E+02 -0.11268092303E+04  0.13693011425E+04  0.65864270000E+03 0.  0.
    8880022    1    1    2    0    0  0.41336230676E+03 -0.24657141711E+02  0.54132003714E+03  0.69849510157E+03  0.15294330000E+03 0. -1.
<mgrwt>
<rscale>  0 0.67523192E+03</rscale>
<asrwt>0</asrwt>
<pdfrwt beam="1">  1        2 0.11402362E+00 0.77800166E+03</pdfrwt>
<pdfrwt beam="2">  1       -2 0.20409888E+00 0.77800166E+03</pdfrwt>
<totfact> 0.48487923E+00</totfact>
</mgrwt>
</event>
<event>
 4    5  0.1112901E-007  0.1203406E+04  0.7818608E-02  0.9153819E-01
         -2   -1    0    0    0  501 -0.00000000000E+00  0.00000000000E+00  0.28198543335E+04  0.28198543335E+04  0.25500000000E-02 0.  1.
          2   -1    0    0  501    0  0.00000000000E+00 -0.00000000000E+00 -0.91007119304E+03  0.91007119305E+03  0.25500000000E-02 0. -1.
    8880023    1    1    2    0    0 -0.94775621943E+03  0.34078453933E+03  0.23343487371E+04  0.26262844832E+04  0.65864270000E+03 0.  0.
    8880022    1    1    2    0    0  0.94775621943E+03 -0.34078453933E+03 -0.42456559669E+03  0.11036410434E+04  0.15294330000E+03 0.  0.
<mgrwt>
<rscale>  0 0.11543079E+04</rscale>
<asrwt>0</asrwt>
<pdfrwt beam="1">  1        2 0.14001096E+00 0.12034061E+04</pdfrwt>
<pdfrwt beam="2">  1       -2 0.43382373E+00 0.12034061E+04</pdfrwt>
<totfact> 0.12649339E-01</totfact>
</mgrwt>
</event>
<event>
 4    5  0.1112901E-007  0.1164634E+04  0.7818608E-02  0.9192292E-01
          2   -1    0    0  501    0  0.00000000000E+00  0.00000000000E+00  0.13130053412E+04  0.13130053412E+04  0.25500000000E-02 0. -1.
         -2   -1    0    0    0  501 -0.00000000000E+00 -0.00000000000E+00 -0.97750132475E+03  0.97750132475E+03  0.25500000000E-02 0.  1.
    8880023    1    1    2    0    0  0.63511457661E+03  0.72054875982E+03  0.56008975805E+03  0.12923125721E+04  0.65864270000E+03 0.  0.
    8880022    1    1    2    0    0 -0.63511457661E+03 -0.72054875982E+03 -0.22458574157E+03  0.99819409387E+03  0.15294330000E+03 0.  0.
<mgrwt>
<rscale>  0 0.11133344E+04</rscale>
<asrwt>0</asrwt>
<pdfrwt beam="1">  1        2 0.20200082E+00 0.11646335E+04</pdfrwt>
<pdfrwt beam="2">  1       -2 0.15038482E+00 0.11646335E+04</pdfrwt>
<totfact> 0.47163731E+00</totfact>
</mgrwt>
</event>
<event>
 4    5  0.1112901E-007  0.1438218E+04  0.7818608E-02  0.8954541E-01
          2   -1    0    0  501    0  0.00000000000E+00  0.00000000000E+00  0.22476336860E+04  0.22476336860E+04  0.25500000000E-02 0. -1.
         -2   -1    0    0    0  501 -0.00000000000E+00 -0.00000000000E+00 -0.12090451445E+04  0.12090451446E+04  0.25500000000E-02 0.  1.
    8880023    1    1    2    0    0  0.58967024873E+03 -0.11344383717E+04 -0.43231179354E+03  0.15017873067E+04  0.65864270000E+03 0.  0.
    8880022    1    1    2    0    0 -0.58967024873E+03  0.11344383717E+04  0.14709003350E+04  0.19548915239E+04  0.15294330000E+03 0.  0.
<mgrwt>
<rscale>  0 0.13990022E+04</rscale>
<asrwt>0</asrwt>
<pdfrwt beam="1">  1        2 0.34578979E+00 0.14382182E+04</pdfrwt>
<pdfrwt beam="2">  1       -2 0.18600695E+00 0.14382182E+04</pdfrwt>
<totfact> 0.75768768E-01</totfact>
</mgrwt>
</event>
<event>
 4    5  0.1112901E-007  0.7283858E+03  0.7818608E-02  0.9895170E-01
         -2   -1    0    0    0  501 -0.00000000000E+00  0.00000000000E+00  0.12408145018E+04  0.12408145018E+04  0.25500000000E-02 0.  1.
          2   -1    0    0  501    0  0.00000000000E+00 -0.00000000000E+00 -0.79147100218E+03  0.79147100219E+03  0.25500000000E-02 0. -1.
    8880023    1    1    2    0    0 -0.30074503934E+03  0.79297660525E+02  0.10858552328E+04  0.13075272428E+04  0.65864270000E+03 0.  1.
    8880022    1    1    2    0    0  0.30074503934E+03 -0.79297660525E+02 -0.63651173322E+03  0.72475826121E+03  0.15294330000E+03 0.  0.
<mgrwt>
<rscale>  0 0.60495957E+03</rscale>
<asrwt>0</asrwt>
<pdfrwt beam="1">  1        2 0.12176477E+00 0.72838582E+03</pdfrwt>
<pdfrwt beam="2">  1       -2 0.19089454E+00 0.72838582E+03</pdfrwt>
<totfact> 0.54661863E+00</totfact>
</mgrwt>
</event>
<event>
 4    5  0.1112901E-007  0.7402784E+03  0.7818608E-02  0.9859137E-01
         -2   -1    0    0    0  501 -0.00000000000E+00  0.00000000000E+00  0.49548142614E+03  0.49548142615E+03  0.25500000000E-02 0.  1.
          2   -1    0    0  501    0  0.00000000000E+00 -0.00000000000E+00 -0.11884058153E+04  0.11884058153E+04  0.25500000000E-02 0. -1.
    8880023    1    1    2    0    0  0.26519281203E+03  0.20946271594E+03  0.15682253201E+03  0.75670692460E+03  0.65864270000E+03 0.  1.
    8880022    1    1    2    0    0 -0.26519281203E+03 -0.20946271594E+03 -0.84974692120E+03  0.92718031689E+03  0.15294330000E+03 0.  0.
<mgrwt>
<rscale>  0 0.62283217E+03</rscale>
<asrwt>0</asrwt>
<pdfrwt beam="1">  1        2 0.18283166E+00 0.74027837E+03</pdfrwt>
<pdfrwt beam="2">  1       -2 0.76227912E-01 0.74027837E+03</pdfrwt>
<totfact> 0.30221958E+01</totfact>
</mgrwt>
</event>
<event>
 4    5  0.1112901E-007  0.7734466E+03  0.7818608E-02  0.9771462E-01
         -2   -1    0    0    0  501 -0.00000000000E+00  0.00000000000E+00  0.41526783381E+03  0.41526783382E+03  0.25500000000E-02 0.  1.
          2   -1    0    0  501    0  0.00000000000E+00 -0.00000000000E+00 -0.12190755534E+04  0.12190755534E+04  0.25500000000E-02 0. -1.
    8880023    1    1    2    0    0 -0.26002464887E+03  0.31112158622E+03 -0.62894097423E+02  0.77599957035E+03  0.65864270000E+03 0.  1.
    8880022    1    1    2    0    0  0.26002464887E+03 -0.31112158622E+03 -0.74091362216E+03  0.85834381687E+03  0.15294330000E+03 0.  0.
<mgrwt>
<rscale>  0 0.66916779E+03</rscale>
<asrwt>0</asrwt>
<pdfrwt beam="1">  1        2 0.18755008E+00 0.77344661E+03</pdfrwt>
<pdfrwt beam="2">  1       -2 0.63887360E-01 0.77344661E+03</pdfrwt>
<totfact> 0.42473079E+01</totfact>
</mgrwt>
</event>
<event>
 4    5  0.1112901E-007  0.1556374E+04  0.7818608E-02  0.8870821E-01
          2   -1    0    0  501    0  0.00000000000E+00  0.00000000000E+00  0.26110513917E+04  0.26110513917E+04  0.25500000000E-02 0. -1.
         -2   -1    0    0    0  501 -0.00000000000E+00 -0.00000000000E+00 -0.10683313318E+04  0.10683313318E+04  0.25500000000E-02 0.  1.
    8880023    1    1    2    0    0 -0.14057307957E+04  0.11139967907E+03 -0.36356875503E+02  0.15567983130E+04  0.65864270000E+03 0.  0.
    8880022    1    1    2    0    0  0.14057307957E+04 -0.11139967907E+03  0.15790769354E+04  0.21225844105E+04  0.15294330000E+03 0.  0.
<mgrwt>
<rscale>  0 0.15206725E+04</rscale>
<asrwt>0</asrwt>
<pdfrwt beam="1">  1        2 0.40170021E+00 0.15563737E+04</pdfrwt>
<pdfrwt beam="2">  1       -2 0.16435867E+00 0.15563737E+04</pdfrwt>
<totfact> 0.65799138E-01</totfact>
</mgrwt>
</event>
<event>
 4    5  0.1112901E-007  0.1035679E+04  0.7818608E-02  0.9336299E-01
          2   -1    0    0  501    0  0.00000000000E+00  0.00000000000E+00  0.34657134281E+04  0.34657134281E+04  0.25500000000E-02 0. -1.
         -2   -1    0    0    0  501 -0.00000000000E+00 -0.00000000000E+00 -0.28880744730E+03  0.28880744731E+03  0.25500000000E-02 0.  1.
    8880023    1    1    2    0    0 -0.59204693000E+03 -0.53693640594E+03  0.10391927536E+04  0.14671578159E+04  0.65864270000E+03 0.  1.
    8880022    1    1    2    0    0  0.59204693000E+03  0.53693640594E+03  0.21377132272E+04  0.22873630595E+04  0.15294330000E+03 0.  0.
<mgrwt>
<rscale>  0 0.97508713E+03</rscale>
<asrwt>0</asrwt>
<pdfrwt beam="1">  1        2 0.53318668E+00 0.10356788E+04</pdfrwt>
<pdfrwt beam="2">  1       -2 0.44431915E-01 0.10356788E+04</pdfrwt>
<totfact> 0.42523078E+00</totfact>
</mgrwt>
</event>
<event>
 4    5  0.1112901E-007  0.8347198E+03  0.7818608E-02  0.9640218E-01
          2   -1    0    0  501    0  0.00000000000E+00  0.00000000000E+00  0.33755315002E+04  0.33755315002E+04  0.25500000000E-02 0. -1.
         -2   -1    0    0    0  501 -0.00000000000E+00 -0.00000000000E+00 -0.25366806153E+03  0.25366806154E+03  0.25500000000E-02 0.  1.
    8880023    1    1    2    0    0 -0.40524693492E+03 -0.31420028016E+03  0.54389837587E+03  0.99628436897E+03  0.65864270000E+03 0.  1.
    8880022    1    1    2    0    0  0.40524693492E+03  0.31420028016E+03  0.25779650628E+04  0.26329151928E+04  0.15294330000E+03 0.  0.
<mgrwt>
<rscale>  0 0.74690524E+03</rscale>
<asrwt>0</asrwt>
<pdfrwt beam="1">  1        2 0.51931253E+00 0.83471977E+03</pdfrwt>
<pdfrwt beam="2">  1       -2 0.39025856E-01 0.83471977E+03</pdfrwt>
<totfact> 0.65231747E+00</totfact>
</mgrwt>
</event>
<event>
 4    5  0.1112901E-007  0.8396022E+03  0.7818608E-02  0.9630931E-01
          2   -1    0    0  501    0  0.00000000000E+00  0.00000000000E+00  0.16842622320E+04  0.16842622320E+04  0.25500000000E-02 0. -1.
         -2   -1    0    0    0  501 -0.00000000000E+00 -0.00000000000E+00 -0.43967356493E+03  0.43967356494E+03  0.25500000000E-02 0.  1.
    8880023    1    1    2    0    0 -0.47522491402E+03 -0.21279771842E+03  0.85316267011E+02  0.84392574291E+03  0.65864270000E+03 0.  0.
    8880022    1    1    2    0    0  0.47522491402E+03  0.21279771842E+03  0.11592724000E+04  0.12800100540E+04  0.15294330000E+03 0.  0.
<mgrwt>
<rscale>  0 0.75282367E+03</rscale>
<asrwt>0</asrwt>
<pdfrwt beam="1">  1        2 0.25911726E+00 0.83960216E+03</pdfrwt>
<pdfrwt beam="2">  1       -2 0.67642087E-01 0.83960216E+03</pdfrwt>
<totfact> 0.20371200E+01</totfact>
</mgrwt>
</event>
<event>
 4    5  0.1112901E-007  0.8951592E+03  0.7818608E-02  0.9533848E-01
         -2   -1    0    0    0  501 -0.00000000000E+00  0.00000000000E+00  0.92606815752E+03  0.92606815752E+03  0.25500000000E-02 0.  1.
          2   -1    0    0  501    0  0.00000000000E+00 -0.00000000000E+00 -0.26556652739E+04  0.26556652739E+04  0.25500000000E-02 0. -1.
    8880023    1    1    2    0    0 -0.24736859598E+03  0.55345144254E+03  0.65970229964E+03  0.11119878830E+04  0.65864270000E+03 0.  1.
    8880022    1    1    2    0    0  0.24736859598E+03 -0.55345144254E+03 -0.23892994161E+04  0.24697455485E+04  0.15294330000E+03 0.  0.
<mgrwt>
<rscale>  0 0.81833704E+03</rscale>
<asrwt>0</asrwt>
<pdfrwt beam="1">  1        2 0.40856388E+00 0.89515916E+03</pdfrwt>
<pdfrwt beam="2">  1       -2 0.14247203E+00 0.89515916E+03</pdfrwt>
<totfact> 0.99447917E-01</totfact>
</mgrwt>
</event>
<event>
 4    5  0.1112901E-007  0.1014806E+04  0.7818608E-02  0.9362438E-01
         -2   -1    0    0    0  501 -0.00000000000E+00  0.00000000000E+00  0.14189746439E+04  0.14189746439E+04  0.25500000000E-02 0.  1.
          2   -1    0    0  501    0  0.00000000000E+00 -0.00000000000E+00 -0.14048140161E+04  0.14048140161E+04  0.25500000000E-02 0. -1.
    8880023    1    1    2    0    0 -0.95712460864E+02  0.76606844870E+03  0.10909961449E+04  0.14900015228E+04  0.65864270000E+03 0.  0.
    8880022    1    1    2    0    0  0.95712460864E+02 -0.76606844870E+03 -0.10768355171E+04  0.13337871372E+04  0.15294330000E+03 0.  0.
<mgrwt>
<rscale>  0 0.95232451E+03</rscale>
<asrwt>0</asrwt>
<pdfrwt beam="1">  1        2 0.21612523E+00 0.10148064E+04</pdfrwt>
<pdfrwt beam="2">  1       -2 0.21830379E+00 0.10148064E+04</pdfrwt>
<totfact> 0.14457374E+00</totfact>
</mgrwt>
</event>
<event>
 4    5  0.1112901E-007  0.9668592E+03  0.7818608E-02  0.9426261E-01
          2   -1    0    0  501    0  0.00000000000E+00  0.00000000000E+00  0.17236762236E+04  0.17236762236E+04  0.25500000000E-02 0. -1.
         -2   -1    0    0    0  501 -0.00000000000E+00 -0.00000000000E+00 -0.60022862023E+03  0.60022862024E+03  0.25500000000E-02 0.  1.
    8880023    1    1    2    0    0  0.17777225322E+03 -0.68513024985E+03  0.12587495336E+04  0.15872199054E+04  0.65864270000E+03 0. -1.
    8880022    1    1    2    0    0 -0.17777225322E+03  0.68513024985E+03 -0.13530193025E+03  0.73668493850E+03  0.15294330000E+03 0.  0.
<mgrwt>
<rscale>  0 0.89945626E+03</rscale>
<asrwt>0</asrwt>
<pdfrwt beam="1">  1        2 0.26518096E+00 0.96685916E+03</pdfrwt>
<pdfrwt beam="2">  1       -2 0.92342865E-01 0.96685916E+03</pdfrwt>
<totfact> 0.94878613E+00</totfact>
</mgrwt>
</event>
<event>
 4    5  0.1112901E-007  0.7216507E+03  0.7818608E-02  0.9917040E-01
         -2   -1    0    0    0  501 -0.00000000000E+00  0.00000000000E+00  0.60879203030E+03  0.60879203030E+03  0.25500000000E-02 0.  1.
          2   -1    0    0  501    0  0.00000000000E+00 -0.00000000000E+00 -0.10302372114E+04  0.10302372114E+04  0.25500000000E-02 0. -1.
    8880023    1    1    2    0    0  0.22068372680E+03  0.19562257403E+03  0.34781921569E+03  0.80109794146E+03  0.65864270000E+03 0.  1.
    8880022    1    1    2    0    0 -0.22068372680E+03 -0.19562257403E+03 -0.76926439679E+03  0.83793130024E+03  0.15294330000E+03 0.  0.
<mgrwt>
<rscale>  0 0.59442532E+03</rscale>
<asrwt>0</asrwt>
<pdfrwt beam="1">  1        2 0.15849803E+00 0.72165068E+03</pdfrwt>
<pdfrwt beam="2">  1       -2 0.93660312E-01 0.72165068E+03</pdfrwt>
<totfact> 0.23668858E+01</totfact>
</mgrwt>
</event>
<event>
 4    5  0.1112901E-007  0.9677496E+03  0.7818608E-02  0.9425023E-01
          2   -1    0    0  501    0  0.00000000000E+00  0.00000000000E+00  0.69339908428E+03  0.69339908429E+03  0.25500000000E-02 0. -1.
         -2   -1    0    0    0  501 -0.00000000000E+00 -0.00000000000E+00 -0.11221019587E+04  0.11221019587E+04  0.25500000000E-02 0.  1.
    8880023    1    1    2    0    0 -0.51138485348E+03  0.49113600568E+03 -0.49525231071E+03  0.10871127365E+04  0.65864270000E+03 0.  0.
    8880022    1    1    2    0    0  0.51138485348E+03 -0.49113600568E+03  0.66549436313E+02  0.72838830642E+03  0.15294330000E+03 0.  0.
<mgrwt>
<rscale>  0 0.90044651E+03</rscale>
<asrwt>0</asrwt>
<pdfrwt beam="1">  1        2 0.10667678E+00 0.96774958E+03</pdfrwt>
<pdfrwt beam="2">  1       -2 0.17263107E+00 0.96774958E+03</pdfrwt>
<totfact> 0.84272832E+00</totfact>
</mgrwt>
</event>
<event>
 4    5  0.1112901E-007  0.6734408E+03  0.7818608E-02  0.1013308E+00
         -2   -1    0    0    0  501 -0.00000000000E+00  0.00000000000E+00  0.17900792992E+03  0.17900792993E+03  0.25500000000E-02 0.  1.
          2   -1    0    0  501    0  0.00000000000E+00 -0.00000000000E+00 -0.31161632347E+04  0.31161632347E+04  0.25500000000E-02 0. -1.
    8880023    1    1    2    0    0  0.10964144081E+03 -0.87698322416E+02 -0.47458583529E+03  0.82386537894E+03  0.65864270000E+03 0.  1.
    8880022    1    1    2    0    0 -0.10964144081E+03  0.87698322416E+02 -0.24625694695E+04  0.24713057857E+04  0.15294330000E+03 0.  0.
<mgrwt>
<rscale>  0 0.50180977E+03</rscale>
<asrwt>0</asrwt>
<pdfrwt beam="1">  1        2 0.47940969E+00 0.67344075E+03</pdfrwt>
<pdfrwt beam="2">  1       -2 0.27539684E-01 0.67344075E+03</pdfrwt>
<totfact> 0.19027311E+01</totfact>
</mgrwt>
</event>
<event>
 4    5  0.1112901E-007  0.7448467E+03  0.7818608E-02  0.9846048E-01
         -2   -1    0    0    0  501 -0.00000000000E+00  0.00000000000E+00  0.47210685238E+03  0.47210685239E+03  0.25500000000E-02 0.  1.
          2   -1    0    0  501    0  0.00000000000E+00 -0.00000000000E+00 -0.80397442840E+03  0.80397442840E+03  0.25500000000E-02 0. -1.
    8880023    1    1    2    0    0 -0.40476710802E+02  0.34546777436E+03  0.38002420194E+02  0.74581548485E+03  0.65864270000E+03 0.  1.
    8880022    1    1    2    0    0  0.40476710802E+02 -0.34546777436E+03 -0.36986999621E+03  0.53026579594E+03  0.15294330000E+03 0.  0.
<mgrwt>
<rscale>  0 0.62948848E+03</rscale>
<asrwt>0</asrwt>
<pdfrwt beam="1">  1        2 0.12368837E+00 0.74484666E+03</pdfrwt>
<pdfrwt beam="2">  1       -2 0.72631823E-01 0.74484666E+03</pdfrwt>
<totfact> 0.59472760E+01</totfact>
</mgrwt>
</event>
<event>
 4    5  0.1112901E-007  0.1005156E+04  0.7818608E-02  0.9374842E-01
         -2   -1    0    0    0  501 -0.00000000000E+00  0.00000000000E+00  0.93054509301E+03  0.93054509301E+03  0.25500000000E-02 0.  1.
          2   -1    0    0  501    0  0.00000000000E+00 -0.00000000000E+00 -0.15744799587E+04  0.15744799587E+04  0.25500000000E-02 0. -1.
    8880023    1    1    2    0    0 -0.64759488729E+03  0.39642179615E+03  0.50069792035E+03  0.11229594793E+04  0.65864270000E+03 0.  1.
    8880022    1    1    2    0    0  0.64759488729E+03 -0.39642179615E+03 -0.11446327860E+04  0.13820655724E+04  0.15294330000E+03 0.  0.
<mgrwt>
<rscale>  0 0.94175303E+03</rscale>
<asrwt>0</asrwt>
<pdfrwt beam="1">  1        2 0.24222769E+00 0.10051565E+04</pdfrwt>
<pdfrwt beam="2">  1       -2 0.14316078E+00 0.10051565E+04</pdfrwt>
<totfact> 0.38771960E+00</totfact>
</mgrwt>
</event>
<event>
 4    5  0.1112901E-007  0.6669695E+03  0.7818608E-02  0.1017935E+00
         -2   -1    0    0    0  501 -0.00000000000E+00  0.00000000000E+00  0.44587185816E+03  0.44587185817E+03  0.25500000000E-02 0.  1.
          2   -1    0    0  501    0  0.00000000000E+00 -0.00000000000E+00 -0.11914624973E+04  0.11914624973E+04  0.25500000000E-02 0. -1.
    8880023    1    1    2    0    0  0.53143159213E+02 -0.90630688527E+02  0.18200933744E+03  0.69135788290E+03  0.65864270000E+03 0.  1.
    8880022    1    1    2    0    0 -0.53143159213E+02  0.90630688527E+02 -0.92759997658E+03  0.94597647256E+03  0.15294330000E+03 0.  0.
<mgrwt>
<rscale>  0 0.48439121E+03</rscale>
<asrwt>0</asrwt>
<pdfrwt beam="1">  1        2 0.18330192E+00 0.66696951E+03</pdfrwt>
<pdfrwt beam="2">  1       -2 0.68595671E-01 0.66696951E+03</pdfrwt>
<totfact> 0.38248168E+01</totfact>
</mgrwt>
</event>
<event>
 4    5  0.1112901E-007  0.7983210E+03  0.7818608E-02  0.9714438E-01
         -2   -1    0    0    0  501 -0.00000000000E+00  0.00000000000E+00  0.13017803023E+04  0.13017803023E+04  0.25500000000E-02 0.  1.
          2   -1    0    0  501    0  0.00000000000E+00 -0.00000000000E+00 -0.22412519394E+04  0.22412519394E+04  0.25500000000E-02 0. -1.
    8880023    1    1    2    0    0  0.44147388162E+03 -0.92774309291E+02  0.11500101955E+04  0.13999428262E+04  0.65864270000E+03 0.  1.
    8880022    1    1    2    0    0 -0.44147388162E+03  0.92774309291E+02 -0.20894818327E+04  0.21430894155E+04  0.15294330000E+03 0.  0.
<mgrwt>
<rscale>  0 0.70163620E+03</rscale>
<asrwt>0</asrwt>
<pdfrwt beam="1">  1        2 0.34480799E+00 0.79832103E+03</pdfrwt>
<pdfrwt beam="2">  1       -2 0.20027389E+00 0.79832103E+03</pdfrwt>
<totfact> 0.67405577E-01</totfact>
</mgrwt>
</event>
<event>
 4    5  0.1112901E-007  0.7180336E+03  0.7818608E-02  0.9929297E-01
          2   -1    0    0  501    0  0.00000000000E+00  0.00000000000E+00  0.41460396778E+04  0.41460396778E+04  0.25500000000E-02 0. -1.
         -2   -1    0    0    0  501 -0.00000000000E+00 -0.00000000000E+00 -0.83994192895E+03  0.83994192895E+03  0.25500000000E-02 0.  1.
    8880023    1    1    2    0    0  0.27444664349E+03  0.80256113808E+02 -0.67868809215E+03  0.98802314579E+03  0.65864270000E+03 0.  1.
    8880022    1    1    2    0    0 -0.27444664349E+03 -0.80256113808E+02  0.39847858410E+04  0.39979584610E+04  0.15294330000E+03 0.  0.
<mgrwt>
<rscale>  0 0.58862216E+03</rscale>
<asrwt>0</asrwt>
<pdfrwt beam="1">  1        2 0.63785226E+00 0.71803357E+03</pdfrwt>
<pdfrwt beam="2">  1       -2 0.12922183E+00 0.71803357E+03</pdfrwt>
<totfact> 0.12943244E-01</totfact>
</mgrwt>
</event>
<event>
 4    5  0.1112901E-007  0.1016558E+04  0.7818608E-02  0.9360208E-01
          2   -1    0    0  501    0  0.00000000000E+00  0.00000000000E+00  0.39486442622E+04  0.39486442622E+04  0.25500000000E-02 0. -1.
         -2   -1    0    0    0  501 -0.00000000000E+00 -0.00000000000E+00 -0.38116180720E+03  0.38116180721E+03  0.25500000000E-02 0.  1.
    8880023    1    1    2    0    0 -0.31049403015E+03  0.70934750918E+03  0.44601998025E+03  0.11101011038E+04  0.65864270000E+03 0.  0.
    8880022    1    1    2    0    0  0.31049403015E+03 -0.70934750918E+03  0.31214624747E+04  0.32197049656E+04  0.15294330000E+03 0.  0.
<mgrwt>
<rscale>  0 0.95424033E+03</rscale>
<asrwt>0</asrwt>
<pdfrwt beam="1">  1        2 0.60748373E+00 0.10165582E+04</pdfrwt>
<pdfrwt beam="2">  1       -2 0.58640278E-01 0.10165582E+04</pdfrwt>
<totfact> 0.10731845E+00</totfact>
</mgrwt>
</event>
<event>
 4    5  0.1112901E-007  0.1120307E+04  0.7818608E-02  0.9238776E-01
         -2   -1    0    0    0  501 -0.00000000000E+00  0.00000000000E+00  0.41617405839E+03  0.41617405840E+03  0.25500000000E-02 0.  1.
          2   -1    0    0  501    0  0.00000000000E+00 -0.00000000000E+00 -0.31644999387E+04  0.31644999387E+04  0.25500000000E-02 0. -1.
    8880023    1    1    2    0    0 -0.12014121956E+03 -0.89824519938E+03 -0.66296884301E+03  0.13017742676E+04  0.65864270000E+03 0.  1.
    8880022    1    1    2    0    0  0.12014121956E+03  0.89824519938E+03 -0.20853570373E+04  0.22788997294E+04  0.15294330000E+03 0.  0.
<mgrwt>
<rscale>  0 0.10662002E+04</rscale>
<asrwt>0</asrwt>
<pdfrwt beam="1">  1        2 0.48684613E+00 0.11203073E+04</pdfrwt>
<pdfrwt beam="2">  1       -2 0.64026780E-01 0.11203073E+04</pdfrwt>
<totfact> 0.31127241E+00</totfact>
</mgrwt>
</event>
<event>
 4    5  0.1112901E-007  0.1152219E+04  0.7818608E-02  0.9205029E-01
          2   -1    0    0  501    0  0.00000000000E+00  0.00000000000E+00  0.43546652091E+04  0.43546652091E+04  0.25500000000E-02 0. -1.
         -2   -1    0    0    0  501 -0.00000000000E+00 -0.00000000000E+00 -0.26679766712E+03  0.26679766713E+03  0.25500000000E-02 0.  1.
    8880023    1    1    2    0    0 -0.43404849934E+03 -0.83988099453E+03  0.17524352182E+04  0.20972929183E+04  0.65864270000E+03 0.  0.
    8880022    1    1    2    0    0  0.43404849934E+03  0.83988099453E+03  0.23354323238E+04  0.25241699580E+04  0.15294330000E+03 0.  0.
<mgrwt>
<rscale>  0 0.11001671E+04</rscale>
<asrwt>0</asrwt>
<pdfrwt beam="1">  1        2 0.66994847E+00 0.11522189E+04</pdfrwt>
<pdfrwt beam="2">  1       -2 0.41045797E-01 0.11522189E+04</pdfrwt>
<totfact> 0.99004298E-01</totfact>
</mgrwt>
</event>
<event>
 4    5  0.1112901E-007  0.8250213E+03  0.7818608E-02  0.9659098E-01
          2   -1    0    0  501    0  0.00000000000E+00  0.00000000000E+00  0.14248006718E+04  0.14248006718E+04  0.25500000000E-02 0. -1.
         -2   -1    0    0    0  501 -0.00000000000E+00 -0.00000000000E+00 -0.76694376020E+03  0.76694376021E+03  0.25500000000E-02 0.  1.
    8880023    1    1    2    0    0  0.77696565718E+02  0.49072712753E+03 -0.47024545337E+03  0.94962669649E+03  0.65864270000E+03 0.  0.
    8880022    1    1    2    0    0 -0.77696565718E+02 -0.49072712753E+03  0.11281023649E+04  0.12421177355E+04  0.15294330000E+03 0.  0.
<mgrwt>
<rscale>  0 0.73505166E+03</rscale>
<asrwt>0</asrwt>
<pdfrwt beam="1">  1        2 0.21920010E+00 0.82502126E+03</pdfrwt>
<pdfrwt beam="2">  1       -2 0.11799135E+00 0.82502126E+03</pdfrwt>
<totfact> 0.78597984E+00</totfact>
</mgrwt>
</event>
<event>
 4    5  0.1112901E-007  0.1138873E+04  0.7818608E-02  0.9218962E-01
         -2   -1    0    0    0  501 -0.00000000000E+00  0.00000000000E+00  0.56463703636E+03  0.56463703636E+03  0.25500000000E-02 0.  1.
          2   -1    0    0  501    0  0.00000000000E+00 -0.00000000000E+00 -0.37894962803E+04  0.37894962803E+04  0.25500000000E-02 0. -1.
    8880023    1    1    2    0    0  0.83506844007E+03  0.40728724430E+03 -0.16265373116E+03  0.11504297638E+04  0.65864270000E+03 0.  1.
    8880022    1    1    2    0    0 -0.83506844007E+03 -0.40728724430E+03 -0.30622055128E+04  0.32037035529E+04  0.15294330000E+03 0.  0.
<mgrwt>
<rscale>  0 0.10859839E+04</rscale>
<asrwt>0</asrwt>
<pdfrwt beam="1">  1        2 0.58299941E+00 0.11388733E+04</pdfrwt>
<pdfrwt beam="2">  1       -2 0.86867239E-01 0.11388733E+04</pdfrwt>
<totfact> 0.58467875E-01</totfact>
</mgrwt>
</event>
<event>
 4    5  0.1112901E-007  0.1047030E+04  0.7818608E-02  0.9322460E-01
         -2   -1    0    0    0  501 -0.00000000000E+00  0.00000000000E+00  0.44040448959E+03  0.44040448960E+03  0.25500000000E-02 0.  1.
          2   -1    0    0  501    0  0.00000000000E+00 -0.00000000000E+00 -0.29108494109E+04  0.29108494109E+04  0.25500000000E-02 0. -1.
    8880023    1    1    2    0    0 -0.22821762960E+03  0.78126685274E+03 -0.39914826962E+03  0.11205314494E+04  0.65864270000E+03 0.  0.
    8880022    1    1    2    0    0  0.22821762960E+03 -0.78126685274E+03 -0.20712966516E+04  0.22307224511E+04  0.15294330000E+03 0.  0.
<mgrwt>
<rscale>  0 0.98741142E+03</rscale>
<asrwt>0</asrwt>
<pdfrwt beam="1">  1        2 0.44782297E+00 0.10470298E+04</pdfrwt>
<pdfrwt beam="2">  1       -2 0.67754539E-01 0.10470298E+04</pdfrwt>
<totfact> 0.40008668E+00</totfact>
</mgrwt>
</event>
<event>
 4    5  0.1112901E-007  0.1063908E+04  0.7818608E-02  0.9302346E-01
          2   -1    0    0  501    0  0.00000000000E+00  0.00000000000E+00  0.35873916634E+04  0.35873916634E+04  0.25500000000E-02 0. -1.
         -2   -1    0    0    0  501 -0.00000000000E+00 -0.00000000000E+00 -0.60963279721E+03  0.60963279722E+03  0.25500000000E-02 0.  1.
    8880023    1    1    2    0    0 -0.64640941121E+03  0.52938154824E+03 -0.37341899943E+02  0.10645630908E+04  0.65864270000E+03 0.  1.
    8880022    1    1    2    0    0  0.64640941121E+03 -0.52938154824E+03  0.30151007661E+04  0.31324613698E+04  0.15294330000E+03 0.  0.
<mgrwt>
<rscale>  0 0.10056716E+04</rscale>
<asrwt>0</asrwt>
<pdfrwt beam="1">  1        2 0.55190641E+00 0.10639080E+04</pdfrwt>
<pdfrwt beam="2">  1       -2 0.93789661E-01 0.10639080E+04</pdfrwt>
<totfact> 0.69406305E-01</totfact>
</mgrwt>
</event>
<event>
 4    5  0.1112901E-007  0.1138474E+04  0.7818608E-02  0.9219383E-01
          2   -1    0    0  501    0  0.00000000000E+00  0.00000000000E+00  0.27563266325E+04  0.27563266325E+04  0.25500000000E-02 0. -1.
         -2   -1    0    0    0  501 -0.00000000000E+00 -0.00000000000E+00 -0.59252223037E+03  0.59252223038E+03  0.25500000000E-02 0.  1.
    8880023    1    1    2    0    0 -0.87708577561E+03  0.30501230902E+03  0.17931232066E+03  0.11525081696E+04  0.65864270000E+03 0.  1.
    8880022    1    1    2    0    0  0.87708577561E+03 -0.30501230902E+03  0.19844920815E+04  0.21963406932E+04  0.15294330000E+03 0.  0.
<mgrwt>
<rscale>  0 0.10855586E+04</rscale>
<asrwt>0</asrwt>
<pdfrwt beam="1">  1        2 0.42405026E+00 0.11384736E+04</pdfrwt>
<pdfrwt beam="2">  1       -2 0.91157264E-01 0.11384736E+04</pdfrwt>
<totfact> 0.25099503E+00</totfact>
</mgrwt>
</event>
<event>
 4    5  0.1112901E-007  0.2657250E+04  0.7818608E-02  0.8355596E-01
          2   -1    0    0  501    0  0.00000000000E+00  0.00000000000E+00  0.40926907416E+04  0.40926907417E+04  0.25500000000E-02 0. -1.
         -2   -1    0    0    0  501 -0.00000000000E+00 -0.00000000000E+00 -0.20874176671E+04  0.20874176671E+04  0.25500000000E-02 0.  1.
    8880023    1    1    2    0    0  0.37534510236E+03  0.25468183060E+04 -0.35911931955E+03  0.26814071532E+04  0.65864270000E+03 0.  0.
    8880022    1    1    2    0    0 -0.37534510236E+03 -0.25468183060E+04  0.23643923941E+04  0.34987012556E+04  0.15294330000E+03 0.  0.
<mgrwt>
<rscale>  0 0.26374339E+04</rscale>
<asrwt>0</asrwt>
<pdfrwt beam="1">  1        2 0.62964473E+00 0.26572500E+04</pdfrwt>
<pdfrwt beam="2">  1       -2 0.32114118E+00 0.26572500E+04</pdfrwt>
<totfact> 0.55676409E-03</totfact>
</mgrwt>
</event>
<event>
 4    5  0.1112901E-007  0.7198764E+03  0.7818608E-02  0.9923004E-01
         -2   -1    0    0    0  501 -0.00000000000E+00  0.00000000000E+00  0.19783057477E+03  0.19783057479E+03  0.25500000000E-02 0.  1.
          2   -1    0    0  501    0  0.00000000000E+00 -0.00000000000E+00 -0.45216253892E+04  0.45216253892E+04  0.25500000000E-02 0. -1.
    8880023    1    1    2    0    0 -0.18953094554E+03 -0.22020402507E+03 -0.48813453591E+03  0.86976854587E+03  0.65864270000E+03 0.  1.
    8880022    1    1    2    0    0  0.18953094554E+03  0.22020402507E+03 -0.38356602785E+04  0.38496874181E+04  0.15294330000E+03 0.  0.
<mgrwt>
<rscale>  0 0.59159231E+03</rscale>
<asrwt>0</asrwt>
<pdfrwt beam="1">  1        2 0.69563460E+00 0.71987638E+03</pdfrwt>
<pdfrwt beam="2">  1       -2 0.30435476E-01 0.71987638E+03</pdfrwt>
<totfact> 0.13413786E+00</totfact>
</mgrwt>
</event>
<event>
 4    5  0.1112901E-007  0.8967814E+03  0.7818608E-02  0.9531218E-01
         -2   -1    0    0    0  501 -0.00000000000E+00  0.00000000000E+00  0.14103560654E+04  0.14103560654E+04  0.25500000000E-02 0.  1.
          2   -1    0    0  501    0  0.00000000000E+00 -0.00000000000E+00 -0.90654009450E+03  0.90654009450E+03  0.25500000000E-02 0. -1.
    8880023    1    1    2    0    0 -0.60860391444E+03 -0.28093306099E+01  0.11217749077E+04  0.14361740030E+04  0.65864270000E+03 0.  0.
    8880022    1    1    2    0    0  0.60860391444E+03  0.28093306099E+01 -0.61795893683E+03  0.88072215689E+03  0.15294330000E+03 0.  0.
<mgrwt>
<rscale>  0 0.82020830E+03</rscale>
<asrwt>0</asrwt>
<pdfrwt beam="1">  1        2 0.13946771E+00 0.89678137E+03</pdfrwt>
<pdfrwt beam="2">  1       -2 0.21697785E+00 0.89678137E+03</pdfrwt>
<totfact> 0.30153994E+00</totfact>
</mgrwt>
</event>
<event>
 4    5  0.1112901E-007  0.7509702E+03  0.7818608E-02  0.9829072E-01
          2   -1    0    0  501    0  0.00000000000E+00  0.00000000000E+00  0.32456854844E+03  0.32456854845E+03  0.25500000000E-02 0. -1.
         -2   -1    0    0    0  501 -0.00000000000E+00 -0.00000000000E+00 -0.14820052736E+04  0.14820052736E+04  0.25500000000E-02 0.  1.
    8880023    1    1    2    0    0 -0.13304048113E+03  0.33533006729E+03 -0.11966550392E+04  0.14127772340E+04  0.65864270000E+03 0.  1.
    8880022    1    1    2    0    0  0.13304048113E+03 -0.33533006729E+03  0.39218314021E+02  0.39379658812E+03  0.15294330000E+03 0.  0.
<mgrwt>
<rscale>  0 0.63825451E+03</rscale>
<asrwt>0</asrwt>
<pdfrwt beam="1">  1        2 0.49933624E-01 0.75097019E+03</pdfrwt>
<pdfrwt beam="2">  1       -2 0.22800081E+00 0.75097019E+03</pdfrwt>
<totfact> 0.90497989E+00</totfact>
</mgrwt>
</event>
<event>
 4    5  0.1112901E-007  0.7820101E+03  0.7818608E-02  0.9751136E-01
          2   -1    0    0  501    0  0.00000000000E+00  0.00000000000E+00  0.95481811573E+03  0.95481811574E+03  0.25500000000E-02 0. -1.
         -2   -1    0    0    0  501 -0.00000000000E+00 -0.00000000000E+00 -0.94235772512E+03  0.94235772512E+03  0.25500000000E-02 0.  1.
    8880023    1    1    2    0    0  0.42157980308E+03  0.86633258983E-01 -0.70381379131E+03  0.10520901088E+04  0.65864270000E+03 0.  0.
    8880022    1    1    2    0    0 -0.42157980308E+03 -0.86633258983E-01  0.71627418193E+03  0.84508573209E+03  0.15294330000E+03 0.  0.
<mgrwt>
<rscale>  0 0.68052093E+03</rscale>
<asrwt>0</asrwt>
<pdfrwt beam="1">  1        2 0.14689509E+00 0.78201007E+03</pdfrwt>
<pdfrwt beam="2">  1       -2 0.14497811E+00 0.78201007E+03</pdfrwt>
<totfact> 0.89563325E+00</totfact>
</mgrwt>
</event>
<event>
 4    5  0.1112901E-007  0.7903444E+03  0.7818608E-02  0.9732076E-01
         -2   -1    0    0    0  501 -0.00000000000E+00  0.00000000000E+00  0.41628224835E+03  0.41628224836E+03  0.25500000000E-02 0.  1.
          2   -1    0    0  501    0  0.00000000000E+00 -0.00000000000E+00 -0.16304736625E+04  0.16304736625E+04  0.25500000000E-02 0. -1.
    8880023    1    1    2    0    0  0.39723664883E+03 -0.18176100371E+03 -0.47686069702E+02  0.79178165245E+03  0.65864270000E+03 0.  1.
    8880022    1    1    2    0    0 -0.39723664883E+03  0.18176100371E+03 -0.11665053444E+04  0.12549742584E+04  0.15294330000E+03 0.  0.
<mgrwt>
<rscale>  0 0.69138700E+03</rscale>
<asrwt>0</asrwt>
<pdfrwt beam="1">  1        2 0.25084210E+00 0.79034437E+03</pdfrwt>
<pdfrwt beam="2">  1       -2 0.64043424E-01 0.79034437E+03</pdfrwt>
<totfact> 0.24676402E+01</totfact>
</mgrwt>
</event>
<event>
 4    5  0.1112901E-007  0.1186001E+04  0.7818608E-02  0.9170852E-01
         -2   -1    0    0    0  501 -0.00000000000E+00  0.00000000000E+00  0.23758311242E+04  0.23758311242E+04  0.25500000000E-02 0.  1.
          2   -1    0    0  501    0  0.00000000000E+00 -0.00000000000E+00 -0.58075872101E+03  0.58075872102E+03  0.25500000000E-02 0. -1.
    8880023    1    1    2    0    0 -0.96620609450E+03  0.19807321870E+03  0.15070831989E+04  0.19177844487E+04  0.65864270000E+03 0.  0.
    8880022    1    1    2    0    0  0.96620609450E+03 -0.19807321870E+03  0.28798920429E+03  0.10388053965E+04  0.15294330000E+03 0.  0.
<mgrwt>
<rscale>  0 0.11359412E+04</rscale>
<asrwt>0</asrwt>
<pdfrwt beam="1">  1        2 0.89347494E-01 0.11860006E+04</pdfrwt>
<pdfrwt beam="2">  1       -2 0.36551249E+00 0.11860006E+04</pdfrwt>
<totfact> 0.63464800E-01</totfact>
</mgrwt>
</event>
<event>
 4    5  0.1112901E-007  0.1283822E+04  0.7818608E-02  0.9079658E-01
          2   -1    0    0  501    0  0.00000000000E+00  0.00000000000E+00  0.12982214834E+04  0.12982214834E+04  0.25500000000E-02 0. -1.
         -2   -1    0    0    0  501 -0.00000000000E+00 -0.00000000000E+00 -0.18575809781E+04  0.18575809781E+04  0.25500000000E-02 0.  1.
    8880023    1    1    2    0    0  0.96847293782E+03 -0.52578526611E+03 -0.12938187466E+04  0.18226813031E+04  0.65864270000E+03 0.  0.
    8880022    1    1    2    0    0 -0.96847293782E+03  0.52578526611E+03  0.73445925183E+03  0.13331211584E+04  0.15294330000E+03 0.  0.
<mgrwt>
<rscale>  0 0.12386803E+04</rscale>
<asrwt>0</asrwt>
<pdfrwt beam="1">  1        2 0.19972638E+00 0.12838225E+04</pdfrwt>
<pdfrwt beam="2">  1       -2 0.28578169E+00 0.12838225E+04</pdfrwt>
<totfact> 0.62087490E-01</totfact>
</mgrwt>
</event>
<event>
 4    5  0.1112901E-007  0.1309993E+04  0.7818608E-02  0.9056978E-01
          2   -1    0    0  501    0  0.00000000000E+00  0.00000000000E+00  0.18033030033E+04  0.18033030033E+04  0.25500000000E-02 0. -1.
         -2   -1    0    0    0  501 -0.00000000000E+00 -0.00000000000E+00 -0.11002478811E+04  0.11002478811E+04  0.25500000000E-02 0.  1.
    8880023    1    1    2    0    0  0.10019228828E+04  0.52765595241E+03 -0.34325770845E+03  0.13542179765E+04  0.65864270000E+03 0.  1.
    8880022    1    1    2    0    0 -0.10019228828E+04 -0.52765595241E+03  0.10463128306E+04  0.15493329079E+04  0.15294330000E+03 0. -1.
<mgrwt>
<rscale>  0 0.12659905E+04</rscale>
<asrwt>0</asrwt>
<pdfrwt beam="1">  1        2 0.27743123E+00 0.13099925E+04</pdfrwt>
<pdfrwt beam="2">  1       -2 0.16926891E+00 0.13099925E+04</pdfrwt>
<totfact> 0.17792197E+00</totfact>
</mgrwt>
</event>
<event>
 4    5  0.1112901E-007  0.1048294E+04  0.7818608E-02  0.9320935E-01
          2   -1    0    0  501    0  0.00000000000E+00  0.00000000000E+00  0.30552314947E+04  0.30552314947E+04  0.25500000000E-02 0. -1.
         -2   -1    0    0    0  501 -0.00000000000E+00 -0.00000000000E+00 -0.57475808157E+03  0.57475808157E+03  0.25500000000E-02 0.  1.
    8880023    1    1    2    0    0  0.67519967290E+03  0.45740140960E+03  0.36422959321E+02  0.10489268259E+04  0.65864270000E+03 0.  1.
    8880022    1    1    2    0    0 -0.67519967290E+03 -0.45740140960E+03  0.24440504538E+04  0.25810627504E+04  0.15294330000E+03 0.  0.
<mgrwt>
<rscale>  0 0.98878206E+03</rscale>
<asrwt>0</asrwt>
<pdfrwt beam="1">  1        2 0.47003561E+00 0.10482943E+04</pdfrwt>
<pdfrwt beam="2">  1       -2 0.88424320E-01 0.10482943E+04</pdfrwt>
<totfact> 0.17940585E+00</totfact>
</mgrwt>
</event>
<event>
 4    5  0.1112901E-007  0.7010385E+03  0.7818608E-02  0.9992920E-01
         -2   -1    0    0    0  501 -0.00000000000E+00  0.00000000000E+00  0.58554000160E+03  0.58554000160E+03  0.25500000000E-02 0.  1.
          2   -1    0    0  501    0  0.00000000000E+00 -0.00000000000E+00 -0.13882820036E+04  0.13882820036E+04  0.25500000000E-02 0. -1.
    8880023    1    1    2    0    0 -0.23512170070E+03 -0.48606523175E+02  0.35204277252E+03  0.78446741690E+03  0.65864270000E+03 0.  1.
    8880022    1    1    2    0    0  0.23512170070E+03  0.48606523175E+02 -0.11547847746E+04  0.11893545883E+04  0.15294330000E+03 0.  0.
<mgrwt>
<rscale>  0 0.55961774E+03</rscale>
<asrwt>0</asrwt>
<pdfrwt beam="1">  1        2 0.21358185E+00 0.70103853E+03</pdfrwt>
<pdfrwt beam="2">  1       -2 0.90083078E-01 0.70103853E+03</pdfrwt>
<totfact> 0.15942323E+01</totfact>
</mgrwt>
</event>
<event>
 4    5  0.1112901E-007  0.1317514E+04  0.7818608E-02  0.9050582E-01
         -2   -1    0    0    0  501 -0.00000000000E+00  0.00000000000E+00  0.89033306951E+03  0.89033306952E+03  0.25500000000E-02 0.  1.
          2   -1    0    0  501    0  0.00000000000E+00 -0.00000000000E+00 -0.30572665148E+04  0.30572665148E+04  0.25500000000E-02 0. -1.
    8880023    1    1    2    0    0  0.50808162112E+03 -0.10217068264E+04  0.18362133857E+03  0.13302476367E+04  0.65864270000E+03 0.  1.
    8880022    1    1    2    0    0 -0.50808162112E+03  0.10217068264E+04 -0.23505547839E+04  0.26173519476E+04  0.15294330000E+03 0.  0.
<mgrwt>
<rscale>  0 0.12738276E+04</rscale>
<asrwt>0</asrwt>
<pdfrwt beam="1">  1        2 0.47034869E+00 0.13175136E+04</pdfrwt>
<pdfrwt beam="2">  1       -2 0.13697432E+00 0.13175136E+04</pdfrwt>
<totfact> 0.59155901E-01</totfact>
</mgrwt>
</event>
<event>
 4    5  0.1112901E-007  0.1517541E+04  0.7818608E-02  0.8897348E-01
         -2   -1    0    0    0  501 -0.00000000000E+00  0.00000000000E+00  0.19232658976E+04  0.19232658976E+04  0.25500000000E-02 0.  1.
          2   -1    0    0  501    0  0.00000000000E+00 -0.00000000000E+00 -0.20958999796E+04  0.20958999796E+04  0.25500000000E-02 0. -1.
    8880023    1    1    2    0    0 -0.13586747827E+04  0.15205870620E+03  0.13041246524E+04  0.20009173722E+04  0.65864270000E+03 0.  1.
    8880022    1    1    2    0    0  0.13586747827E+04 -0.15205870620E+03 -0.14767587344E+04  0.20182485050E+04  0.15294330000E+03 0.  0.
<mgrwt>
<rscale>  0 0.14807612E+04</rscale>
<asrwt>0</asrwt>
<pdfrwt beam="1">  1        2 0.32244615E+00 0.15175405E+04</pdfrwt>
<pdfrwt beam="2">  1       -2 0.29588706E+00 0.15175405E+04</pdfrwt>
<totfact> 0.18615628E-01</totfact>
</mgrwt>
</event>
<event>
 4    5  0.1112901E-007  0.8899618E+03  0.7818608E-02  0.9542342E-01
          2   -1    0    0  501    0  0.00000000000E+00  0.00000000000E+00  0.49243593098E+04  0.49243593098E+04  0.25500000000E-02 0. -1.
         -2   -1    0    0    0  501 -0.00000000000E+00 -0.00000000000E+00 -0.23272042357E+03  0.23272042358E+03  0.25500000000E-02 0.  1.
    8880023    1    1    2    0    0  0.55066041640E+03 -0.23450975055E+03  0.73993647654E+03  0.11573840818E+04  0.65864270000E+03 0.  0.
    8880022    1    1    2    0    0 -0.55066041640E+03  0.23450975055E+03  0.39517024096E+04  0.39996956515E+04  0.15294330000E+03 0.  0.
<mgrwt>
<rscale>  0 0.81232806E+03</rscale>
<asrwt>0</asrwt>
<pdfrwt beam="1">  1        2 0.75759374E+00 0.88996175E+03</pdfrwt>
<pdfrwt beam="2">  1       -2 0.35803142E-01 0.88996175E+03</pdfrwt>
<totfact> 0.35233857E-01</totfact>
</mgrwt>
</event>
<event>
 4    5  0.1112901E-007  0.1032015E+04  0.7818608E-02  0.9340821E-01
          2   -1    0    0  501    0  0.00000000000E+00  0.00000000000E+00  0.34695789250E+04  0.34695789250E+04  0.25500000000E-02 0. -1.
         -2   -1    0    0    0  501 -0.00000000000E+00 -0.00000000000E+00 -0.40309318597E+03  0.40309318598E+03  0.25500000000E-02 0.  1.
    8880023    1    1    2    0    0 -0.87753661061E+02  0.78964823328E+03  0.43559426359E+03  0.11201774887E+04  0.65864270000E+03 0.  0.
    8880022    1    1    2    0    0  0.87753661061E+02 -0.78964823328E+03  0.26308914755E+04  0.27524946223E+04  0.15294330000E+03 0.  0.
<mgrwt>
<rscale>  0 0.97110143E+03</rscale>
<asrwt>0</asrwt>
<pdfrwt beam="1">  1        2 0.53378138E+00 0.10320151E+04</pdfrwt>
<pdfrwt beam="2">  1       -2 0.62014336E-01 0.10320151E+04</pdfrwt>
<totfact> 0.21237571E+00</totfact>
</mgrwt>
</event>
<event>
 4    5  0.1112901E-007  0.1008407E+04  0.7818608E-02  0.9370641E-01
          2   -1    0    0  501    0  0.00000000000E+00  0.00000000000E+00  0.13760053373E+04  0.13760053373E+04  0.25500000000E-02 0. -1.
         -2   -1    0    0    0  501 -0.00000000000E+00 -0.00000000000E+00 -0.10267343563E+04  0.10267343563E+04  0.25500000000E-02 0.  1.
    8880023    1    1    2    0    0  0.58890985804E+02  0.76131875016E+03 -0.60116446772E+03  0.11740031137E+04  0.65864270000E+03 0.  0.
    8880022    1    1    2    0    0 -0.58890985804E+02 -0.76131875016E+03  0.95043544876E+03  0.12287365799E+04  0.15294330000E+03 0.  0.
<mgrwt>
<rscale>  0 0.94531748E+03</rscale>
<asrwt>0</asrwt>
<pdfrwt beam="1">  1        2 0.21169313E+00 0.10084070E+04</pdfrwt>
<pdfrwt beam="2">  1       -2 0.15795913E+00 0.10084070E+04</pdfrwt>
<totfact> 0.38608517E+00</totfact>
</mgrwt>
</event>
<event>
 4    5  0.1112901E-007  0.7100819E+03  0.7818608E-02  0.9957697E-01
          2   -1    0    0  501    0  0.00000000000E+00  0.00000000000E+00  0.94775905629E+03  0.94775905629E+03  0.25500000000E-02 0. -1.
         -2   -1    0    0    0  501 -0.00000000000E+00 -0.00000000000E+00 -0.13795402503E+04  0.13795402503E+04  0.25500000000E-02 0.  1.
    8880023    1    1    2    0    0  0.25777656174E+03  0.62907066312E+02 -0.12588705235E+04  0.14453273871E+04  0.65864270000E+03 0.  1.
    8880022    1    1    2    0    0 -0.25777656174E+03 -0.62907066312E+02  0.82708932948E+03  0.88197191947E+03  0.15294330000E+03 0.  0.
<mgrwt>
<rscale>  0 0.57544702E+03</rscale>
<asrwt>0</asrwt>
<pdfrwt beam="1">  1        2 0.14580909E+00 0.71008187E+03</pdfrwt>
<pdfrwt beam="2">  1       -2 0.21223696E+00 0.71008187E+03</pdfrwt>
<totfact> 0.31141277E+00</totfact>
</mgrwt>
</event>
<event>
 4    5  0.1112901E-007  0.1769842E+04  0.7818608E-02  0.8739405E-01
          2   -1    0    0  501    0  0.00000000000E+00  0.00000000000E+00  0.23663739447E+04  0.23663739447E+04  0.25500000000E-02 0. -1.
         -2   -1    0    0    0  501 -0.00000000000E+00 -0.00000000000E+00 -0.19707441773E+04  0.19707441773E+04  0.25500000000E-02 0.  1.
    8880023    1    1    2    0    0  0.78742060456E+03  0.14416996602E+04 -0.11219302117E+04  0.20954872286E+04  0.65864270000E+03 0.  0.
    8880022    1    1    2    0    0 -0.78742060456E+03 -0.14416996602E+04  0.15175599792E+04  0.22416308934E+04  0.15294330000E+03 0.  0.
<mgrwt>
<rscale>  0 0.17390427E+04</rscale>
<asrwt>0</asrwt>
<pdfrwt beam="1">  1        2 0.36405753E+00 0.17698416E+04</pdfrwt>
<pdfrwt beam="2">  1       -2 0.30319141E+00 0.17698416E+04</pdfrwt>
<totfact> 0.11469791E-01</totfact>
</mgrwt>
</event>
<event>
 4    5  0.1112901E-007  0.7067069E+03  0.7818608E-02  0.9970439E-01
          2   -1    0    0  501    0  0.00000000000E+00  0.00000000000E+00  0.18914539737E+04  0.18914539737E+04  0.25500000000E-02 0. -1.
         -2   -1    0    0    0  501 -0.00000000000E+00 -0.00000000000E+00 -0.49340430188E+03  0.49340430189E+03  0.25500000000E-02 0.  1.
    8880023    1    1    2    0    0  0.23778450819E+03 -0.95304934512E+02 -0.21951006896E+03  0.74001309415E+03  0.65864270000E+03 0.  1.
    8880022    1    1    2    0    0 -0.23778450819E+03  0.95304934512E+02  0.16175597408E+04  0.16448451815E+04  0.15294330000E+03 0.  0.
<mgrwt>
<rscale>  0 0.56965659E+03</rscale>
<asrwt>0</asrwt>
<pdfrwt beam="1">  1        2 0.29099292E+00 0.70670695E+03</pdfrwt>
<pdfrwt beam="2">  1       -2 0.75908354E-01 0.70670695E+03</pdfrwt>
<totfact> 0.12403169E+01</totfact>
</mgrwt>
</event>
<event>
 4    5  0.1112901E-007  0.8732035E+03  0.7818608E-02  0.9570495E-01
          2   -1    0    0  501    0  0.00000000000E+00  0.00000000000E+00  0.12605831018E+04  0.12605831018E+04  0.25500000000E-02 0. -1.
         -2   -1    0    0    0  501 -0.00000000000E+00 -0.00000000000E+00 -0.69515476808E+03  0.69515476808E+03  0.25500000000E-02 0.  1.
    8880023    1    1    2    0    0  0.56552307963E+03  0.94115838326E+02 -0.28521002098E+03  0.91860171290E+03  0.65864270000E+03 0.  1.
    8880022    1    1    2    0    0 -0.56552307963E+03 -0.94115838326E+02  0.85063835468E+03  0.10371361570E+04  0.15294330000E+03 0.  0.
<mgrwt>
<rscale>  0 0.79280171E+03</rscale>
<asrwt>0</asrwt>
<pdfrwt beam="1">  1        2 0.19393586E+00 0.87320350E+03</pdfrwt>
<pdfrwt beam="2">  1       -2 0.10694689E+00 0.87320350E+03</pdfrwt>
<totfact> 0.12338163E+01</totfact>
</mgrwt>
</event>
<event>
 4    5  0.1112901E-007  0.1001058E+04  0.7818608E-02  0.9380175E-01
          2   -1    0    0  501    0  0.00000000000E+00  0.00000000000E+00  0.30000809292E+04  0.30000809292E+04  0.25500000000E-02 0. -1.
         -2   -1    0    0    0  501 -0.00000000000E+00 -0.00000000000E+00 -0.11926250933E+04  0.11926250933E+04  0.25500000000E-02 0.  1.
    8880023    1    1    2    0    0 -0.75287773012E+03  0.38486148883E+02 -0.91954438661E+03  0.13592932522E+04  0.65864270000E+03 0.  1.
    8880022    1    1    2    0    0  0.75287773012E+03 -0.38486148883E+02  0.27270002225E+04  0.28334127703E+04  0.15294330000E+03 0.  0.
<mgrwt>
<rscale>  0 0.93725287E+03</rscale>
<asrwt>0</asrwt>
<pdfrwt beam="1">  1        2 0.46155090E+00 0.10010576E+04</pdfrwt>
<pdfrwt beam="2">  1       -2 0.18348079E+00 0.10010576E+04</pdfrwt>
<totfact> 0.30373357E-01</totfact>
</mgrwt>
</event>
<event>
 4    5  0.1112901E-007  0.8709353E+03  0.7818608E-02  0.9574400E-01
          2   -1    0    0  501    0  0.00000000000E+00  0.00000000000E+00  0.67929868720E+03  0.67929868721E+03  0.25500000000E-02 0. -1.
         -2   -1    0    0    0  501 -0.00000000000E+00 -0.00000000000E+00 -0.87925529554E+03  0.87925529554E+03  0.25500000000E-02 0.  1.
    8880023    1    1    2    0    0  0.56621835633E+02 -0.56702034417E+03 -0.36738270898E+03  0.94525042401E+03  0.65864270000E+03 0.  1.
    8880022    1    1    2    0    0 -0.56621835633E+02  0.56702034417E+03  0.16742610064E+03  0.61330355874E+03  0.15294330000E+03 0.  0.
<mgrwt>
<rscale>  0 0.79013982E+03</rscale>
<asrwt>0</asrwt>
<pdfrwt beam="1">  1        2 0.10450749E+00 0.87093531E+03</pdfrwt>
<pdfrwt beam="2">  1       -2 0.13527004E+00 0.87093531E+03</pdfrwt>
<totfact> 0.16757155E+01</totfact>
</mgrwt>
</event>
<event>
 4    5  0.1112901E-007  0.7163376E+03  0.7818608E-02  0.9935179E-01
          2   -1    0    0  501    0  0.00000000000E+00  0.00000000000E+00  0.15265998635E+04  0.15265998635E+04  0.25500000000E-02 0. -1.
         -2   -1    0    0    0  501 -0.00000000000E+00 -0.00000000000E+00 -0.29346041461E+03  0.29346041462E+03  0.25500000000E-02 0.  1.
    8880023    1    1    2    0    0  0.26959993493E+03 -0.81518325196E+02  0.20790666953E+03  0.74589862029E+03  0.65864270000E+03 0.  0.
    8880022    1    1    2    0    0 -0.26959993493E+03  0.81518325196E+02  0.10252327794E+04  0.10741616579E+04  0.15294330000E+03 0.  0.
<mgrwt>
<rscale>  0 0.58586254E+03</rscale>
<asrwt>0</asrwt>
<pdfrwt beam="1">  1        2 0.23486152E+00 0.71633761E+03</pdfrwt>
<pdfrwt beam="2">  1       -2 0.45147756E-01 0.71633761E+03</pdfrwt>
<totfact> 0.58479659E+01</totfact>
</mgrwt>
</event>
<event>
 4    5  0.1112901E-007  0.6877612E+03  0.7818608E-02  0.1005235E+00
          2   -1    0    0  501    0  0.00000000000E+00  0.00000000000E+00  0.11091053437E+04  0.11091053437E+04  0.25500000000E-02 0. -1.
         -2   -1    0    0    0  501 -0.00000000000E+00 -0.00000000000E+00 -0.23798053612E+03  0.23798053614E+03  0.25500000000E-02 0.  1.
    8880023    1    1    2    0    0 -0.19429987051E+03 -0.38116277000E+02  0.35604547417E+03  0.77445714936E+03  0.65864270000E+03 0.  1.
    8880022    1    1    2    0    0  0.19429987051E+03  0.38116277000E+02  0.51507933343E+03  0.57262873050E+03  0.15294330000E+03 0.  0.
<mgrwt>
<rscale>  0 0.53413053E+03</rscale>
<asrwt>0</asrwt>
<pdfrwt beam="1">  1        2 0.17063159E+00 0.68776122E+03</pdfrwt>
<pdfrwt beam="2">  1       -2 0.36612390E-01 0.68776122E+03</pdfrwt>
<totfact> 0.15360482E+02</totfact>
</mgrwt>
</event>
<event>
 4    5  0.1112901E-007  0.1723999E+04  0.7818608E-02  0.8765785E-01
         -2   -1    0    0    0  501 -0.00000000000E+00  0.00000000000E+00  0.16512640665E+04  0.16512640665E+04  0.25500000000E-02 0.  1.
          2   -1    0    0  501    0  0.00000000000E+00 -0.00000000000E+00 -0.17167072022E+04  0.17167072022E+04  0.25500000000E-02 0. -1.
    8880023    1    1    2    0    0  0.12140085101E+04  0.10317677336E+04 -0.30132974665E+03  0.17501346066E+04  0.65864270000E+03 0.  0.
    8880022    1    1    2    0    0 -0.12140085101E+04 -0.10317677336E+04  0.23588661093E+03  0.16178366621E+04  0.15294330000E+03 0.  0.
<mgrwt>
<rscale>  0 0.16922708E+04</rscale>
<asrwt>0</asrwt>
<pdfrwt beam="1">  1        2 0.26410880E+00 0.17239987E+04</pdfrwt>
<pdfrwt beam="2">  1       -2 0.25404063E+00 0.17239987E+04</pdfrwt>
<totfact> 0.53527263E-01</totfact>
</mgrwt>
</event>
<event>
 4    5  0.1112901E-007  0.6864476E+03  0.7818608E-02  0.1005889E+00
         -2   -1    0    0    0  501 -0.00000000000E+00  0.00000000000E+00  0.26251705056E+03  0.26251705057E+03  0.25500000000E-02 0.  1.
          2   -1    0    0  501    0  0.00000000000E+00 -0.00000000000E+00 -0.98502364290E+03  0.98502364290E+03  0.25500000000E-02 0. -1.
    8880023    1    1    2    0    0 -0.19282175050E+03  0.14827587108E+02 -0.28076153018E+03  0.74164501475E+03  0.65864270000E+03 0.  1.
    8880022    1    1    2    0    0  0.19282175050E+03 -0.14827587108E+02 -0.44174506215E+03  0.50589567873E+03  0.15294330000E+03 0.  0.
<mgrwt>
<rscale>  0 0.53141781E+03</rscale>
<asrwt>0</asrwt>
<pdfrwt beam="1">  1        2 0.15154210E+00 0.68644759E+03</pdfrwt>
<pdfrwt beam="2">  1       -2 0.40387239E-01 0.68644759E+03</pdfrwt>
<totfact> 0.15184610E+02</totfact>
</mgrwt>
</event>
<event>
 4    5  0.1112901E-007  0.9626265E+03  0.7818608E-02  0.9432175E-01
         -2   -1    0    0    0  501 -0.00000000000E+00  0.00000000000E+00  0.46825041106E+03  0.46825041107E+03  0.25500000000E-02 0.  1.
          2   -1    0    0  501    0  0.00000000000E+00 -0.00000000000E+00 -0.21338855389E+04  0.21338855389E+04  0.25500000000E-02 0. -1.
    8880023    1    1    2    0    0  0.49421299145E+03 -0.49859105076E+03 -0.21947938118E+03  0.98733019899E+03  0.65864270000E+03 0.  0.
    8880022    1    1    2    0    0 -0.49421299145E+03  0.49859105076E+03 -0.14461557467E+04  0.16148057510E+04  0.15294330000E+03 0.  0.
<mgrwt>
<rscale>  0 0.89474417E+03</rscale>
<asrwt>0</asrwt>
<pdfrwt beam="1">  1        2 0.32829008E+00 0.96262647E+03</pdfrwt>
<pdfrwt beam="2">  1       -2 0.72038526E-01 0.96262647E+03</pdfrwt>
<totfact> 0.99073867E+00</totfact>
</mgrwt>
</event>
<event>
 4    5  0.1112901E-007  0.7929251E+03  0.7818608E-02  0.9726307E-01
         -2   -1    0    0    0  501 -0.00000000000E+00  0.00000000000E+00  0.58210974798E+03  0.58210974799E+03  0.25500000000E-02 0.  1.
          2   -1    0    0  501    0  0.00000000000E+00 -0.00000000000E+00 -0.12539292909E+04  0.12539292909E+04  0.25500000000E-02 0. -1.
    8880023    1    1    2    0    0 -0.38894543104E+03 -0.20890536257E+03  0.22549442464E+03  0.82436517433E+03  0.65864270000E+03 0.  0.
    8880022    1    1    2    0    0  0.38894543104E+03  0.20890536257E+03 -0.89731396754E+03  0.10116738645E+04  0.15294330000E+03 0.  0.
<mgrwt>
<rscale>  0 0.69471830E+03</rscale>
<asrwt>0</asrwt>
<pdfrwt beam="1">  1        2 0.19291220E+00 0.79292509E+03</pdfrwt>
<pdfrwt beam="2">  1       -2 0.89555346E-01 0.79292509E+03</pdfrwt>
<totfact> 0.19090513E+01</totfact>
</mgrwt>
</event>
<event>
 4    5  0.1112901E-007  0.8546742E+03  0.7818608E-02  0.9603108E-01
          2   -1    0    0  501    0  0.00000000000E+00  0.00000000000E+00  0.30963399362E+04  0.30963399362E+04  0.25500000000E-02 0. -1.
         -2   -1    0    0    0  501 -0.00000000000E+00 -0.00000000000E+00 -0.54053243765E+03  0.54053243766E+03  0.25500000000E-02 0.  1.
    8880023    1    1    2    0    0  0.89334635556E+02 -0.53728686127E+03 -0.15417561396E+03  0.86846886796E+03  0.65864270000E+03 0.  0.
    8880022    1    1    2    0    0 -0.89334635556E+02  0.53728686127E+03  0.27099831125E+04  0.27684035059E+04  0.15294330000E+03 0.  0.
<mgrwt>
<rscale>  0 0.77090809E+03</rscale>
<asrwt>0</asrwt>
<pdfrwt beam="1">  1        2 0.47635998E+00 0.85467424E+03</pdfrwt>
<pdfrwt beam="2">  1       -2 0.83158838E-01 0.85467424E+03</pdfrwt>
<totfact> 0.20099977E+00</totfact>
</mgrwt>
</event>
<event>
 4    5  0.1112901E-007  0.9304422E+03  0.7818608E-02  0.9478830E-01
          2   -1    0    0  501    0  0.00000000000E+00  0.00000000000E+00  0.26468470905E+04  0.26468470905E+04  0.25500000000E-02 0. -1.
         -2   -1    0    0    0  501 -0.00000000000E+00 -0.00000000000E+00 -0.38507600167E+03  0.38507600168E+03  0.25500000000E-02 0.  1.
    8880023    1    1    2    0    0 -0.45139286569E+03 -0.47765786514E+03  0.33251966497E+03  0.98807494107E+03  0.65864270000E+03 0.  0.
    8880022    1    1    2    0    0  0.45139286569E+03  0.47765786514E+03  0.19292514239E+04  0.20438481511E+04  0.15294330000E+03 0.  0.
<mgrwt>
<rscale>  0 0.85862746E+03</rscale>
<asrwt>0</asrwt>
<pdfrwt beam="1">  1        2 0.40720724E+00 0.93044224E+03</pdfrwt>
<pdfrwt beam="2">  1       -2 0.59242463E-01 0.93044224E+03</pdfrwt>
<totfact> 0.77817791E+00</totfact>
</mgrwt>
</event>
<event>
 4    5  0.1112901E-007  0.8409306E+03  0.7818608E-02  0.9628428E-01
          2   -1    0    0  501    0  0.00000000000E+00  0.00000000000E+00  0.51233320143E+03  0.51233320144E+03  0.25500000000E-02 0. -1.
         -2   -1    0    0    0  501 -0.00000000000E+00 -0.00000000000E+00 -0.96234221833E+03  0.96234221834E+03  0.25500000000E-02 0.  1.
    8880023    1    1    2    0    0 -0.51607588069E+03 -0.83784227928E+02 -0.38893873029E+03  0.92651910594E+03  0.65864270000E+03 0.  0.
    8880022    1    1    2    0    0  0.51607588069E+03  0.83784227928E+02 -0.61070286611E+02  0.54815631384E+03  0.15294330000E+03 0.  0.
<mgrwt>
<rscale>  0 0.75442869E+03</rscale>
<asrwt>0</asrwt>
<pdfrwt beam="1">  1        2 0.78820493E-01 0.84093063E+03</pdfrwt>
<pdfrwt beam="2">  1       -2 0.14805265E+00 0.84093063E+03</pdfrwt>
<totfact> 0.18674581E+01</totfact>
</mgrwt>
</event>
<event>
 4    5  0.1112901E-007  0.6904179E+03  0.7818608E-02  0.1003955E+00
         -2   -1    0    0    0  501 -0.00000000000E+00  0.00000000000E+00  0.49681497103E+03  0.49681497104E+03  0.25500000000E-02 0.  1.
          2   -1    0    0  501    0  0.00000000000E+00 -0.00000000000E+00 -0.24493606873E+04  0.24493606873E+04  0.25500000000E-02 0. -1.
    8880023    1    1    2    0    0  0.11249536762E+03  0.17381426611E+03  0.24575780125E+03  0.73285312988E+03  0.65864270000E+03 0.  1.
    8880022    1    1    2    0    0 -0.11249536762E+03 -0.17381426611E+03 -0.21983035175E+04  0.22133225284E+04  0.15294330000E+03 0.  0.
<mgrwt>
<rscale>  0 0.53949697E+03</rscale>
<asrwt>0</asrwt>
<pdfrwt beam="1">  1        2 0.37682471E+00 0.69041785E+03</pdfrwt>
<pdfrwt beam="2">  1       -2 0.76433074E-01 0.69041785E+03</pdfrwt>
<totfact> 0.60410078E+00</totfact>
</mgrwt>
</event>
<event>
 4    5  0.1112901E-007  0.1200237E+04  0.7818608E-02  0.9156892E-01
          2   -1    0    0  501    0  0.00000000000E+00  0.00000000000E+00  0.17212585252E+04  0.17212585252E+04  0.25500000000E-02 0. -1.
         -2   -1    0    0    0  501 -0.00000000000E+00 -0.00000000000E+00 -0.12563599908E+04  0.12563599908E+04  0.25500000000E-02 0.  1.
    8880023    1    1    2    0    0 -0.76768027403E+03  0.64608423120E+03 -0.73392521294E+03  0.14068455002E+04  0.65864270000E+03 0.  1.
    8880022    1    1    2    0    0  0.76768027403E+03 -0.64608423120E+03  0.11988237473E+04  0.15707730158E+04  0.15294330000E+03 0. -1.
<mgrwt>
<rscale>  0 0.11509665E+04</rscale>
<asrwt>0</asrwt>
<pdfrwt beam="1">  1        2 0.26480900E+00 0.12002367E+04</pdfrwt>
<pdfrwt beam="2">  1       -2 0.19328615E+00 0.12002367E+04</pdfrwt>
<totfact> 0.13643248E+00</totfact>
</mgrwt>
</event>
<event>
 4    5  0.1112901E-007  0.1011733E+04  0.7818608E-02  0.9366366E-01
          2   -1    0    0  501    0  0.00000000000E+00  0.00000000000E+00  0.51736977676E+03  0.51736977677E+03  0.25500000000E-02 0. -1.
         -2   -1    0    0    0  501 -0.00000000000E+00 -0.00000000000E+00 -0.20060324409E+04  0.20060324409E+04  0.25500000000E-02 0.  1.
    8880023    1    1    2    0    0  0.29569518070E+03  0.70877172005E+03 -0.14113651727E+04  0.17365352999E+04  0.65864270000E+03 0.  0.
    8880022    1    1    2    0    0 -0.29569518070E+03 -0.70877172005E+03 -0.77297491474E+02  0.78686691774E+03  0.15294330000E+03 0.  0.
<mgrwt>
<rscale>  0 0.94896080E+03</rscale>
<asrwt>0</asrwt>
<pdfrwt beam="1">  1        2 0.79595351E-01 0.10117328E+04</pdfrwt>
<pdfrwt beam="2">  1       -2 0.30862037E+00 0.10117328E+04</pdfrwt>
<totfact> 0.16763829E+00</totfact>
</mgrwt>
</event>
<event>
 4    5  0.1112901E-007  0.8355042E+03  0.7818608E-02  0.9638716E-01
         -2   -1    0    0    0  501 -0.00000000000E+00  0.00000000000E+00  0.14330572494E+04  0.14330572494E+04  0.25500000000E-02 0.  1.
          2   -1    0    0  501    0  0.00000000000E+00 -0.00000000000E+00 -0.23181601867E+04  0.23181601867E+04  0.25500000000E-02 0. -1.
    8880023    1    1    2    0    0  0.14301179680E+03  0.49376587719E+03  0.12756429360E+04  0.15249040042E+04  0.65864270000E+03 0.  1.
    8880022    1    1    2    0    0 -0.14301179680E+03 -0.49376587719E+03 -0.21607458733E+04  0.22263134320E+04  0.15294330000E+03 0.  0.
<mgrwt>
<rscale>  0 0.74785828E+03</rscale>
<asrwt>0</asrwt>
<pdfrwt beam="1">  1        2 0.35664003E+00 0.83550423E+03</pdfrwt>
<pdfrwt beam="2">  1       -2 0.22047035E+00 0.83550423E+03</pdfrwt>
<totfact> 0.45049733E-01</totfact>
</mgrwt>
</event>
<event>
 4    5  0.1112901E-007  0.7791154E+03  0.7818608E-02  0.9757919E-01
          2   -1    0    0  501    0  0.00000000000E+00  0.00000000000E+00  0.27976284798E+04  0.27976284798E+04  0.25500000000E-02 0. -1.
         -2   -1    0    0    0  501 -0.00000000000E+00 -0.00000000000E+00 -0.54922045529E+03  0.54922045530E+03  0.25500000000E-02 0.  1.
    8880023    1    1    2    0    0  0.36728425969E+03  0.19573676476E+03 -0.24312588667E+03  0.81616849457E+03  0.65864270000E+03 0.  1.
    8880022    1    1    2    0    0 -0.36728425969E+03 -0.19573676476E+03  0.24915339112E+04  0.25306804406E+04  0.15294330000E+03 0.  0.
<mgrwt>
<rscale>  0 0.67670581E+03</rscale>
<asrwt>0</asrwt>
<pdfrwt beam="1">  1        2 0.43040438E+00 0.77911541E+03</pdfrwt>
<pdfrwt beam="2">  1       -2 0.84495455E-01 0.77911541E+03</pdfrwt>
<totfact> 0.29867544E+00</totfact>
</mgrwt>
</event>
<event>
 4    5  0.1112901E-007  0.1197711E+04  0.7818608E-02  0.9159350E-01
         -2   -1    0    0    0  501 -0.00000000000E+00  0.00000000000E+00  0.40980178681E+03  0.40980178682E+03  0.25500000000E-02 0.  1.
          2   -1    0    0  501    0  0.00000000000E+00 -0.00000000000E+00 -0.30948867399E+04  0.30948867399E+04  0.25500000000E-02 0. -1.
    8880023    1    1    2    0    0  0.54166567645E+03  0.84101137556E+03 -0.11127887841E+04  0.16348733661E+04  0.65864270000E+03 0.  0.
    8880022    1    1    2    0    0 -0.54166567645E+03 -0.84101137556E+03 -0.15722961690E+04  0.18698151607E+04  0.15294330000E+03 0.  0.
<mgrwt>
<rscale>  0 0.11483031E+04</rscale>
<asrwt>0</asrwt>
<pdfrwt beam="1">  1        2 0.47613641E+00 0.11977112E+04</pdfrwt>
<pdfrwt beam="2">  1       -2 0.63046431E-01 0.11977112E+04</pdfrwt>
<totfact> 0.35272576E+00</totfact>
</mgrwt>
</event>
<event>
 4    5  0.1595034E-007  0.1202803E+04  0.7818608E-02  0.9154402E-01
          2   -1    0    0  501    0  0.00000000000E+00  0.00000000000E+00  0.33211489630E+04  0.33211489630E+04  0.25500000000E-02 0. -1.
         -2   -1    0    0    0  501 -0.00000000000E+00 -0.00000000000E+00 -0.14003890044E+04  0.14003890044E+04  0.25500000000E-02 0.  1.
    8880023    1    1    2    0    0 -0.95160788534E+03 -0.32767082625E+03 -0.10403641717E+04  0.15903124076E+04  0.65864270000E+03 0.  1.
    8880022    1    1    2    0    0  0.95160788534E+03  0.32767082625E+03  0.29611241303E+04  0.31312255597E+04  0.15294330000E+03 0.  0.
<mgrwt>
<rscale>  0 0.11536726E+04</rscale>
<asrwt>0</asrwt>
<pdfrwt beam="1">  1        2 0.51094599E+00 0.12028034E+04</pdfrwt>
<pdfrwt beam="2">  1       -2 0.21544447E+00 0.12028034E+04</pdfrwt>
<totfact> 0.11261471E-01</totfact>
</mgrwt>
</event>
<event>
 4    5  0.1112901E-007  0.6653045E+03  0.7818608E-02  0.1019279E+00
          2   -1    0    0  501    0  0.00000000000E+00  0.00000000000E+00  0.19191340983E+04  0.19191340983E+04  0.25500000000E-02 0. -1.
         -2   -1    0    0    0  501 -0.00000000000E+00 -0.00000000000E+00 -0.27033668896E+03  0.27033668897E+03  0.25500000000E-02 0.  1.
    8880023    1    1    2    0    0  0.50063715137E+02  0.79457587171E+02  0.15264375959E+03  0.68259080520E+03  0.65864270000E+03 0.  1.
    8880022    1    1    2    0    0 -0.50063715137E+02 -0.79457587171E+02  0.14961536497E+04  0.15068799820E+04  0.15294330000E+03 0.  0.
<mgrwt>
<rscale>  0 0.47947590E+03</rscale>
<asrwt>0</asrwt>
<pdfrwt beam="1">  1        2 0.29525140E+00 0.66530451E+03</pdfrwt>
<pdfrwt beam="2">  1       -2 0.41590260E-01 0.66530451E+03</pdfrwt>
<totfact> 0.42241010E+01</totfact>
</mgrwt>
</event>
<event>
 4    5  0.1112901E-007  0.7370931E+03  0.7818608E-02  0.9868497E-01
         -2   -1    0    0    0  501 -0.00000000000E+00  0.00000000000E+00  0.14333610911E+03  0.14333610914E+03  0.25500000000E-02 0.  1.
          2   -1    0    0  501    0  0.00000000000E+00 -0.00000000000E+00 -0.35238009852E+04  0.35238009852E+04  0.25500000000E-02 0. -1.
    8880023    1    1    2    0    0 -0.11639465328E+02 -0.33069710503E+03 -0.91543728473E+03  0.11753006768E+04  0.65864270000E+03 0.  0.
    8880022    1    1    2    0    0  0.11639465328E+02  0.33069710503E+03 -0.24650275913E+04  0.24918364175E+04  0.15294330000E+03 0.  0.
<mgrwt>
<rscale>  0 0.61812650E+03</rscale>
<asrwt>0</asrwt>
<pdfrwt beam="1">  1        2 0.54212316E+00 0.73709311E+03</pdfrwt>
<pdfrwt beam="2">  1       -2 0.22051712E-01 0.73709311E+03</pdfrwt>
<totfact> 0.15188921E+01</totfact>
</mgrwt>
</event>
<event>
 4    5  0.1112901E-007  0.1113340E+04  0.7818608E-02  0.9246347E-01
          2   -1    0    0  501    0  0.00000000000E+00  0.00000000000E+00  0.15388605219E+04  0.15388605219E+04  0.25500000000E-02 0. -1.
         -2   -1    0    0    0  501 -0.00000000000E+00 -0.00000000000E+00 -0.72543090792E+03  0.72543090792E+03  0.25500000000E-02 0.  1.
    8880023    1    1    2    0    0  0.65010223095E+03 -0.61893682099E+03  0.76813683682E+03  0.13526123264E+04  0.65864270000E+03 0.  0.
    8880022    1    1    2    0    0 -0.65010223095E+03  0.61893682099E+03  0.45292777187E+02  0.91167910349E+03  0.15294330000E+03 0.  0.
<mgrwt>
<rscale>  0 0.10587592E+04</rscale>
<asrwt>0</asrwt>
<pdfrwt beam="1">  1        2 0.23674777E+00 0.11133400E+04</pdfrwt>
<pdfrwt beam="2">  1       -2 0.11160476E+00 0.11133400E+04</pdfrwt>
<totfact> 0.75311222E+00</totfact>
</mgrwt>
</event>
<event>
 4    5  0.1112901E-007  0.9598953E+03  0.7818608E-02  0.9436018E-01
          2   -1    0    0  501    0  0.00000000000E+00  0.00000000000E+00  0.24005492705E+04  0.24005492705E+04  0.25500000000E-02 0. -1.
         -2   -1    0    0    0  501 -0.00000000000E+00 -0.00000000000E+00 -0.45306716082E+03  0.45306716083E+03  0.25500000000E-02 0.  1.
    8880023    1    1    2    0    0  0.54453728981E+03 -0.43711321377E+03  0.22100844964E+03  0.98500952418E+03  0.65864270000E+03 0.  0.
    8880022    1    1    2    0    0 -0.54453728981E+03  0.43711321377E+03  0.17264736601E+04  0.18686069072E+04  0.15294330000E+03 0.  0.
<mgrwt>
<rscale>  0 0.89169934E+03</rscale>
<asrwt>0</asrwt>
<pdfrwt beam="1">  1        2 0.36931527E+00 0.95989532E+03</pdfrwt>
<pdfrwt beam="2">  1       -2 0.69702640E-01 0.95989532E+03</pdfrwt>
<totfact> 0.75613670E+00</totfact>
</mgrwt>
</event>
<event>
 4    5  0.1112901E-007  0.7859931E+03  0.7818608E-02  0.9741943E-01
          2   -1    0    0  501    0  0.00000000000E+00  0.00000000000E+00  0.24182369460E+04  0.24182369460E+04  0.25500000000E-02 0. -1.
         -2   -1    0    0    0  501 -0.00000000000E+00 -0.00000000000E+00 -0.27781802318E+03  0.27781802319E+03  0.25500000000E-02 0.  1.
    8880023    1    1    2    0    0 -0.41061051170E+02  0.42695312459E+03  0.37132227060E+03  0.86929017907E+03  0.65864270000E+03 0.  1.
    8880022    1    1    2    0    0  0.41061051170E+02 -0.42695312459E+03  0.17690966522E+04  0.18267647901E+04  0.15294330000E+03 0.  0.
<mgrwt>
<rscale>  0 0.68573516E+03</rscale>
<asrwt>0</asrwt>
<pdfrwt beam="1">  1        2 0.37203646E+00 0.78599312E+03</pdfrwt>
<pdfrwt beam="2">  1       -2 0.42741233E-01 0.78599312E+03</pdfrwt>
<totfact> 0.20905838E+01</totfact>
</mgrwt>
</event>
<event>
 4    5  0.1112901E-007  0.7510182E+03  0.7818608E-02  0.9828941E-01
         -2   -1    0    0    0  501 -0.00000000000E+00  0.00000000000E+00  0.95563839591E+03  0.95563839592E+03  0.25500000000E-02 0.  1.
          2   -1    0    0  501    0  0.00000000000E+00 -0.00000000000E+00 -0.89510633680E+03  0.89510633681E+03  0.25500000000E-02 0. -1.
    8880023    1    1    2    0    0  0.15131932400E+03 -0.32759821149E+03  0.74764096938E+03  0.10597147500E+04  0.65864270000E+03 0.  1.
    8880022    1    1    2    0    0 -0.15131932400E+03  0.32759821149E+03 -0.68710891027E+03  0.79102998273E+03  0.15294330000E+03 0.  0.
<mgrwt>
<rscale>  0 0.63832257E+03</rscale>
<asrwt>0</asrwt>
<pdfrwt beam="1">  1        2 0.13770867E+00 0.75101820E+03</pdfrwt>
<pdfrwt beam="2">  1       -2 0.14702129E+00 0.75101820E+03</pdfrwt>
<totfact> 0.94926242E+00</totfact>
</mgrwt>
</event>
<event>
 4    5  0.1112901E-007  0.7443540E+03  0.7818608E-02  0.9847441E-01
          2   -1    0    0  501    0  0.00000000000E+00  0.00000000000E+00  0.30505241393E+04  0.30505241393E+04  0.25500000000E-02 0. -1.
         -2   -1    0    0    0  501 -0.00000000000E+00 -0.00000000000E+00 -0.34318744224E+03  0.34318744225E+03  0.25500000000E-02 0.  1.
    8880023    1    1    2    0    0  0.10405382336E+03  0.33079522672E+03  0.90804171729E+02  0.74987217847E+03  0.65864270000E+03 0.  1.
    8880022    1    1    2    0    0 -0.10405382336E+03 -0.33079522672E+03  0.26165325253E+04  0.26438394030E+04  0.15294330000E+03 0.  1.
<mgrwt>
<rscale>  0 0.62877564E+03</rscale>
<asrwt>0</asrwt>
<pdfrwt beam="1">  1        2 0.46931139E+00 0.74435401E+03</pdfrwt>
<pdfrwt beam="2">  1       -2 0.52798070E-01 0.74435401E+03</pdfrwt>
<totfact> 0.58494749E+00</totfact>
</mgrwt>
</event>
<event>
 4    5  0.1112901E-007  0.7032740E+03  0.7818608E-02  0.9983881E-01
          2   -1    0    0  501    0  0.00000000000E+00  0.00000000000E+00  0.10632545289E+04  0.10632545290E+04  0.25500000000E-02 0. -1.
         -2   -1    0    0    0  501 -0.00000000000E+00 -0.00000000000E+00 -0.67525331939E+03  0.67525331939E+03  0.25500000000E-02 0.  1.
    8880023    1    1    2    0    0 -0.15101265399E+03  0.19488281494E+03 -0.46126776975E+03  0.84104833089E+03  0.65864270000E+03 0.  1.
    8880022    1    1    2    0    0  0.15101265399E+03 -0.19488281494E+03  0.84926897931E+03  0.89745951745E+03  0.15294330000E+03 0.  0.
<mgrwt>
<rscale>  0 0.56362705E+03</rscale>
<asrwt>0</asrwt>
<pdfrwt beam="1">  1        2 0.16357762E+00 0.70327401E+03</pdfrwt>
<pdfrwt beam="2">  1       -2 0.10388513E+00 0.70327401E+03</pdfrwt>
<totfact> 0.17713071E+01</totfact>
</mgrwt>
</event>
<event>
 4    5  0.1112901E-007  0.6624873E+03  0.7818608E-02  0.1021741E+00
          2   -1    0    0  501    0  0.00000000000E+00  0.00000000000E+00  0.22920403364E+04  0.22920403364E+04  0.25500000000E-02 0. -1.
         -2   -1    0    0    0  501 -0.00000000000E+00 -0.00000000000E+00 -0.76669813119E+02  0.76669813162E+02  0.25500000000E-02 0.  1.
    8880023    1    1    2    0    0 -0.63139510793E+02 -0.33055137528E+02  0.16294045245E+04  0.17589339244E+04  0.65864270000E+03 0.  1.
    8880022    1    1    2    0    0  0.63139510793E+02  0.33055137528E+02  0.58596599879E+03  0.60977622510E+03  0.15294330000E+03 0. -1.
<mgrwt>
<rscale>  0 0.47063402E+03</rscale>
<asrwt>0</asrwt>
<pdfrwt beam="1">  1        2 0.35262155E+00 0.66248732E+03</pdfrwt>
<pdfrwt beam="2">  1       -2 0.11795357E-01 0.66248732E+03</pdfrwt>
<totfact> 0.24953085E+02</totfact>
</mgrwt>
</event>
<event>
 4    5  0.1112901E-007  0.1725207E+04  0.7818608E-02  0.8765078E-01
          2   -1    0    0  501    0  0.00000000000E+00  0.00000000000E+00  0.11265322286E+04  0.11265322286E+04  0.25500000000E-02 0. -1.
         -2   -1    0    0    0  501 -0.00000000000E+00 -0.00000000000E+00 -0.29919301219E+04  0.29919301219E+04  0.25500000000E-02 0.  1.
    8880023    1    1    2    0    0 -0.14545540671E+04  0.65329934169E+03 -0.18317275378E+04  0.25162598322E+04  0.65864270000E+03 0.  0.
    8880022    1    1    2    0    0  0.14545540671E+04 -0.65329934169E+03 -0.33670355470E+02  0.16022025183E+04  0.15294330000E+03 0.  0.
<mgrwt>
<rscale>  0 0.16935039E+04</rscale>
<asrwt>0</asrwt>
<pdfrwt beam="1">  1        2 0.17331265E+00 0.17252066E+04</pdfrwt>
<pdfrwt beam="2">  1       -2 0.46029694E+00 0.17252066E+04</pdfrwt>
<totfact> 0.57383858E-02</totfact>
</mgrwt>
</event>
<event>
 4    5  0.1112901E-007  0.6974386E+03  0.7818608E-02  0.1000800E+00
          2   -1    0    0  501    0  0.00000000000E+00  0.00000000000E+00  0.68973890190E+03  0.68973890191E+03  0.25500000000E-02 0. -1.
         -2   -1    0    0    0  501 -0.00000000000E+00 -0.00000000000E+00 -0.54385754320E+03  0.54385754321E+03  0.25500000000E-02 0.  1.
    8880023    1    1    2    0    0  0.20523651483E+03  0.10241255471E+03 -0.25882303165E+03  0.74391526826E+03  0.65864270000E+03 0.  1.
    8880022    1    1    2    0    0 -0.20523651483E+03 -0.10241255471E+03  0.40470439035E+03  0.48968117685E+03  0.15294330000E+03 0.  0.
<mgrwt>
<rscale>  0 0.55300952E+03</rscale>
<asrwt>0</asrwt>
<pdfrwt beam="1">  1        2 0.10611368E+00 0.69743857E+03</pdfrwt>
<pdfrwt beam="2">  1       -2 0.83670391E-01 0.69743857E+03</pdfrwt>
<totfact> 0.53016558E+01</totfact>
</mgrwt>
</event>
<event>
 4    5  0.1112901E-007  0.9276985E+03  0.7818608E-02  0.9482954E-01
         -2   -1    0    0    0  501 -0.00000000000E+00  0.00000000000E+00  0.63081282014E+03  0.63081282014E+03  0.25500000000E-02 0.  1.
          2   -1    0    0  501    0  0.00000000000E+00 -0.00000000000E+00 -0.10827924321E+04  0.10827924321E+04  0.25500000000E-02 0. -1.
    8880023    1    1    2    0    0  0.55620315222E+03 -0.34271316996E+03 -0.44867456585E+02  0.92878283701E+03  0.65864270000E+03 0.  0.
    8880022    1    1    2    0    0 -0.55620315222E+03  0.34271316996E+03 -0.40711215540E+03  0.78482241526E+03  0.15294330000E+03 0.  0.
<mgrwt>
<rscale>  0 0.85552269E+03</rscale>
<asrwt>0</asrwt>
<pdfrwt beam="1">  1        2 0.16658345E+00 0.92769848E+03</pdfrwt>
<pdfrwt beam="2">  1       -2 0.97048126E-01 0.92769848E+03</pdfrwt>
<totfact> 0.19799456E+01</totfact>
</mgrwt>
</event>
<event>
 4    5  0.1112901E-007  0.1093214E+04  0.7818608E-02  0.9268649E-01
          2   -1    0    0  501    0  0.00000000000E+00  0.00000000000E+00  0.52647786959E+03  0.52647786959E+03  0.25500000000E-02 0. -1.
         -2   -1    0    0    0  501 -0.00000000000E+00 -0.00000000000E+00 -0.25435729686E+04  0.25435729686E+04  0.25500000000E-02 0.  1.
    8880023    1    1    2    0    0  0.85287519698E+03 -0.18414960997E+03 -0.18784904140E+04  0.21734405035E+04  0.65864270000E+03 0.  0.
    8880022    1    1    2    0    0 -0.85287519698E+03  0.18414960997E+03 -0.13860468494E+03  0.89661033463E+03  0.15294330000E+03 0.  0.
<mgrwt>
<rscale>  0 0.10372103E+04</rscale>
<asrwt>0</asrwt>
<pdfrwt beam="1">  1        2 0.80996597E-01 0.10932142E+04</pdfrwt>
<pdfrwt beam="2">  1       -2 0.39131891E+00 0.10932142E+04</pdfrwt>
<totfact> 0.49329044E-01</totfact>
</mgrwt>
</event>
<event>
 4    5  0.1112901E-007  0.7015647E+03  0.7818608E-02  0.9990771E-01
         -2   -1    0    0    0  501 -0.00000000000E+00  0.00000000000E+00  0.63772901463E+03  0.63772901464E+03  0.25500000000E-02 0.  1.
          2   -1    0    0  501    0  0.00000000000E+00 -0.00000000000E+00 -0.14650169811E+04  0.14650169811E+04  0.25500000000E-02 0. -1.
    8880023    1    1    2    0    0  0.22447235376E+03 -0.89414818922E+02  0.42363843873E+03  0.81955023060E+03  0.65864270000E+03 0.  0.
    8880022    1    1    2    0    0 -0.22447235376E+03  0.89414818922E+02 -0.12509264052E+04  0.12831957651E+04  0.15294330000E+03 0. -1.
<mgrwt>
<rscale>  0 0.56056766E+03</rscale>
<asrwt>0</asrwt>
<pdfrwt beam="1">  1        2 0.22538723E+00 0.70156472E+03</pdfrwt>
<pdfrwt beam="2">  1       -2 0.98112156E-01 0.70156472E+03</pdfrwt>
<totfact> 0.11832146E+01</totfact>
</mgrwt>
</event>
<event>
 4    5  0.1112901E-007  0.1246631E+04  0.7818608E-02  0.9113075E-01
         -2   -1    0    0    0  501 -0.00000000000E+00  0.00000000000E+00  0.38960230838E+04  0.38960230838E+04  0.25500000000E-02 0.  1.
          2   -1    0    0  501    0  0.00000000000E+00 -0.00000000000E+00 -0.83720896209E+03  0.83720896209E+03  0.25500000000E-02 0. -1.
    8880023    1    1    2    0    0 -0.97567955349E+03  0.41027826488E+03  0.33914153971E+04  0.36132793205E+04  0.65864270000E+03 0.  0.
    8880022    1    1    2    0    0  0.97567955349E+03 -0.41027826488E+03 -0.33260127541E+03  0.11199527254E+04  0.15294330000E+03 0.  0.
<mgrwt>
<rscale>  0 0.11997509E+04</rscale>
<asrwt>0</asrwt>
<pdfrwt beam="1">  1        2 0.12880138E+00 0.12466311E+04</pdfrwt>
<pdfrwt beam="2">  1       -2 0.59938817E+00 0.12466311E+04</pdfrwt>
<totfact> 0.15666262E-02</totfact>
</mgrwt>
</event>
<event>
 4    5  0.1112901E-007  0.7516826E+03  0.7818608E-02  0.9827137E-01
         -2   -1    0    0    0  501 -0.00000000000E+00  0.00000000000E+00  0.82647305937E+03  0.82647305937E+03  0.25500000000E-02 0.  1.
          2   -1    0    0  501    0  0.00000000000E+00 -0.00000000000E+00 -0.12344687363E+04  0.12344687363E+04  0.25500000000E-02 0. -1.
    8880023    1    1    2    0    0  0.35723367255E+03 -0.60005390643E+02  0.61101983892E+03  0.96869602741E+03  0.65864270000E+03 0.  0.
    8880022    1    1    2    0    0 -0.35723367255E+03  0.60005390643E+02 -0.10190155158E+04  0.10922457682E+04  0.15294330000E+03 0.  0.
<mgrwt>
<rscale>  0 0.63926355E+03</rscale>
<asrwt>0</asrwt>
<pdfrwt beam="1">  1        2 0.18991827E+00 0.75168261E+03</pdfrwt>
<pdfrwt beam="2">  1       -2 0.12714970E+00 0.75168261E+03</pdfrwt>
<totfact> 0.84675824E+00</totfact>
</mgrwt>
</event>
<event>
 4    5  0.1112901E-007  0.1016126E+04  0.7818608E-02  0.9360757E-01
         -2   -1    0    0    0  501 -0.00000000000E+00  0.00000000000E+00  0.21803231692E+04  0.21803231692E+04  0.25500000000E-02 0.  1.
          2   -1    0    0  501    0  0.00000000000E+00 -0.00000000000E+00 -0.14853515855E+04  0.14853515855E+04  0.25500000000E-02 0. -1.
    8880023    1    1    2    0    0 -0.51507069167E+03 -0.57741171072E+03  0.19410613745E+04  0.21909430771E+04  0.65864270000E+03 0.  1.
    8880022    1    1    2    0    0  0.51507069167E+03  0.57741171072E+03 -0.12460897909E+04  0.14747316776E+04  0.15294330000E+03 0.  0.
<mgrwt>
<rscale>  0 0.95376788E+03</rscale>
<asrwt>0</asrwt>
<pdfrwt beam="1">  1        2 0.22851563E+00 0.10161261E+04</pdfrwt>
<pdfrwt beam="2">  1       -2 0.33543433E+00 0.10161261E+04</pdfrwt>
<totfact> 0.25037084E-01</totfact>
</mgrwt>
</event>
<event>
 4    5  0.1112901E-007  0.8268522E+03  0.7818608E-02  0.9655488E-01
         -2   -1    0    0    0  501 -0.00000000000E+00  0.00000000000E+00  0.14439834275E+04  0.14439834276E+04  0.25500000000E-02 0.  1.
          2   -1    0    0  501    0  0.00000000000E+00 -0.00000000000E+00 -0.10595897790E+04  0.10595897790E+04  0.25500000000E-02 0. -1.
    8880023    1    1    2    0    0  0.36158754584E+03 -0.34515042732E+03  0.12462337542E+04  0.14955878935E+04  0.65864270000E+03 0.  0.
    8880022    1    1    2    0    0 -0.36158754584E+03  0.34515042732E+03 -0.86184010565E+03  0.10079853131E+04  0.15294330000E+03 0.  0.
<mgrwt>
<rscale>  0 0.73729981E+03</rscale>
<asrwt>0</asrwt>
<pdfrwt beam="1">  1        2 0.16301381E+00 0.82685221E+03</pdfrwt>
<pdfrwt beam="2">  1       -2 0.22215130E+00 0.82685221E+03</pdfrwt>
<totfact> 0.22484244E+00</totfact>
</mgrwt>
</event>
<event>
 4    5  0.1112901E-007  0.1493352E+04  0.7818608E-02  0.8914345E-01
          2   -1    0    0  501    0  0.00000000000E+00  0.00000000000E+00  0.91124185243E+03  0.91124185244E+03  0.25500000000E-02 0. -1.
         -2   -1    0    0    0  501 -0.00000000000E+00 -0.00000000000E+00 -0.43765886826E+04  0.43765886826E+04  0.25500000000E-02 0.  1.
    8880023    1    1    2    0    0  0.13383181917E+04 -0.72069369180E+02 -0.36335216144E+04  0.39284321434E+04  0.65864270000E+03 0.  1.
    8880022    1    1    2    0    0 -0.13383181917E+04  0.72069369180E+02  0.16817478428E+03  0.13593983917E+04  0.15294330000E+03 0.  0.
<mgrwt>
<rscale>  0 0.14558647E+04</rscale>
<asrwt>0</asrwt>
<pdfrwt beam="1">  1        2 0.14019106E+00 0.14933519E+04</pdfrwt>
<pdfrwt beam="2">  1       -2 0.67332132E+00 0.14933519E+04</pdfrwt>
<totfact> 0.75136940E-03</totfact>
</mgrwt>
</event>
<event>
 4    5  0.1112901E-007  0.9654112E+03  0.7818608E-02  0.9428279E-01
          2   -1    0    0  501    0  0.00000000000E+00  0.00000000000E+00  0.39506719574E+04  0.39506719574E+04  0.25500000000E-02 0. -1.
         -2   -1    0    0    0  501 -0.00000000000E+00 -0.00000000000E+00 -0.20319946376E+03  0.20319946378E+03  0.25500000000E-02 0.  1.
    8880023    1    1    2    0    0  0.70284492442E+03 -0.64943461970E+02  0.14213699855E+04  0.17182291707E+04  0.65864270000E+03 0.  0.
    8880022    1    1    2    0    0 -0.70284492442E+03  0.64943461970E+02  0.23261025081E+04  0.24356422505E+04  0.15294330000E+03 0.  0.
<mgrwt>
<rscale>  0 0.89784525E+03</rscale>
<asrwt>0</asrwt>
<pdfrwt beam="1">  1        2 0.60779572E+00 0.96541123E+03</pdfrwt>
<pdfrwt beam="2">  1       -2 0.31261454E-01 0.96541123E+03</pdfrwt>
<totfact> 0.37652785E+00</totfact>
</mgrwt>
</event>
<event>
 4    5  0.1112901E-007  0.8158609E+03  0.7818608E-02  0.9677496E-01
          2   -1    0    0  501    0  0.00000000000E+00  0.00000000000E+00  0.22751960951E+04  0.22751960951E+04  0.25500000000E-02 0. -1.
         -2   -1    0    0    0  501 -0.00000000000E+00 -0.00000000000E+00 -0.97784070500E+03  0.97784070500E+03  0.25500000000E-02 0.  1.
    8880023    1    1    2    0    0  0.25294923216E+02  0.48081078390E+03 -0.77181553746E+03  0.11230887201E+04  0.65864270000E+03 0.  1.
    8880022    1    1    2    0    0 -0.25294923216E+02 -0.48081078390E+03  0.20691709276E+04  0.21299480800E+04  0.15294330000E+03 0.  0.
<mgrwt>
<rscale>  0 0.72372640E+03</rscale>
<asrwt>0</asrwt>
<pdfrwt beam="1">  1        2 0.35003016E+00 0.81586093E+03</pdfrwt>
<pdfrwt beam="2">  1       -2 0.15043703E+00 0.81586093E+03</pdfrwt>
<totfact> 0.14375314E+00</totfact>
</mgrwt>
</event>
<event>
 4    5  0.1112901E-007  0.1042019E+04  0.7818608E-02  0.9328537E-01
          2   -1    0    0  501    0  0.00000000000E+00  0.00000000000E+00  0.29241580877E+04  0.29241580877E+04  0.25500000000E-02 0. -1.
         -2   -1    0    0    0  501 -0.00000000000E+00 -0.00000000000E+00 -0.99007142349E+03  0.99007142350E+03  0.25500000000E-02 0.  1.
    8880023    1    1    2    0    0  0.11884751512E+03 -0.79866724366E+03 -0.63271830886E+03  0.12190720908E+04  0.65864270000E+03 0.  0.
    8880022    1    1    2    0    0 -0.11884751512E+03  0.79866724366E+03  0.25668049731E+04  0.26951574204E+04  0.15294330000E+03 0.  0.
<mgrwt>
<rscale>  0 0.98197588E+03</rscale>
<asrwt>0</asrwt>
<pdfrwt beam="1">  1        2 0.44987048E+00 0.10420193E+04</pdfrwt>
<pdfrwt beam="2">  1       -2 0.15231868E+00 0.10420193E+04</pdfrwt>
<totfact> 0.56259221E-01</totfact>
</mgrwt>
</event>
<event>
 4    5  0.1112901E-007  0.1604890E+04  0.7818608E-02  0.8838914E-01
         -2   -1    0    0    0  501 -0.00000000000E+00  0.00000000000E+00  0.10411415913E+04  0.10411415913E+04  0.25500000000E-02 0.  1.
          2   -1    0    0  501    0  0.00000000000E+00 -0.00000000000E+00 -0.46909431745E+04  0.46909431745E+04  0.25500000000E-02 0. -1.
    8880023    1    1    2    0    0  0.10960675419E+03 -0.14594002330E+04  0.19369687141E+03  0.16165368430E+04  0.65864270000E+03 0.  0.
    8880022    1    1    2    0    0 -0.10960675419E+03  0.14594002330E+04 -0.38434984547E+04  0.41155479228E+04  0.15294330000E+03 0.  0.
<mgrwt>
<rscale>  0 0.15704446E+04</rscale>
<asrwt>0</asrwt>
<pdfrwt beam="1">  1        2 0.72168356E+00 0.16048903E+04</pdfrwt>
<pdfrwt beam="2">  1       -2 0.16017563E+00 0.16048903E+04</pdfrwt>
<totfact> 0.18899191E-02</totfact>
</mgrwt>
</event>
<event>
 4    5  0.1112901E-007  0.1507627E+04  0.7818608E-02  0.8904269E-01
          2   -1    0    0  501    0  0.00000000000E+00  0.00000000000E+00  0.28321177238E+04  0.28321177238E+04  0.25500000000E-02 0. -1.
         -2   -1    0    0    0  501 -0.00000000000E+00 -0.00000000000E+00 -0.12292337825E+04  0.12292337825E+04  0.25500000000E-02 0.  1.
    8880023    1    1    2    0    0 -0.99739278059E+03  0.91887708775E+03 -0.47031367790E+03  0.15792823127E+04  0.65864270000E+03 0.  0.
    8880022    1    1    2    0    0  0.99739278059E+03 -0.91887708775E+03  0.20731976191E+04  0.24820691937E+04  0.15294330000E+03 0.  0.
<mgrwt>
<rscale>  0 0.14705606E+04</rscale>
<asrwt>0</asrwt>
<pdfrwt beam="1">  1        2 0.43571042E+00 0.15076265E+04</pdfrwt>
<pdfrwt beam="2">  1       -2 0.18911289E+00 0.15076265E+04</pdfrwt>
<totfact> 0.32702518E-01</totfact>
</mgrwt>
</event>
<event>
 4    5  0.1112901E-007  0.7405588E+03  0.7818608E-02  0.9858322E-01
         -2   -1    0    0    0  501 -0.00000000000E+00  0.00000000000E+00  0.23070699448E+04  0.23070699448E+04  0.25500000000E-02 0.  1.
          2   -1    0    0  501    0  0.00000000000E+00 -0.00000000000E+00 -0.14860843095E+03  0.14860843097E+03  0.25500000000E-02 0. -1.
    8880023    1    1    2    0    0  0.26140355997E+02  0.33754087091E+03  0.17674581755E+04  0.19163339391E+04  0.65864270000E+03 0.  1.
    8880022    1    1    2    0    0 -0.26140355997E+02 -0.33754087091E+03  0.39100333830E+03  0.53934443662E+03  0.15294330000E+03 0.  0.
<mgrwt>
<rscale>  0 0.62324388E+03</rscale>
<asrwt>0</asrwt>
<pdfrwt beam="1">  1        2 0.22862835E-01 0.74055882E+03</pdfrwt>
<pdfrwt beam="2">  1       -2 0.35493384E+00 0.74055882E+03</pdfrwt>
<totfact> 0.37074540E+00</totfact>
</mgrwt>
</event>
<event>
 4    5  0.1112901E-007  0.9350880E+03  0.7818608E-02  0.9471902E-01
         -2   -1    0    0    0  501 -0.00000000000E+00  0.00000000000E+00  0.11206487940E+04  0.11206487940E+04  0.25500000000E-02 0.  1.
          2   -1    0    0  501    0  0.00000000000E+00 -0.00000000000E+00 -0.14782418218E+04  0.14782418218E+04  0.25500000000E-02 0. -1.
    8880023    1    1    2    0    0 -0.47259267750E+03  0.46608539525E+03  0.81657944953E+03  0.12414473964E+04  0.65864270000E+03 0.  1.
    8880022    1    1    2    0    0  0.47259267750E+03 -0.46608539525E+03 -0.11741724773E+04  0.13574432194E+04  0.15294330000E+03 0.  0.
<mgrwt>
<rscale>  0 0.86387467E+03</rscale>
<asrwt>0</asrwt>
<pdfrwt beam="1">  1        2 0.22742182E+00 0.93508804E+03</pdfrwt>
<pdfrwt beam="2">  1       -2 0.17240751E+00 0.93508804E+03</pdfrwt>
<totfact> 0.26778079E+00</totfact>
</mgrwt>
</event>
<event>
 4    5  0.1112901E-007  0.8127671E+03  0.7818608E-02  0.9683842E-01
          2   -1    0    0  501    0  0.00000000000E+00  0.00000000000E+00  0.28937674817E+04  0.28937674817E+04  0.25500000000E-02 0. -1.
         -2   -1    0    0    0  501 -0.00000000000E+00 -0.00000000000E+00 -0.42169607103E+03  0.42169607104E+03  0.25500000000E-02 0.  1.
    8880023    1    1    2    0    0  0.44949082416E+03  0.15728353956E+03  0.20118764186E+02  0.81301604151E+03  0.65864270000E+03 0.  0.
    8880022    1    1    2    0    0 -0.44949082416E+03 -0.15728353956E+03  0.24519526465E+04  0.25024475112E+04  0.15294330000E+03 0.  0.
<mgrwt>
<rscale>  0 0.71987048E+03</rscale>
<asrwt>0</asrwt>
<pdfrwt beam="1">  1        2 0.44519501E+00 0.81276708E+03</pdfrwt>
<pdfrwt beam="2">  1       -2 0.64876316E-01 0.81276708E+03</pdfrwt>
<totfact> 0.46670965E+00</totfact>
</mgrwt>
</event>
<event>
 4    5  0.1112901E-007  0.1287939E+04  0.7818608E-02  0.9076046E-01
         -2   -1    0    0    0  501 -0.00000000000E+00  0.00000000000E+00  0.10689163267E+04  0.10689163267E+04  0.25500000000E-02 0.  1.
          2   -1    0    0  501    0  0.00000000000E+00 -0.00000000000E+00 -0.17083990524E+04  0.17083990524E+04  0.25500000000E-02 0. -1.
    8880023    1    1    2    0    0  0.10276984723E+04  0.41086872730E+03  0.29435551585E+03  0.13211482267E+04  0.65864270000E+03 0.  0.
    8880022    1    1    2    0    0 -0.10276984723E+04 -0.41086872730E+03 -0.93383824161E+03  0.14561671523E+04  0.15294330000E+03 0.  0.
<mgrwt>
<rscale>  0 0.12429807E+04</rscale>
<asrwt>0</asrwt>
<pdfrwt beam="1">  1        2 0.26283062E+00 0.12879392E+04</pdfrwt>
<pdfrwt beam="2">  1       -2 0.16444867E+00 0.12879392E+04</pdfrwt>
<totfact> 0.21818477E+00</totfact>
</mgrwt>
</event>
<event>
 4    5  0.1112901E-007  0.6769013E+03  0.7818608E-02  0.1011134E+00
          2   -1    0    0  501    0  0.00000000000E+00  0.00000000000E+00  0.36526993359E+03  0.36526993359E+03  0.25500000000E-02 0. -1.
         -2   -1    0    0    0  501 -0.00000000000E+00 -0.00000000000E+00 -0.12588710698E+04  0.12588710698E+04  0.25500000000E-02 0.  1.
    8880023    1    1    2    0    0  0.10840673549E+03  0.11239700159E+03 -0.11204975205E+04  0.13090874707E+04  0.65864270000E+03 0.  1.
    8880022    1    1    2    0    0 -0.10840673549E+03 -0.11239700159E+03  0.22689638426E+03  0.31505353271E+03  0.15294330000E+03 0.  0.
<mgrwt>
<rscale>  0 0.51026535E+03</rscale>
<asrwt>0</asrwt>
<pdfrwt beam="1">  1        2 0.56195375E-01 0.67690126E+03</pdfrwt>
<pdfrwt beam="2">  1       -2 0.19367247E+00 0.67690126E+03</pdfrwt>
<totfact> 0.13220755E+01</totfact>
</mgrwt>
</event>
<event>
 4    5  0.1112901E-007  0.8848411E+03  0.7818608E-02  0.9550818E-01
          2   -1    0    0  501    0  0.00000000000E+00  0.00000000000E+00  0.14877241796E+04  0.14877241796E+04  0.25500000000E-02 0. -1.
         -2   -1    0    0    0  501 -0.00000000000E+00 -0.00000000000E+00 -0.10566893571E+04  0.10566893571E+04  0.25500000000E-02 0.  1.
    8880023    1    1    2    0    0 -0.54135156633E+03 -0.23679538750E+03 -0.78560129239E+03  0.11832637790E+04  0.65864270000E+03 0.  0.
    8880022    1    1    2    0    0  0.54135156633E+03  0.23679538750E+03  0.12166361149E+04  0.13611497577E+04  0.15294330000E+03 0.  0.
<mgrwt>
<rscale>  0 0.80638683E+03</rscale>
<asrwt>0</asrwt>
<pdfrwt beam="1">  1        2 0.22888064E+00 0.88484110E+03</pdfrwt>
<pdfrwt beam="2">  1       -2 0.16256759E+00 0.88484110E+03</pdfrwt>
<totfact> 0.31327632E+00</totfact>
</mgrwt>
</event>
<event>
 4    5  0.1112901E-007  0.1095402E+04  0.7818608E-02  0.9266193E-01
          2   -1    0    0  501    0  0.00000000000E+00  0.00000000000E+00  0.30204898281E+04  0.30204898281E+04  0.25500000000E-02 0. -1.
         -2   -1    0    0    0  501 -0.00000000000E+00 -0.00000000000E+00 -0.60320532714E+03  0.60320532715E+03  0.25500000000E-02 0.  1.
    8880023    1    1    2    0    0  0.51179388986E+03  0.71004352674E+03  0.51560532939E+02  0.10966145587E+04  0.65864270000E+03 0.  0.
    8880022    1    1    2    0    0 -0.51179388986E+03 -0.71004352674E+03  0.23657239680E+04  0.25270805965E+04  0.15294330000E+03 0.  0.
<mgrwt>
<rscale>  0 0.10395566E+04</rscale>
<asrwt>0</asrwt>
<pdfrwt beam="1">  1        2 0.46469075E+00 0.10954018E+04</pdfrwt>
<pdfrwt beam="2">  1       -2 0.92800819E-01 0.10954018E+04</pdfrwt>
<totfact> 0.16740531E+00</totfact>
</mgrwt>
</event>
<event>
 4    5  0.1112901E-007  0.1264225E+04  0.7818608E-02  0.9097087E-01
         -2   -1    0    0    0  501 -0.00000000000E+00  0.00000000000E+00  0.53373140573E+03  0.53373140573E+03  0.25500000000E-02 0.  1.
          2   -1    0    0  501    0  0.00000000000E+00 -0.00000000000E+00 -0.31403582653E+04  0.31403582653E+04  0.25500000000E-02 0. -1.
    8880023    1    1    2    0    0  0.10735879598E+04 -0.10891554129E+03 -0.61984376735E+03  0.14080022034E+04  0.65864270000E+03 0.  0.
    8880022    1    1    2    0    0 -0.10735879598E+04  0.10891554129E+03 -0.19867830922E+04  0.22660874677E+04  0.15294330000E+03 0.  0.
<mgrwt>
<rscale>  0 0.12181848E+04</rscale>
<asrwt>0</asrwt>
<pdfrwt beam="1">  1        2 0.48313203E+00 0.12642246E+04</pdfrwt>
<pdfrwt beam="2">  1       -2 0.82112526E-01 0.12642246E+04</pdfrwt>
<totfact> 0.18245860E+00</totfact>
</mgrwt>
</event>
<event>
 4    5  0.1112901E-007  0.8877295E+03  0.7818608E-02  0.9546024E-01
         -2   -1    0    0    0  501 -0.00000000000E+00  0.00000000000E+00  0.19146397597E+04  0.19146397597E+04  0.25500000000E-02 0.  1.
          2   -1    0    0  501    0  0.00000000000E+00 -0.00000000000E+00 -0.40610133493E+03  0.40610133494E+03  0.25500000000E-02 0. -1.
    8880023    1    1    2    0    0 -0.34288491439E+03 -0.48650112641E+03  0.14542860674E+04  0.17038226382E+04  0.65864270000E+03 0.  0.
    8880022    1    1    2    0    0  0.34288491439E+03  0.48650112641E+03  0.54252357346E+02  0.61691845637E+03  0.15294330000E+03 0.  0.
<mgrwt>
<rscale>  0 0.80974068E+03</rscale>
<asrwt>0</asrwt>
<pdfrwt beam="1">  1        2 0.62477130E-01 0.88772947E+03</pdfrwt>
<pdfrwt beam="2">  1       -2 0.29455996E+00 0.88772947E+03</pdfrwt>
<totfact> 0.27372260E+00</totfact>
</mgrwt>
</event>
<event>
 4    5  0.1112901E-007  0.7258906E+03  0.7818608E-02  0.9903136E-01
          2   -1    0    0  501    0  0.00000000000E+00  0.00000000000E+00  0.10008295475E+04  0.10008295475E+04  0.25500000000E-02 0. -1.
         -2   -1    0    0    0  501 -0.00000000000E+00 -0.00000000000E+00 -0.32665207986E+03  0.32665207987E+03  0.25500000000E-02 0.  1.
    8880023    1    1    2    0    0 -0.29038476260E+03 -0.93721361513E+02  0.21833372361E+03  0.75801505597E+03  0.65864270000E+03 0. -1.
    8880022    1    1    2    0    0  0.29038476260E+03  0.93721361513E+02  0.45584374402E+03  0.56946657139E+03  0.15294330000E+03 0.  0.
<mgrwt>
<rscale>  0 0.60109554E+03</rscale>
<asrwt>0</asrwt>
<pdfrwt beam="1">  1        2 0.15397378E+00 0.72589063E+03</pdfrwt>
<pdfrwt beam="2">  1       -2 0.50254166E-01 0.72589063E+03</pdfrwt>
<totfact> 0.95686889E+01</totfact>
</mgrwt>
</event>
<event>
 4    5  0.1112901E-007  0.8843573E+03  0.7818608E-02  0.9551625E-01
         -2   -1    0    0    0  501 -0.00000000000E+00  0.00000000000E+00  0.66484649604E+03  0.66484649604E+03  0.25500000000E-02 0.  1.
          2   -1    0    0  501    0  0.00000000000E+00 -0.00000000000E+00 -0.15510441318E+04  0.15510441318E+04  0.25500000000E-02 0. -1.
    8880023    1    1    2    0    0  0.56115125098E+03  0.18272074654E+03  0.25644085685E+03  0.92078755260E+03  0.65864270000E+03 0.  1.
    8880022    1    1    2    0    0 -0.56115125098E+03 -0.18272074654E+03 -0.11426384926E+04  0.12951030752E+04  0.15294330000E+03 0.  0.
<mgrwt>
<rscale>  0 0.80582437E+03</rscale>
<asrwt>0</asrwt>
<pdfrwt beam="1">  1        2 0.23862217E+00 0.88435728E+03</pdfrwt>
<pdfrwt beam="2">  1       -2 0.10228408E+00 0.88435728E+03</pdfrwt>
<totfact> 0.93761322E+00</totfact>
</mgrwt>
</event>
<event>
 4    5  0.1112901E-007  0.7492278E+03  0.7818608E-02  0.9833839E-01
          2   -1    0    0  501    0  0.00000000000E+00  0.00000000000E+00  0.11477901689E+04  0.11477901689E+04  0.25500000000E-02 0. -1.
         -2   -1    0    0    0  501 -0.00000000000E+00 -0.00000000000E+00 -0.96616517690E+03  0.96616517691E+03  0.25500000000E-02 0.  1.
    8880023    1    1    2    0    0 -0.34992375201E+03  0.71312332962E+02 -0.77713233707E+03  0.10794799473E+04  0.65864270000E+03 0.  0.
    8880022    1    1    2    0    0  0.34992375201E+03 -0.71312332962E+02  0.95875732902E+03  0.10344753985E+04  0.15294330000E+03 0. -1.
<mgrwt>
<rscale>  0 0.63577742E+03</rscale>
<asrwt>0</asrwt>
<pdfrwt beam="1">  1        2 0.17658310E+00 0.74922779E+03</pdfrwt>
<pdfrwt beam="2">  1       -2 0.14864080E+00 0.74922779E+03</pdfrwt>
<totfact> 0.63790555E+00</totfact>
</mgrwt>
</event>
<event>
 4    5  0.1112901E-007  0.2174369E+04  0.7818608E-02  0.8539606E-01
         -2   -1    0    0    0  501 -0.00000000000E+00  0.00000000000E+00  0.15833725001E+04  0.15833725001E+04  0.25500000000E-02 0.  1.
          2   -1    0    0  501    0  0.00000000000E+00 -0.00000000000E+00 -0.39475449143E+04  0.39475449143E+04  0.25500000000E-02 0. -1.
    8880023    1    1    2    0    0  0.18376375932E+03 -0.20640497852E+04 -0.26561649233E+04  0.34326510078E+04  0.65864270000E+03 0.  0.
    8880022    1    1    2    0    0 -0.18376375932E+03  0.20640497852E+04  0.29199250914E+03  0.20982664067E+04  0.15294330000E+03 0.  0.
<mgrwt>
<rscale>  0 0.21498270E+04</rscale>
<asrwt>0</asrwt>
<pdfrwt beam="1">  1        2 0.60731460E+00 0.21743691E+04</pdfrwt>
<pdfrwt beam="2">  1       -2 0.24359577E+00 0.21743691E+04</pdfrwt>
<totfact> 0.23178264E-02</totfact>
</mgrwt>
</event>
<event>
 4    5  0.1112901E-007  0.8918689E+03  0.7818608E-02  0.9539213E-01
          2   -1    0    0  501    0  0.00000000000E+00  0.00000000000E+00  0.26672938050E+04  0.26672938050E+04  0.25500000000E-02 0. -1.
         -2   -1    0    0    0  501 -0.00000000000E+00 -0.00000000000E+00 -0.71732541639E+03  0.71732541639E+03  0.25500000000E-02 0.  1.
    8880023    1    1    2    0    0 -0.56535299443E+03 -0.20492907714E+03 -0.38293904349E+03  0.97060416868E+03  0.65864270000E+03 0.  1.
    8880022    1    1    2    0    0  0.56535299443E+03  0.20492907714E+03  0.23329074321E+04  0.24140150527E+04  0.15294330000E+03 0.  0.
<mgrwt>
<rscale>  0 0.81453545E+03</rscale>
<asrwt>0</asrwt>
<pdfrwt beam="1">  1        2 0.41035289E+00 0.89186890E+03</pdfrwt>
<pdfrwt beam="2">  1       -2 0.11035776E+00 0.89186890E+03</pdfrwt>
<totfact> 0.18622566E+00</totfact>
</mgrwt>
</event>
<event>
 4    5  0.1112901E-007  0.7700360E+03  0.7818608E-02  0.9779786E-01
         -2   -1    0    0    0  501 -0.00000000000E+00  0.00000000000E+00  0.35812402297E+03  0.35812402298E+03  0.25500000000E-02 0.  1.
          2   -1    0    0  501    0  0.00000000000E+00 -0.00000000000E+00 -0.11721872604E+04  0.11721872604E+04  0.25500000000E-02 0. -1.
    8880023    1    1    2    0    0  0.50032732116E+02 -0.39578018296E+03 -0.22426952051E+03  0.80203008148E+03  0.65864270000E+03 0.  1.
    8880022    1    1    2    0    0 -0.50032732116E+02  0.39578018296E+03 -0.58979371691E+03  0.72828120189E+03  0.15294330000E+03 0.  1.
<mgrwt>
<rscale>  0 0.66458739E+03</rscale>
<asrwt>0</asrwt>
<pdfrwt beam="1">  1        2 0.18033650E+00 0.77003600E+03</pdfrwt>
<pdfrwt beam="2">  1       -2 0.55096004E-01 0.77003600E+03</pdfrwt>
<totfact> 0.61889370E+01</totfact>
</mgrwt>
</event>
<event>
 4    5  0.1112901E-007  0.8984739E+03  0.7818608E-02  0.9528486E-01
          2   -1    0    0  501    0  0.00000000000E+00  0.00000000000E+00  0.18232471528E+04  0.18232471528E+04  0.25500000000E-02 0. -1.
         -2   -1    0    0    0  501 -0.00000000000E+00 -0.00000000000E+00 -0.34698778482E+03  0.34698778483E+03  0.25500000000E-02 0.  1.
    8880023    1    1    2    0    0  0.60586536807E+03 -0.79826801179E+02  0.56132628448E+03  0.10594067049E+04  0.65864270000E+03 0. -1.
    8880022    1    1    2    0    0 -0.60586536807E+03  0.79826801179E+02  0.91493308347E+03  0.11108282327E+04  0.15294330000E+03 0.  0.
<mgrwt>
<rscale>  0 0.82215859E+03</rscale>
<asrwt>0</asrwt>
<pdfrwt beam="1">  1        2 0.28049956E+00 0.89847391E+03</pdfrwt>
<pdfrwt beam="2">  1       -2 0.53382736E-01 0.89847391E+03</pdfrwt>
<totfact> 0.28034498E+01</totfact>
</mgrwt>
</event>
<event>
 4    5  0.1112901E-007  0.1105749E+04  0.7818608E-02  0.9254682E-01
         -2   -1    0    0    0  501 -0.00000000000E+00  0.00000000000E+00  0.12044745781E+04  0.12044745781E+04  0.25500000000E-02 0.  1.
          2   -1    0    0  501    0  0.00000000000E+00 -0.00000000000E+00 -0.16111551693E+04  0.16111551693E+04  0.25500000000E-02 0. -1.
    8880023    1    1    2    0    0  0.83209918060E+03 -0.31061554922E+03  0.75973221418E+03  0.13415939435E+04  0.65864270000E+03 0.  0.
    8880022    1    1    2    0    0 -0.83209918060E+03  0.31061554922E+03 -0.11664128054E+04  0.14740358039E+04  0.15294330000E+03 0.  0.
<mgrwt>
<rscale>  0 0.10506415E+04</rscale>
<asrwt>0</asrwt>
<pdfrwt beam="1">  1        2 0.24787003E+00 0.11057492E+04</pdfrwt>
<pdfrwt beam="2">  1       -2 0.18530378E+00 0.11057492E+04</pdfrwt>
<totfact> 0.17977343E+00</totfact>
</mgrwt>
</event>
<event>
 4    5  0.1112901E-007  0.8219126E+03  0.7818608E-02  0.9665278E-01
         -2   -1    0    0    0  501 -0.00000000000E+00  0.00000000000E+00  0.48386147434E+03  0.48386147435E+03  0.25500000000E-02 0.  1.
          2   -1    0    0  501    0  0.00000000000E+00 -0.00000000000E+00 -0.34688021789E+04  0.34688021789E+04  0.25500000000E-02 0. -1.
    8880023    1    1    2    0    0  0.28275166078E+03  0.40222078701E+03  0.97353538582E+02  0.82765813046E+03  0.65864270000E+03 0.  0.
    8880022    1    1    2    0    0 -0.28275166078E+03 -0.40222078701E+03 -0.30822942432E+04  0.31250055228E+04  0.15294330000E+03 0. -1.
<mgrwt>
<rscale>  0 0.73122306E+03</rscale>
<asrwt>0</asrwt>
<pdfrwt beam="1">  1        2 0.53366186E+00 0.82191257E+03</pdfrwt>
<pdfrwt beam="2">  1       -2 0.74440229E-01 0.82191257E+03</pdfrwt>
<totfact> 0.14845322E+00</totfact>
</mgrwt>
</event>
<event>
 4    5  0.1112901E-007  0.7682259E+03  0.7818608E-02  0.9784259E-01
         -2   -1    0    0    0  501 -0.00000000000E+00  0.00000000000E+00  0.25857110216E+03  0.25857110217E+03  0.25500000000E-02 0.  1.
          2   -1    0    0  501    0  0.00000000000E+00 -0.00000000000E+00 -0.26677057464E+04  0.26677057464E+04  0.25500000000E-02 0. -1.
    8880023    1    1    2    0    0 -0.35824171793E+03  0.16740302852E+03 -0.38704488948E+03  0.86021791144E+03  0.65864270000E+03 0.  1.
    8880022    1    1    2    0    0  0.35824171793E+03 -0.16740302852E+03 -0.20220897548E+04  0.20660589371E+04  0.15294330000E+03 0.  0.
<mgrwt>
<rscale>  0 0.66214197E+03</rscale>
<asrwt>0</asrwt>
<pdfrwt beam="1">  1        2 0.41041625E+00 0.76822595E+03</pdfrwt>
<pdfrwt beam="2">  1       -2 0.39780171E-01 0.76822595E+03</pdfrwt>
<totfact> 0.17386549E+01</totfact>
</mgrwt>
</event>
<event>
 4    5  0.1112901E-007  0.6614641E+03  0.7818608E-02  0.1022704E+00
         -2   -1    0    0    0  501 -0.00000000000E+00  0.00000000000E+00  0.14808131474E+04  0.14808131474E+04  0.25500000000E-02 0.  1.
          2   -1    0    0  501    0  0.00000000000E+00 -0.00000000000E+00 -0.12002052648E+03  0.12002052650E+03  0.25500000000E-02 0. -1.
    8880023    1    1    2    0    0 -0.56957829164E+02 -0.21917933672E+02  0.94390427023E+03  0.11526014349E+04  0.65864270000E+03 0. -1.
    8880022    1    1    2    0    0  0.56957829164E+02  0.21917933672E+02  0.41688835067E+03  0.44823223898E+03  0.15294330000E+03 0.  0.
<mgrwt>
<rscale>  0 0.46723290E+03</rscale>
<asrwt>0</asrwt>
<pdfrwt beam="1">  1        2 0.18464696E-01 0.66146413E+03</pdfrwt>
<pdfrwt beam="2">  1       -2 0.22781742E+00 0.66146413E+03</pdfrwt>
<totfact> 0.28352266E+01</totfact>
</mgrwt>
</event>
<event>
 4    5  0.1112901E-007  0.8423129E+03  0.7818608E-02  0.9625834E-01
          2   -1    0    0  501    0  0.00000000000E+00  0.00000000000E+00  0.23041748137E+04  0.23041748137E+04  0.25500000000E-02 0. -1.
         -2   -1    0    0    0  501 -0.00000000000E+00 -0.00000000000E+00 -0.31822729447E+03  0.31822729448E+03  0.25500000000E-02 0.  1.
    8880023    1    1    2    0    0 -0.41336195672E+03  0.32374803336E+03  0.37658930460E+03  0.92266494838E+03  0.65864270000E+03 0.  0.
    8880022    1    1    2    0    0  0.41336195672E+03 -0.32374803336E+03  0.16093582146E+04  0.16997371597E+04  0.15294330000E+03 0.  0.
<mgrwt>
<rscale>  0 0.75609641E+03</rscale>
<asrwt>0</asrwt>
<pdfrwt beam="1">  1        2 0.35448842E+00 0.84231295E+03</pdfrwt>
<pdfrwt beam="2">  1       -2 0.48958047E-01 0.84231295E+03</pdfrwt>
<totfact> 0.18309104E+01</totfact>
</mgrwt>
</event>
<event>
 4    5  0.1112901E-007  0.8468288E+03  0.7818608E-02  0.9617436E-01
         -2   -1    0    0    0  501 -0.00000000000E+00  0.00000000000E+00  0.99315229643E+03  0.99315229643E+03  0.25500000000E-02 0.  1.
          2   -1    0    0  501    0  0.00000000000E+00 -0.00000000000E+00 -0.21758028047E+04  0.21758028047E+04  0.25500000000E-02 0. -1.
    8880023    1    1    2    0    0 -0.38451425924E+03  0.36804563661E+03  0.76677373766E+03  0.11423926546E+04  0.65864270000E+03 0.  0.
    8880022    1    1    2    0    0  0.38451425924E+03 -0.36804563661E+03 -0.19494242459E+04  0.20265624465E+04  0.15294330000E+03 0.  0.
<mgrwt>
<rscale>  0 0.76152825E+03</rscale>
<asrwt>0</asrwt>
<pdfrwt beam="1">  1        2 0.33473889E+00 0.84682880E+03</pdfrwt>
<pdfrwt beam="2">  1       -2 0.15279266E+00 0.84682880E+03</pdfrwt>
<totfact> 0.15572455E+00</totfact>
</mgrwt>
</event>
<event>
 4    5  0.1112901E-007  0.7217431E+03  0.7818608E-02  0.9916731E-01
         -2   -1    0    0    0  501 -0.00000000000E+00  0.00000000000E+00  0.20411880638E+03  0.20411880640E+03  0.25500000000E-02 0.  1.
          2   -1    0    0  501    0  0.00000000000E+00 -0.00000000000E+00 -0.33284871364E+04  0.33284871364E+04  0.25500000000E-02 0. -1.
    8880023    1    1    2    0    0  0.22970656567E+02 -0.29423679477E+03 -0.47853342255E+03  0.86597193097E+03  0.65864270000E+03 0.  1.
    8880022    1    1    2    0    0 -0.22970656567E+02  0.29423679477E+03 -0.26458349074E+04  0.26666340118E+04  0.15294330000E+03 0.  0.
<mgrwt>
<rscale>  0 0.59457223E+03</rscale>
<asrwt>0</asrwt>
<pdfrwt beam="1">  1        2 0.51207491E+00 0.72174313E+03</pdfrwt>
<pdfrwt beam="2">  1       -2 0.31402896E-01 0.72174313E+03</pdfrwt>
<totfact> 0.10823661E+01</totfact>
</mgrwt>
</event>
<event>
 4    5  0.1112901E-007  0.1122441E+04  0.7818608E-02  0.9236473E-01
          2   -1    0    0  501    0  0.00000000000E+00  0.00000000000E+00  0.91032619144E+03  0.91032619144E+03  0.25500000000E-02 0. -1.
         -2   -1    0    0    0  501 -0.00000000000E+00 -0.00000000000E+00 -0.13091723599E+04  0.13091723599E+04  0.25500000000E-02 0.  1.
    8880023    1    1    2    0    0 -0.86861145774E+03  0.26753968873E+03  0.17175477608E+03  0.11355057283E+04  0.65864270000E+03 0.  1.
    8880022    1    1    2    0    0  0.86861145774E+03 -0.26753968873E+03 -0.57060094455E+03  0.10839928231E+04  0.15294330000E+03 0.  0.
<mgrwt>
<rscale>  0 0.10684769E+04</rscale>
<asrwt>0</asrwt>
<pdfrwt beam="1">  1        2 0.14005018E+00 0.11224409E+04</pdfrwt>
<pdfrwt beam="2">  1       -2 0.20141113E+00 0.11224409E+04</pdfrwt>
<totfact> 0.36832554E+00</totfact>
</mgrwt>
</event>
<event>
 4    5  0.1112901E-007  0.6812587E+03  0.7818608E-02  0.1008620E+00
          2   -1    0    0  501    0  0.00000000000E+00  0.00000000000E+00  0.12781198149E+04  0.12781198149E+04  0.25500000000E-02 0. -1.
         -2   -1    0    0    0  501 -0.00000000000E+00 -0.00000000000E+00 -0.80416318020E+03  0.80416318020E+03  0.25500000000E-02 0.  1.
    8880023    1    1    2    0    0  0.15492250300E+03 -0.79386192584E+02 -0.64585668232E+03  0.93874608381E+03  0.65864270000E+03 0.  1.
    8880022    1    1    2    0    0 -0.15492250300E+03  0.79386192584E+02  0.11198133170E+04  0.11435369113E+04  0.15294330000E+03 0.  0.
<mgrwt>
<rscale>  0 0.52026613E+03</rscale>
<asrwt>0</asrwt>
<pdfrwt beam="1">  1        2 0.19663381E+00 0.68125866E+03</pdfrwt>
<pdfrwt beam="2">  1       -2 0.12371741E+00 0.68125866E+03</pdfrwt>
<totfact> 0.86372015E+00</totfact>
</mgrwt>
</event>
<event>
 4    5  0.1112901E-007  0.7531549E+03  0.7818608E-02  0.9823162E-01
          2   -1    0    0  501    0  0.00000000000E+00  0.00000000000E+00  0.11834686068E+04  0.11834686068E+04  0.25500000000E-02 0. -1.
         -2   -1    0    0    0  501 -0.00000000000E+00 -0.00000000000E+00 -0.36264358350E+03  0.36264358351E+03  0.25500000000E-02 0.  1.
    8880023    1    1    2    0    0  0.14255082679E+03  0.33632037305E+03  0.15124479558E+03  0.76819094371E+03  0.65864270000E+03 0.  0.
    8880022    1    1    2    0    0 -0.14255082679E+03 -0.33632037305E+03  0.66958022775E+03  0.77792124663E+03  0.15294330000E+03 0.  0.
<mgrwt>
<rscale>  0 0.64134207E+03</rscale>
<asrwt>0</asrwt>
<pdfrwt beam="1">  1        2 0.18207209E+00 0.75315492E+03</pdfrwt>
<pdfrwt beam="2">  1       -2 0.55791320E-01 0.75315492E+03</pdfrwt>
<totfact> 0.59458295E+01</totfact>
</mgrwt>
</event>
<event>
 4    5  0.1112901E-007  0.1031017E+04  0.7818608E-02  0.9342057E-01
          2   -1    0    0  501    0  0.00000000000E+00  0.00000000000E+00  0.16293767434E+04  0.16293767434E+04  0.25500000000E-02 0. -1.
         -2   -1    0    0    0  501 -0.00000000000E+00 -0.00000000000E+00 -0.70321029696E+03  0.70321029697E+03  0.25500000000E-02 0.  1.
    8880023    1    1    2    0    0 -0.64872725457E+03 -0.45644248509E+03 -0.89432777959E+02  0.10348889897E+04  0.65864270000E+03 0.  0.
    8880022    1    1    2    0    0  0.64872725457E+03  0.45644248509E+03  0.10155992243E+04  0.12976980506E+04  0.15294330000E+03 0.  0.
<mgrwt>
<rscale>  0 0.97001535E+03</rscale>
<asrwt>0</asrwt>
<pdfrwt beam="1">  1        2 0.25067334E+00 0.10310175E+04</pdfrwt>
<pdfrwt beam="2">  1       -2 0.10818620E+00 0.10310175E+04</pdfrwt>
<totfact> 0.72899165E+00</totfact>
</mgrwt>
</event>
<event>
 4    5  0.1112901E-007  0.7365424E+03  0.7818608E-02  0.9870136E-01
         -2   -1    0    0    0  501 -0.00000000000E+00  0.00000000000E+00  0.12098051509E+03  0.12098051511E+03  0.25500000000E-02 0.  1.
          2   -1    0    0  501    0  0.00000000000E+00 -0.00000000000E+00 -0.27334276599E+04  0.27334276599E+04  0.25500000000E-02 0. -1.
    8880023    1    1    2    0    0  0.30828005566E+03  0.11682422249E+03 -0.13172044869E+04  0.15091462349E+04  0.65864270000E+03 0.  1.
    8880022    1    1    2    0    0 -0.30828005566E+03 -0.11682422249E+03 -0.12952426580E+04  0.13452619402E+04  0.15294330000E+03 0.  0.
<mgrwt>
<rscale>  0 0.61730722E+03</rscale>
<asrwt>0</asrwt>
<pdfrwt beam="1">  1        2 0.42052729E+00 0.73654239E+03</pdfrwt>
<pdfrwt beam="2">  1       -2 0.18612389E-01 0.73654239E+03</pdfrwt>
<totfact> 0.64322803E+01</totfact>
</mgrwt>
</event>
<event>
 4    5  0.1112901E-007  0.9802369E+03  0.7818608E-02  0.9407883E-01
          2   -1    0    0  501    0  0.00000000000E+00  0.00000000000E+00  0.47346926160E+04  0.47346926161E+04  0.25500000000E-02 0. -1.
         -2   -1    0    0    0  501 -0.00000000000E+00 -0.00000000000E+00 -0.26659236025E+03  0.26659236026E+03  0.25500000000E-02 0.  1.
    8880023    1    1    2    0    0  0.45356911405E+03  0.56685904604E+03  0.81848235976E+03  0.12770190675E+04  0.65864270000E+03 0.  0.
    8880022    1    1    2    0    0 -0.45356911405E+03 -0.56685904604E+03  0.36496178960E+04  0.37242659088E+04  0.15294330000E+03 0.  0.
<mgrwt>
<rscale>  0 0.91429763E+03</rscale>
<asrwt>0</asrwt>
<pdfrwt beam="1">  1        2 0.72841419E+00 0.98023687E+03</pdfrwt>
<pdfrwt beam="2">  1       -2 0.41014213E-01 0.98023687E+03</pdfrwt>
<totfact> 0.43319277E-01</totfact>
</mgrwt>
</event>
<event>
 4    5  0.1112901E-007  0.7975825E+03  0.7818608E-02  0.9716048E-01
          2   -1    0    0  501    0  0.00000000000E+00  0.00000000000E+00  0.25885811553E+04  0.25885811553E+04  0.25500000000E-02 0. -1.
         -2   -1    0    0    0  501 -0.00000000000E+00 -0.00000000000E+00 -0.24992304136E+03  0.24992304138E+03  0.25500000000E-02 0.  1.
    8880023    1    1    2    0    0 -0.42773250252E+03  0.13918533558E+03  0.50434774876E+03  0.94366546472E+03  0.65864270000E+03 0.  1.
    8880022    1    1    2    0    0  0.42773250252E+03 -0.13918533558E+03  0.18343103652E+04  0.18948387319E+04  0.15294330000E+03 0.  0.
<mgrwt>
<rscale>  0 0.70069304E+03</rscale>
<asrwt>0</asrwt>
<pdfrwt beam="1">  1        2 0.39824325E+00 0.79758251E+03</pdfrwt>
<pdfrwt beam="2">  1       -2 0.38449699E-01 0.79758251E+03</pdfrwt>
<totfact> 0.20543405E+01</totfact>
</mgrwt>
</event>
<event>
 4    5  0.1112901E-007  0.7316593E+03  0.7818608E-02  0.9884945E-01
          2   -1    0    0  501    0  0.00000000000E+00  0.00000000000E+00  0.31192492352E+04  0.31192492352E+04  0.25500000000E-02 0. -1.
         -2   -1    0    0    0  501 -0.00000000000E+00 -0.00000000000E+00 -0.21907153886E+03  0.21907153887E+03  0.25500000000E-02 0.  1.
    8880023    1    1    2    0    0  0.16361196754E+02  0.31819395716E+03  0.44186673635E+03  0.85473475540E+03  0.65864270000E+03 0.  1.
    8880022    1    1    2    0    0 -0.16361196754E+02 -0.31819395716E+03  0.24583109600E+04  0.24835860187E+04  0.15294330000E+03 0.  0.
<mgrwt>
<rscale>  0 0.60996497E+03</rscale>
<asrwt>0</asrwt>
<pdfrwt beam="1">  1        2 0.47988449E+00 0.73165927E+03</pdfrwt>
<pdfrwt beam="2">  1       -2 0.33703314E-01 0.73165927E+03</pdfrwt>
<totfact> 0.12872104E+01</totfact>
</mgrwt>
</event>
<event>
 4    5  0.1112901E-007  0.7592452E+03  0.7818608E-02  0.9807066E-01
          2   -1    0    0  501    0  0.00000000000E+00  0.00000000000E+00  0.13516673165E+04  0.13516673165E+04  0.25500000000E-02 0. -1.
         -2   -1    0    0    0  501 -0.00000000000E+00 -0.00000000000E+00 -0.35241359357E+03  0.35241359358E+03  0.25500000000E-02 0.  1.
    8880023    1    1    2    0    0  0.36405687524E+03  0.10052673427E+03  0.16694731728E+03  0.77738320391E+03  0.65864270000E+03 0.  0.
    8880022    1    1    2    0    0 -0.36405687524E+03 -0.10052673427E+03  0.83230640570E+03  0.92669770621E+03  0.15294330000E+03 0.  0.
<mgrwt>
<rscale>  0 0.64984740E+03</rscale>
<asrwt>0</asrwt>
<pdfrwt beam="1">  1        2 0.20794881E+00 0.75924518E+03</pdfrwt>
<pdfrwt beam="2">  1       -2 0.54217478E-01 0.75924518E+03</pdfrwt>
<totfact> 0.50337902E+01</totfact>
</mgrwt>
</event>
<event>
 4    5  0.1112901E-007  0.8262019E+03  0.7818608E-02  0.9656768E-01
          2   -1    0    0  501    0  0.00000000000E+00  0.00000000000E+00  0.76904546246E+03  0.76904546246E+03  0.25500000000E-02 0. -1.
         -2   -1    0    0    0  501 -0.00000000000E+00 -0.00000000000E+00 -0.87455325525E+03  0.87455325525E+03  0.25500000000E-02 0.  1.
    8880023    1    1    2    0    0 -0.11796820788E+02  0.49865840492E+03 -0.52090635738E+03  0.97670518029E+03  0.65864270000E+03 0.  0.
    8880022    1    1    2    0    0  0.11796820788E+02 -0.49865840492E+03  0.41539856459E+03  0.66689353743E+03  0.15294330000E+03 0.  0.
<mgrwt>
<rscale>  0 0.73650189E+03</rscale>
<asrwt>0</asrwt>
<pdfrwt beam="1">  1        2 0.11831469E+00 0.82620190E+03</pdfrwt>
<pdfrwt beam="2">  1       -2 0.13454665E+00 0.82620190E+03</pdfrwt>
<totfact> 0.14547968E+01</totfact>
</mgrwt>
</event>
<event>
 4    5  0.1112901E-007  0.1327750E+04  0.7818608E-02  0.9041959E-01
         -2   -1    0    0    0  501 -0.00000000000E+00  0.00000000000E+00  0.18916229607E+04  0.18916229607E+04  0.25500000000E-02 0.  1.
          2   -1    0    0  501    0  0.00000000000E+00 -0.00000000000E+00 -0.20350326946E+04  0.20350326946E+04  0.25500000000E-02 0. -1.
    8880023    1    1    2    0    0  0.11338386537E+04  0.20861664251E+03  0.14421682524E+04  0.19602985667E+04  0.65864270000E+03 0.  0.
    8880022    1    1    2    0    0 -0.11338386537E+04 -0.20861664251E+03 -0.15855779863E+04  0.19663570885E+04  0.15294330000E+03 0.  0.
<mgrwt>
<rscale>  0 0.12844867E+04</rscale>
<asrwt>0</asrwt>
<pdfrwt beam="1">  1        2 0.31308196E+00 0.13277504E+04</pdfrwt>
<pdfrwt beam="2">  1       -2 0.29101891E+00 0.13277504E+04</pdfrwt>
<totfact> 0.22085569E-01</totfact>
</mgrwt>
</event>
<event>
 4    5  0.1112901E-007  0.7974825E+03  0.7818608E-02  0.9716266E-01
          2   -1    0    0  501    0  0.00000000000E+00  0.00000000000E+00  0.25273570407E+04  0.25273570407E+04  0.25500000000E-02 0. -1.
         -2   -1    0    0    0  501 -0.00000000000E+00 -0.00000000000E+00 -0.37069409136E+03  0.37069409136E+03  0.25500000000E-02 0.  1.
    8880023    1    1    2    0    0  0.18098268430E+03 -0.41159862809E+03  0.11965353600E+03  0.80640891463E+03  0.65864270000E+03 0.  0.
    8880022    1    1    2    0    0 -0.18098268430E+03  0.41159862809E+03  0.20370094133E+04  0.20916422174E+04  0.15294330000E+03 0.  0.
<mgrwt>
<rscale>  0 0.70056526E+03</rscale>
<asrwt>0</asrwt>
<pdfrwt beam="1">  1        2 0.38882416E+00 0.79748252E+03</pdfrwt>
<pdfrwt beam="2">  1       -2 0.57029860E-01 0.79748252E+03</pdfrwt>
<totfact> 0.10072145E+01</totfact>
</mgrwt>
</event>
<event>
 4    5  0.1112901E-007  0.6830067E+03  0.7818608E-02  0.1007672E+00
         -2   -1    0    0    0  501 -0.00000000000E+00  0.00000000000E+00  0.25832537897E+03  0.25832537898E+03  0.25500000000E-02 0.  1.
          2   -1    0    0  501    0  0.00000000000E+00 -0.00000000000E+00 -0.40000287142E+04  0.40000287142E+04  0.25500000000E-02 0. -1.
    8880023    1    1    2    0    0 -0.16064428540E+03  0.82953850384E+02 -0.20412314764E+03  0.71285650267E+03  0.65864270000E+03 0.  0.
    8880022    1    1    2    0    0  0.16064428540E+03 -0.82953850384E+02 -0.35375801876E+04  0.35454975905E+04  0.15294330000E+03 0.  0.
<mgrwt>
<rscale>  0 0.52410622E+03</rscale>
<asrwt>0</asrwt>
<pdfrwt beam="1">  1        2 0.61538899E+00 0.68300669E+03</pdfrwt>
<pdfrwt beam="2">  1       -2 0.39742369E-01 0.68300669E+03</pdfrwt>
<totfact> 0.23102430E+00</totfact>
</mgrwt>
</event>
<event>
 4    5  0.1112901E-007  0.7710115E+03  0.7818608E-02  0.9777391E-01
         -2   -1    0    0    0  501 -0.00000000000E+00  0.00000000000E+00  0.12572670385E+04  0.12572670385E+04  0.25500000000E-02 0.  1.
          2   -1    0    0  501    0  0.00000000000E+00 -0.00000000000E+00 -0.40132983872E+03  0.40132983873E+03  0.25500000000E-02 0. -1.
    8880023    1    1    2    0    0 -0.24776010351E+03  0.31506114549E+03  0.94584341799E+03  0.12202780716E+04  0.65864270000E+03 0.  0.
    8880022    1    1    2    0    0  0.24776010351E+03 -0.31506114549E+03 -0.89906218249E+02  0.43831880565E+03  0.15294330000E+03 0.  0.
<mgrwt>
<rscale>  0 0.66590114E+03</rscale>
<asrwt>0</asrwt>
<pdfrwt beam="1">  1        2 0.61743054E-01 0.77101154E+03</pdfrwt>
<pdfrwt beam="2">  1       -2 0.19342569E+00 0.77101154E+03</pdfrwt>
<totfact> 0.11828365E+01</totfact>
</mgrwt>
</event>
<event>
 4    5  0.1112901E-007  0.1927582E+04  0.7818608E-02  0.8655063E-01
          2   -1    0    0  501    0  0.00000000000E+00  0.00000000000E+00  0.20766675142E+04  0.20766675142E+04  0.25500000000E-02 0. -1.
         -2   -1    0    0    0  501 -0.00000000000E+00 -0.00000000000E+00 -0.20323244438E+04  0.20323244438E+04  0.25500000000E-02 0.  1.
    8880023    1    1    2    0    0 -0.14777417112E+04 -0.10478739745E+04 -0.82149216846E+03  0.20953329141E+04  0.65864270000E+03 0.  1.
    8880022    1    1    2    0    0  0.14777417112E+04  0.10478739745E+04  0.86583523882E+03  0.20136590440E+04  0.15294330000E+03 0.  0.
<mgrwt>
<rscale>  0 0.18995840E+04</rscale>
<asrwt>0</asrwt>
<pdfrwt beam="1">  1        2 0.31948731E+00 0.19275816E+04</pdfrwt>
<pdfrwt beam="2">  1       -2 0.31266530E+00 0.19275816E+04</pdfrwt>
<totfact> 0.14408529E-01</totfact>
</mgrwt>
</event>
<event>
 4    5  0.1112901E-007  0.1024711E+04  0.7818608E-02  0.9349919E-01
          2   -1    0    0  501    0  0.00000000000E+00  0.00000000000E+00  0.21310519486E+04  0.21310519486E+04  0.25500000000E-02 0. -1.
         -2   -1    0    0    0  501 -0.00000000000E+00 -0.00000000000E+00 -0.40800075571E+03  0.40800075572E+03  0.25500000000E-02 0.  1.
    8880023    1    1    2    0    0 -0.16935522150E+03 -0.76651220017E+03  0.70217020003E+03  0.12422058365E+04  0.65864270000E+03 0.  0.
    8880022    1    1    2    0    0  0.16935522150E+03  0.76651220017E+03  0.10208809928E+04  0.12968468678E+04  0.15294330000E+03 0.  0.
<mgrwt>
<rscale>  0 0.96314291E+03</rscale>
<asrwt>0</asrwt>
<pdfrwt beam="1">  1        2 0.32785415E+00 0.10247109E+04</pdfrwt>
<pdfrwt beam="2">  1       -2 0.62769346E-01 0.10247109E+04</pdfrwt>
<totfact> 0.13317382E+01</totfact>
</mgrwt>
</event>
<event>
 4    5  0.1112901E-007  0.1423517E+04  0.7818608E-02  0.8965622E-01
          2   -1    0    0  501    0  0.00000000000E+00  0.00000000000E+00  0.25622557848E+04  0.25622557848E+04  0.25500000000E-02 0. -1.
         -2   -1    0    0    0  501 -0.00000000000E+00 -0.00000000000E+00 -0.10203785402E+04  0.10203785403E+04  0.25500000000E-02 0.  1.
    8880023    1    1    2    0    0  0.11880647831E+04 -0.42554897858E+03 -0.18802691691E+03  0.14358809804E+04  0.65864270000E+03 0.  0.
    8880022    1    1    2    0    0 -0.11880647831E+04  0.42554897858E+03  0.17299041615E+04  0.21467533447E+04  0.15294330000E+03 0.  0.
<mgrwt>
<rscale>  0 0.13838101E+04</rscale>
<asrwt>0</asrwt>
<pdfrwt beam="1">  1        2 0.39419319E+00 0.14235168E+04</pdfrwt>
<pdfrwt beam="2">  1       -2 0.15698132E+00 0.14235168E+04</pdfrwt>
<totfact> 0.80867933E-01</totfact>
</mgrwt>
</event>
<event>
 4    5  0.1112901E-007  0.9440506E+03  0.7818608E-02  0.9458726E-01
          2   -1    0    0  501    0  0.00000000000E+00  0.00000000000E+00  0.25461551574E+04  0.25461551574E+04  0.25500000000E-02 0. -1.
         -2   -1    0    0    0  501 -0.00000000000E+00 -0.00000000000E+00 -0.41450797087E+03  0.41450797088E+03  0.25500000000E-02 0.  1.
    8880023    1    1    2    0    0  0.42508930779E+03 -0.52604219825E+03  0.20569503277E+04  0.22632446114E+04  0.65864270000E+03 0. -1.
    8880022    1    1    2    0    0 -0.42508930779E+03  0.52604219825E+03  0.74696858772E+02  0.69741851686E+03  0.15294330000E+03 0.  0.
<mgrwt>
<rscale>  0 0.87396386E+03</rscale>
<asrwt>0</asrwt>
<pdfrwt beam="1">  1        2 0.39171618E+00 0.94405059E+03</pdfrwt>
<pdfrwt beam="2">  1       -2 0.63770457E-01 0.94405059E+03</pdfrwt>
<totfact> 0.75914668E+00</totfact>
</mgrwt>
</event>
<event>
 4    5  0.1112901E-007  0.7345649E+03  0.7818608E-02  0.9876072E-01
         -2   -1    0    0    0  501 -0.00000000000E+00  0.00000000000E+00  0.18186228278E+04  0.18186228278E+04  0.25500000000E-02 0.  1.
          2   -1    0    0  501    0  0.00000000000E+00 -0.00000000000E+00 -0.61621584606E+03  0.61621584607E+03  0.25500000000E-02 0. -1.
    8880023    1    1    2    0    0 -0.25575004795E+03 -0.20091620329E+03  0.16820703767E+04  0.18354689772E+04  0.65864270000E+03 0.  1.
    8880022    1    1    2    0    0  0.25575004795E+03  0.20091620329E+03 -0.47966339499E+03  0.59936969666E+03  0.15294330000E+03 0.  0.
<mgrwt>
<rscale>  0 0.61435105E+03</rscale>
<asrwt>0</asrwt>
<pdfrwt beam="1">  1        2 0.94802437E-01 0.73456491E+03</pdfrwt>
<pdfrwt beam="2">  1       -2 0.27978813E+00 0.73456491E+03</pdfrwt>
<totfact> 0.21086822E+00</totfact>
</mgrwt>
</event>
<event>
 4    5  0.1112901E-007  0.8277571E+03  0.7818608E-02  0.9653712E-01
         -2   -1    0    0    0  501 -0.00000000000E+00  0.00000000000E+00  0.10613822356E+04  0.10613822356E+04  0.25500000000E-02 0.  1.
          2   -1    0    0  501    0  0.00000000000E+00 -0.00000000000E+00 -0.13301574622E+04  0.13301574622E+04  0.25500000000E-02 0. -1.
    8880023    1    1    2    0    0 -0.68681223645E+02 -0.49664321737E+03  0.83119448271E+03  0.11730584257E+04  0.65864270000E+03 0.  1.
    8880022    1    1    2    0    0  0.68681223645E+02  0.49664321737E+03 -0.10999697094E+04  0.12184812721E+04  0.15294330000E+03 0.  0.
<mgrwt>
<rscale>  0 0.73840905E+03</rscale>
<asrwt>0</asrwt>
<pdfrwt beam="1">  1        2 0.20463961E+00 0.82775709E+03</pdfrwt>
<pdfrwt beam="2">  1       -2 0.16328957E+00 0.82775709E+03</pdfrwt>
<totfact> 0.38322038E+00</totfact>
</mgrwt>
</event>
<event>
 4    5  0.1411172E-007  0.1344134E+04  0.7818608E-02  0.9028355E-01
          2   -1    0    0  501    0  0.00000000000E+00  0.00000000000E+00  0.28765148599E+04  0.28765148599E+04  0.25500000000E-02 0. -1.
         -2   -1    0    0    0  501 -0.00000000000E+00 -0.00000000000E+00 -0.15623562504E+04  0.15623562504E+04  0.25500000000E-02 0.  1.
    8880023    1    1    2    0    0 -0.11710907433E+04  0.37836393614E+02 -0.11092445866E+04  0.17427331639E+04  0.65864270000E+03 0.  0.
    8880022    1    1    2    0    0  0.11710907433E+04 -0.37836393614E+02  0.24234031961E+04  0.26961379463E+04  0.15294330000E+03 0.  0.
<mgrwt>
<rscale>  0 0.13015273E+04</rscale>
<asrwt>0</asrwt>
<pdfrwt beam="1">  1        2 0.44254074E+00 0.13441337E+04</pdfrwt>
<pdfrwt beam="2">  1       -2 0.24036250E+00 0.13441337E+04</pdfrwt>
<totfact> 0.14698641E-01</totfact>
</mgrwt>
</event>
<event>
 4    5  0.1112901E-007  0.9623908E+03  0.7818608E-02  0.9432506E-01
         -2   -1    0    0    0  501 -0.00000000000E+00  0.00000000000E+00  0.40289482440E+03  0.40289482441E+03  0.25500000000E-02 0.  1.
          2   -1    0    0  501    0  0.00000000000E+00 -0.00000000000E+00 -0.24128440428E+04  0.24128440428E+04  0.25500000000E-02 0. -1.
    8880023    1    1    2    0    0 -0.69484038347E+03 -0.97891236192E+02 -0.38020432896E+03  0.10347711779E+04  0.65864270000E+03 0.  0.
    8880022    1    1    2    0    0  0.69484038347E+03  0.97891236192E+02 -0.16297448894E+04  0.17809676893E+04  0.15294330000E+03 0.  0.
<mgrwt>
<rscale>  0 0.89448157E+03</rscale>
<asrwt>0</asrwt>
<pdfrwt beam="1">  1        2 0.37120677E+00 0.96239080E+03</pdfrwt>
<pdfrwt beam="2">  1       -2 0.61983821E-01 0.96239080E+03</pdfrwt>
<totfact> 0.95864768E+00</totfact>
</mgrwt>
</event>
<event>
 4    5  0.1112901E-007  0.8321697E+03  0.7818608E-02  0.9645125E-01
         -2   -1    0    0    0  501 -0.00000000000E+00  0.00000000000E+00  0.65571938050E+03  0.65571938051E+03  0.25500000000E-02 0.  1.
          2   -1    0    0  501    0  0.00000000000E+00 -0.00000000000E+00 -0.11845919915E+04  0.11845919915E+04  0.25500000000E-02 0. -1.
    8880023    1    1    2    0    0 -0.42372594229E+03 -0.28134062029E+03  0.27534617646E+03  0.87653975492E+03  0.65864270000E+03 0.  1.
    8880022    1    1    2    0    0  0.42372594229E+03  0.28134062029E+03 -0.80421878744E+03  0.96377161708E+03  0.15294330000E+03 0.  0.
<mgrwt>
<rscale>  0 0.74380138E+03</rscale>
<asrwt>0</asrwt>
<pdfrwt beam="1">  1        2 0.18224492E+00 0.83216971E+03</pdfrwt>
<pdfrwt beam="2">  1       -2 0.10087990E+00 0.83216971E+03</pdfrwt>
<totfact> 0.15807939E+01</totfact>
</mgrwt>
</event>
<event>
 4    5  0.1112901E-007  0.1315532E+04  0.7818608E-02  0.9052262E-01
          2   -1    0    0  501    0  0.00000000000E+00  0.00000000000E+00  0.31870368379E+04  0.31870368379E+04  0.25500000000E-02 0. -1.
         -2   -1    0    0    0  501 -0.00000000000E+00 -0.00000000000E+00 -0.62495172073E+03  0.62495172073E+03  0.25500000000E-02 0.  1.
    8880023    1    1    2    0    0  0.32547833588E+03 -0.10912736507E+04  0.41956851312E+03  0.13808194202E+04  0.65864270000E+03 0.  0.
    8880022    1    1    2    0    0 -0.32547833588E+03  0.10912736507E+04  0.21425166041E+04  0.24311691384E+04  0.15294330000E+03 0.  0.
<mgrwt>
<rscale>  0 0.12717633E+04</rscale>
<asrwt>0</asrwt>
<pdfrwt beam="1">  1        2 0.49031335E+00 0.13155320E+04</pdfrwt>
<pdfrwt beam="2">  1       -2 0.96146420E-01 0.13155320E+04</pdfrwt>
<totfact> 0.11738839E+00</totfact>
</mgrwt>
</event>
<event>
 4    5  0.1112901E-007  0.1034075E+04  0.7818608E-02  0.9338275E-01
          2   -1    0    0  501    0  0.00000000000E+00  0.00000000000E+00  0.27424489786E+04  0.27424489786E+04  0.25500000000E-02 0. -1.
         -2   -1    0    0    0  501 -0.00000000000E+00 -0.00000000000E+00 -0.12409135667E+04  0.12409135667E+04  0.25500000000E-02 0.  1.
    8880023    1    1    2    0    0  0.59274900241E+03  0.53305588168E+03 -0.94798590179E+03  0.14028497529E+04  0.65864270000E+03 0.  0.
    8880022    1    1    2    0    0 -0.59274900241E+03 -0.53305588168E+03  0.24495213137E+04  0.25805127925E+04  0.15294330000E+03 0.  0.
<mgrwt>
<rscale>  0 0.97334238E+03</rscale>
<asrwt>0</asrwt>
<pdfrwt beam="1">  1        2 0.42191523E+00 0.10340745E+04</pdfrwt>
<pdfrwt beam="2">  1       -2 0.19090978E+00 0.10340745E+04</pdfrwt>
<totfact> 0.38476694E-01</totfact>
</mgrwt>
</event>
<event>
 4    5  0.1112901E-007  0.6650302E+03  0.7818608E-02  0.1019508E+00
         -2   -1    0    0    0  501 -0.00000000000E+00  0.00000000000E+00  0.19999999442E+03  0.19999999443E+03  0.25500000000E-02 0.  1.
          2   -1    0    0  501    0  0.00000000000E+00 -0.00000000000E+00 -0.27543513082E+04  0.27543513083E+04  0.25500000000E-02 0. -1.
    8880023    1    1    2    0    0  0.71119880280E+02 -0.58283080970E+02 -0.36669366864E+03  0.75942702598E+03  0.65864270000E+03 0.  1.
    8880022    1    1    2    0    0 -0.71119880280E+02  0.58283080970E+02 -0.21876576452E+04  0.21949242767E+04  0.15294330000E+03 0.  0.
<mgrwt>
<rscale>  0 0.47864544E+03</rscale>
<asrwt>0</asrwt>
<pdfrwt beam="1">  1        2 0.42374633E+00 0.66503020E+03</pdfrwt>
<pdfrwt beam="2">  1       -2 0.30769232E-01 0.66503020E+03</pdfrwt>
<totfact> 0.25673305E+01</totfact>
</mgrwt>
</event>
<event>
 4    5  0.1112901E-007  0.1245150E+04  0.7818608E-02  0.9114436E-01
          2   -1    0    0  501    0  0.00000000000E+00  0.00000000000E+00  0.31531200752E+04  0.31531200752E+04  0.25500000000E-02 0. -1.
         -2   -1    0    0    0  501 -0.00000000000E+00 -0.00000000000E+00 -0.84382460640E+03  0.84382460640E+03  0.25500000000E-02 0.  1.
    8880023    1    1    2    0    0 -0.19029596649E+03  0.10394107585E+04 -0.20816213556E+03  0.12624297845E+04  0.65864270000E+03 0.  1.
    8880022    1    1    2    0    0  0.19029596649E+03 -0.10394107585E+04  0.25174576044E+04  0.27345148971E+04  0.15294330000E+03 0.  0.
<mgrwt>
<rscale>  0 0.11981971E+04</rscale>
<asrwt>0</asrwt>
<pdfrwt beam="1">  1        2 0.48509540E+00 0.12451496E+04</pdfrwt>
<pdfrwt beam="2">  1       -2 0.12981917E+00 0.12451496E+04</pdfrwt>
<totfact> 0.59604546E-01</totfact>
</mgrwt>
</event>
<event>
 4    5  0.1112901E-007  0.1279373E+04  0.7818608E-02  0.9083580E-01
          2   -1    0    0  501    0  0.00000000000E+00  0.00000000000E+00  0.33752434629E+04  0.33752434629E+04  0.25500000000E-02 0. -1.
         -2   -1    0    0    0  501 -0.00000000000E+00 -0.00000000000E+00 -0.63191832322E+03  0.63191832322E+03  0.25500000000E-02 0.  1.
    8880023    1    1    2    0    0  0.87949229124E+02  0.10932753581E+04  0.28473633103E+03  0.13106758028E+04  0.65864270000E+03 0.  0.
    8880022    1    1    2    0    0 -0.87949229124E+02 -0.10932753581E+04  0.24585888086E+04  0.26964859833E+04  0.15294330000E+03 0.  0.
<mgrwt>
<rscale>  0 0.12340309E+04</rscale>
<asrwt>0</asrwt>
<pdfrwt beam="1">  1        2 0.51926822E+00 0.12793734E+04</pdfrwt>
<pdfrwt beam="2">  1       -2 0.97218204E-01 0.12793734E+04</pdfrwt>
<totfact> 0.86389617E-01</totfact>
</mgrwt>
</event>
<event>
 4    5  0.1112901E-007  0.8670070E+03  0.7818608E-02  0.9581219E-01
          2   -1    0    0  501    0  0.00000000000E+00  0.00000000000E+00  0.31149769391E+04  0.31149769391E+04  0.25500000000E-02 0. -1.
         -2   -1    0    0    0  501 -0.00000000000E+00 -0.00000000000E+00 -0.37680997953E+03  0.37680997954E+03  0.25500000000E-02 0.  1.
    8880023    1    1    2    0    0 -0.30592044911E+03 -0.47360693834E+03  0.20336728460E+03  0.89053877621E+03  0.65864270000E+03 0.  1.
    8880022    1    1    2    0    0  0.30592044911E+03  0.47360693834E+03  0.25347996749E+04  0.26012481424E+04  0.15294330000E+03 0.  0.
<mgrwt>
<rscale>  0 0.78551809E+03</rscale>
<asrwt>0</asrwt>
<pdfrwt beam="1">  1        2 0.47922724E+00 0.86700695E+03</pdfrwt>
<pdfrwt beam="2">  1       -2 0.57970764E-01 0.86700695E+03</pdfrwt>
<totfact> 0.42940142E+00</totfact>
</mgrwt>
</event>
<event>
 4    5  0.1112901E-007  0.7538166E+03  0.7818608E-02  0.9821387E-01
         -2   -1    0    0    0  501 -0.00000000000E+00  0.00000000000E+00  0.19679730116E+04  0.19679730116E+04  0.25500000000E-02 0.  1.
          2   -1    0    0  501    0  0.00000000000E+00 -0.00000000000E+00 -0.18371285169E+04  0.18371285169E+04  0.25500000000E-02 0. -1.
    8880023    1    1    2    0    0 -0.34386759942E+03 -0.12721795855E+03  0.18725918271E+04  0.20186232170E+04  0.65864270000E+03 0.  0.
    8880022    1    1    2    0    0  0.34386759942E+03  0.12721795855E+03 -0.17417473323E+04  0.17864783115E+04  0.15294330000E+03 0.  0.
<mgrwt>
<rscale>  0 0.64227333E+03</rscale>
<asrwt>0</asrwt>
<pdfrwt beam="1">  1        2 0.28263516E+00 0.75381665E+03</pdfrwt>
<pdfrwt beam="2">  1       -2 0.30276508E+00 0.75381665E+03</pdfrwt>
<totfact> 0.26715206E-01</totfact>
</mgrwt>
</event>
<event>
 4    5  0.1112901E-007  0.7595914E+03  0.7818608E-02  0.9806166E-01
          2   -1    0    0  501    0  0.00000000000E+00  0.00000000000E+00  0.12373837250E+04  0.12373837250E+04  0.25500000000E-02 0. -1.
         -2   -1    0    0    0  501 -0.00000000000E+00 -0.00000000000E+00 -0.13290036507E+04  0.13290036507E+04  0.25500000000E-02 0.  1.
    8880023    1    1    2    0    0 -0.10112068893E+03 -0.36461419773E+03 -0.11803712281E+04  0.14036578463E+04  0.65864270000E+03 0.  1.
    8880022    1    1    2    0    0  0.10112068893E+03  0.36461419773E+03  0.10887513024E+04  0.11627295294E+04  0.15294330000E+03 0.  0.
<mgrwt>
<rscale>  0 0.65032666E+03</rscale>
<asrwt>0</asrwt>
<pdfrwt beam="1">  1        2 0.19036673E+00 0.75959141E+03</pdfrwt>
<pdfrwt beam="2">  1       -2 0.20446210E+00 0.75959141E+03</pdfrwt>
<totfact> 0.22976510E+00</totfact>
</mgrwt>
</event>
<event>
 4    5  0.1112901E-007  0.6959059E+03  0.7818608E-02  0.1001463E+00
          2   -1    0    0  501    0  0.00000000000E+00  0.00000000000E+00  0.15691817890E+04  0.15691817890E+04  0.25500000000E-02 0. -1.
         -2   -1    0    0    0  501 -0.00000000000E+00 -0.00000000000E+00 -0.78773304743E+03  0.78773304744E+03  0.25500000000E-02 0.  1.
    8880023    1    1    2    0    0  0.10016461249E+03 -0.20110170801E+03 -0.61837401349E+03  0.93095191787E+03  0.65864270000E+03 0.  1.
    8880022    1    1    2    0    0 -0.10016461249E+03  0.20110170801E+03  0.13998227551E+04  0.14259629186E+04  0.15294330000E+03 0.  0.
<mgrwt>
<rscale>  0 0.55013445E+03</rscale>
<asrwt>0</asrwt>
<pdfrwt beam="1">  1        2 0.24141258E+00 0.69590592E+03</pdfrwt>
<pdfrwt beam="2">  1       -2 0.12118970E+00 0.69590592E+03</pdfrwt>
<totfact> 0.62234003E+00</totfact>
</mgrwt>
</event>
<event>
 4    5  0.1112901E-007  0.8080618E+03  0.7818608E-02  0.9693628E-01
          2   -1    0    0  501    0  0.00000000000E+00  0.00000000000E+00  0.16162168521E+04  0.16162168521E+04  0.25500000000E-02 0. -1.
         -2   -1    0    0    0  501 -0.00000000000E+00 -0.00000000000E+00 -0.39515861234E+03  0.39515861235E+03  0.25500000000E-02 0.  1.
    8880023    1    1    2    0    0  0.11334723980E+03 -0.45420924196E+03  0.13552377029E+03  0.81934762514E+03  0.65864270000E+03 0.  1.
    8880022    1    1    2    0    0 -0.11334723980E+03  0.45420924196E+03  0.10855344695E+04  0.11920278393E+04  0.15294330000E+03 0.  0.
<mgrwt>
<rscale>  0 0.71397422E+03</rscale>
<asrwt>0</asrwt>
<pdfrwt beam="1">  1        2 0.24864875E+00 0.80806178E+03</pdfrwt>
<pdfrwt beam="2">  1       -2 0.60793632E-01 0.80806178E+03</pdfrwt>
<totfact> 0.28020224E+01</totfact>
</mgrwt>
</event>
<event>
 4    5  0.1112901E-007  0.1305808E+04  0.7818608E-02  0.9060561E-01
          2   -1    0    0  501    0  0.00000000000E+00  0.00000000000E+00  0.16006821407E+04  0.16006821407E+04  0.25500000000E-02 0. -1.
         -2   -1    0    0    0  501 -0.00000000000E+00 -0.00000000000E+00 -0.97382336180E+03  0.97382336181E+03  0.25500000000E-02 0.  1.
    8880023    1    1    2    0    0  0.35729815013E+03 -0.10694211442E+04  0.69965868934E+02  0.13076807641E+04  0.65864270000E+03 0.  0.
    8880022    1    1    2    0    0 -0.35729815013E+03  0.10694211442E+04  0.55689290998E+03  0.12668247384E+04  0.15294330000E+03 0.  0.
<mgrwt>
<rscale>  0 0.12616277E+04</rscale>
<asrwt>0</asrwt>
<pdfrwt beam="1">  1        2 0.24625879E+00 0.13058077E+04</pdfrwt>
<pdfrwt beam="2">  1       -2 0.14981898E+00 0.13058077E+04</pdfrwt>
<totfact> 0.32228941E+00</totfact>
</mgrwt>
</event>
<event>
 4    5  0.1376700E-007  0.1251301E+04  0.7818608E-02  0.9108799E-01
          2   -1    0    0  501    0  0.00000000000E+00  0.00000000000E+00  0.25854173559E+04  0.25854173559E+04  0.25500000000E-02 0. -1.
         -2   -1    0    0    0  501 -0.00000000000E+00 -0.00000000000E+00 -0.16646992789E+04  0.16646992789E+04  0.25500000000E-02 0.  1.
    8880023    1    1    2    0    0 -0.63287923105E+03  0.85522353063E+03 -0.12867618361E+04  0.17948564392E+04  0.65864270000E+03 0.  0.
    8880022    1    1    2    0    0  0.63287923105E+03 -0.85522353063E+03  0.22074799130E+04  0.24552601956E+04  0.15294330000E+03 0.  0.
<mgrwt>
<rscale>  0 0.12046469E+04</rscale>
<asrwt>0</asrwt>
<pdfrwt beam="1">  1        2 0.39775651E+00 0.12513008E+04</pdfrwt>
<pdfrwt beam="2">  1       -2 0.25610758E+00 0.12513008E+04</pdfrwt>
<totfact> 0.17762971E-01</totfact>
</mgrwt>
</event>
<event>
 4    5  0.1112901E-007  0.1117007E+04  0.7818608E-02  0.9242353E-01
          2   -1    0    0  501    0  0.00000000000E+00  0.00000000000E+00  0.16866460234E+04  0.16866460234E+04  0.25500000000E-02 0. -1.
         -2   -1    0    0    0  501 -0.00000000000E+00 -0.00000000000E+00 -0.10769630683E+04  0.10769630683E+04  0.25500000000E-02 0.  1.
    8880023    1    1    2    0    0  0.49751947830E+03 -0.75257511282E+03 -0.58328276336E+03  0.12601285331E+04  0.65864270000E+03 0.  1.
    8880022    1    1    2    0    0 -0.49751947830E+03  0.75257511282E+03  0.11929657184E+04  0.15034805586E+04  0.15294330000E+03 0.  0.
<mgrwt>
<rscale>  0 0.10626769E+04</rscale>
<asrwt>0</asrwt>
<pdfrwt beam="1">  1        2 0.25948400E+00 0.11170072E+04</pdfrwt>
<pdfrwt beam="2">  1       -2 0.16568663E+00 0.11170072E+04</pdfrwt>
<totfact> 0.22378179E+00</totfact>
</mgrwt>
</event>
<event>
 4    5  0.1112901E-007  0.7091182E+03  0.7818608E-02  0.9961290E-01
         -2   -1    0    0    0  501 -0.00000000000E+00  0.00000000000E+00  0.10674009035E+04  0.10674009035E+04  0.25500000000E-02 0.  1.
          2   -1    0    0  501    0  0.00000000000E+00 -0.00000000000E+00 -0.10870403481E+04  0.10870403481E+04  0.25500000000E-02 0. -1.
    8880023    1    1    2    0    0  0.28194718105E+02 -0.26123450983E+03  0.92302182221E+03  0.11639664522E+04  0.65864270000E+03 0.  1.
    8880022    1    1    2    0    0 -0.28194718105E+02  0.26123450983E+03 -0.94266126688E+03  0.99047479945E+03  0.15294330000E+03 0.  0.
<mgrwt>
<rscale>  0 0.57380672E+03</rscale>
<asrwt>0</asrwt>
<pdfrwt beam="1">  1        2 0.16723698E+00 0.70911820E+03</pdfrwt>
<pdfrwt beam="2">  1       -2 0.16421552E+00 0.70911820E+03</pdfrwt>
<totfact> 0.53450513E+00</totfact>
</mgrwt>
</event>
<event>
 4    5  0.1112901E-007  0.1072742E+04  0.7818608E-02  0.9292029E-01
         -2   -1    0    0    0  501 -0.00000000000E+00  0.00000000000E+00  0.11562561923E+04  0.11562561923E+04  0.25500000000E-02 0.  1.
          2   -1    0    0  501    0  0.00000000000E+00 -0.00000000000E+00 -0.17176863189E+04  0.17176863189E+04  0.25500000000E-02 0. -1.
    8880023    1    1    2    0    0 -0.76451407077E+03 -0.36398416995E+03  0.74752594455E+03  0.13075058258E+04  0.65864270000E+03 0.  0.
    8880022    1    1    2    0    0  0.76451407077E+03  0.36398416995E+03 -0.13089560711E+04  0.15664366854E+04  0.15294330000E+03 0.  0.
<mgrwt>
<rscale>  0 0.10152005E+04</rscale>
<asrwt>0</asrwt>
<pdfrwt beam="1">  1        2 0.26425944E+00 0.10727425E+04</pdfrwt>
<pdfrwt beam="2">  1       -2 0.17788557E+00 0.10727425E+04</pdfrwt>
<totfact> 0.17715053E+00</totfact>
</mgrwt>
</event>
<event>
 4    5  0.1112901E-007  0.6675022E+03  0.7818608E-02  0.1017520E+00
          2   -1    0    0  501    0  0.00000000000E+00  0.00000000000E+00  0.33851793843E+03  0.33851793844E+03  0.25500000000E-02 0. -1.
         -2   -1    0    0    0  501 -0.00000000000E+00 -0.00000000000E+00 -0.11751927045E+04  0.11751927045E+04  0.25500000000E-02 0.  1.
    8880023    1    1    2    0    0 -0.36365749739E+02  0.10211044956E+03 -0.10408711597E+04  0.12365160690E+04  0.65864270000E+03 0.  1.
    8880022    1    1    2    0    0  0.36365749739E+02 -0.10211044956E+03  0.20419639357E+03  0.27719457395E+03  0.15294330000E+03 0.  0.
<mgrwt>
<rscale>  0 0.48592113E+03</rscale>
<asrwt>0</asrwt>
<pdfrwt beam="1">  1        2 0.52079684E-01 0.66750222E+03</pdfrwt>
<pdfrwt beam="2">  1       -2 0.18079888E+00 0.66750222E+03</pdfrwt>
<totfact> 0.17568563E+01</totfact>
</mgrwt>
</event>
<event>
 4    5  0.1112901E-007  0.1345724E+04  0.7818608E-02  0.9027047E-01
          2   -1    0    0  501    0  0.00000000000E+00  0.00000000000E+00  0.19684131389E+04  0.19684131389E+04  0.25500000000E-02 0. -1.
         -2   -1    0    0    0  501 -0.00000000000E+00 -0.00000000000E+00 -0.97147166509E+03  0.97147166509E+03  0.25500000000E-02 0.  1.
    8880023    1    1    2    0    0 -0.34457174997E+03  0.11217989809E+04 -0.68533691008E+02  0.13474678911E+04  0.65864270000E+03 0.  0.
    8880022    1    1    2    0    0  0.34457174997E+03 -0.11217989809E+04  0.10654751648E+04  0.15924169128E+04  0.15294330000E+03 0.  0.
<mgrwt>
<rscale>  0 0.13031802E+04</rscale>
<asrwt>0</asrwt>
<pdfrwt beam="1">  1        2 0.30283279E+00 0.13457239E+04</pdfrwt>
<pdfrwt beam="2">  1       -2 0.14945718E+00 0.13457239E+04</pdfrwt>
<totfact> 0.20172152E+00</totfact>
</mgrwt>
</event>
<event>
 4    5  0.1112901E-007  0.7565315E+03  0.7818608E-02  0.9814171E-01
         -2   -1    0    0    0  501 -0.00000000000E+00  0.00000000000E+00  0.36879980274E+03  0.36879980275E+03  0.25500000000E-02 0.  1.
          2   -1    0    0  501    0  0.00000000000E+00 -0.00000000000E+00 -0.31356639506E+04  0.31356639506E+04  0.25500000000E-02 0. -1.
    8880023    1    1    2    0    0  0.15376811469E+03  0.33894693982E+03 -0.50238316254E+02  0.75819770231E+03  0.65864270000E+03 0.  1.
    8880022    1    1    2    0    0 -0.15376811469E+03 -0.33894693982E+03 -0.27166258316E+04  0.27462660510E+04  0.15294330000E+03 0.  0.
<mgrwt>
<rscale>  0 0.64607547E+03</rscale>
<asrwt>0</asrwt>
<pdfrwt beam="1">  1        2 0.48240982E+00 0.75653147E+03</pdfrwt>
<pdfrwt beam="2">  1       -2 0.56738433E-01 0.75653147E+03</pdfrwt>
<totfact> 0.44489519E+00</totfact>
</mgrwt>
</event>
<event>
 4    5  0.1112901E-007  0.7375587E+03  0.7818608E-02  0.9867116E-01
         -2   -1    0    0    0  501 -0.00000000000E+00  0.00000000000E+00  0.39850792227E+03  0.39850792228E+03  0.25500000000E-02 0.  1.
          2   -1    0    0  501    0  0.00000000000E+00 -0.00000000000E+00 -0.93425244037E+03  0.93425244037E+03  0.25500000000E-02 0. -1.
    8880023    1    1    2    0    0  0.25922265932E+03 -0.20733109054E+03 -0.70197128034E+02  0.74089163260E+03  0.65864270000E+03 0.  1.
    8880022    1    1    2    0    0 -0.25922265932E+03  0.20733109054E+03 -0.46554739006E+03  0.59186873005E+03  0.15294330000E+03 0.  0.
<mgrwt>
<rscale>  0 0.61881774E+03</rscale>
<asrwt>0</asrwt>
<pdfrwt beam="1">  1        2 0.14373114E+00 0.73755866E+03</pdfrwt>
<pdfrwt beam="2">  1       -2 0.61308911E-01 0.73755866E+03</pdfrwt>
<totfact> 0.69844961E+01</totfact>
</mgrwt>
</event>
<event>
 4    5  0.1112901E-007  0.6862626E+03  0.7818608E-02  0.1005982E+00
         -2   -1    0    0    0  501 -0.00000000000E+00  0.00000000000E+00  0.32292086871E+03  0.32292086872E+03  0.25500000000E-02 0.  1.
          2   -1    0    0  501    0  0.00000000000E+00 -0.00000000000E+00 -0.94120197139E+03  0.94120197139E+03  0.25500000000E-02 0. -1.
    8880023    1    1    2    0    0  0.12929584302E+03  0.14292931174E+03 -0.10411066350E+03  0.69411486059E+03  0.65864270000E+03 0.  1.
    8880022    1    1    2    0    0 -0.12929584302E+03 -0.14292931174E+03 -0.51417043918E+03  0.57000797952E+03  0.15294330000E+03 0.  0.
<mgrwt>
<rscale>  0 0.53103256E+03</rscale>
<asrwt>0</asrwt>
<pdfrwt beam="1">  1        2 0.14480030E+00 0.68626264E+03</pdfrwt>
<pdfrwt beam="2">  1       -2 0.49680134E-01 0.68626264E+03</pdfrwt>
<totfact> 0.10735855E+02</totfact>
</mgrwt>
</event>
<event>
 4    5  0.1112901E-007  0.1249236E+04  0.7818608E-02  0.9110687E-01
          2   -1    0    0  501    0  0.00000000000E+00  0.00000000000E+00  0.23691710024E+04  0.23691710024E+04  0.25500000000E-02 0. -1.
         -2   -1    0    0    0  501 -0.00000000000E+00 -0.00000000000E+00 -0.12920358940E+04  0.12920358940E+04  0.25500000000E-02 0.  1.
    8880023    1    1    2    0    0 -0.90602732755E+03  0.55307690137E+03 -0.81124782010E+03  0.14895344269E+04  0.65864270000E+03 0.  0.
    8880022    1    1    2    0    0  0.90602732755E+03 -0.55307690137E+03  0.18883829285E+04  0.21716724695E+04  0.15294330000E+03 0.  0.
<mgrwt>
<rscale>  0 0.12024820E+04</rscale>
<asrwt>0</asrwt>
<pdfrwt beam="1">  1        2 0.36448784E+00 0.12492357E+04</pdfrwt>
<pdfrwt beam="2">  1       -2 0.19877476E+00 0.12492357E+04</pdfrwt>
<totfact> 0.54297643E-01</totfact>
</mgrwt>
</event>
<event>
 4    5  0.1112901E-007  0.7132290E+03  0.7818608E-02  0.9946200E-01
          2   -1    0    0  501    0  0.00000000000E+00  0.00000000000E+00  0.10689208458E+04  0.10689208458E+04  0.25500000000E-02 0. -1.
         -2   -1    0    0    0  501 -0.00000000000E+00 -0.00000000000E+00 -0.88381409328E+03  0.88381409329E+03  0.25500000000E-02 0.  1.
    8880023    1    1    2    0    0 -0.25244494247E+03  0.10562674468E+03 -0.70875146740E+03  0.10054970447E+04  0.65864270000E+03 0.  1.
    8880022    1    1    2    0    0  0.25244494247E+03 -0.10562674468E+03  0.89385821992E+03  0.94723789436E+03  0.15294330000E+03 0.  0.
<mgrwt>
<rscale>  0 0.58073541E+03</rscale>
<asrwt>0</asrwt>
<pdfrwt beam="1">  1        2 0.16444936E+00 0.71322904E+03</pdfrwt>
<pdfrwt beam="2">  1       -2 0.13597140E+00 0.71322904E+03</pdfrwt>
<totfact> 0.90276854E+00</totfact>
</mgrwt>
</event>
<event>
 4    5  0.1112901E-007  0.1213904E+04  0.7818608E-02  0.9143723E-01
         -2   -1    0    0    0  501 -0.00000000000E+00  0.00000000000E+00  0.12109867371E+04  0.12109867371E+04  0.25500000000E-02 0.  1.
          2   -1    0    0  501    0  0.00000000000E+00 -0.00000000000E+00 -0.18893553689E+04  0.18893553689E+04  0.25500000000E-02 0. -1.
    8880023    1    1    2    0    0  0.24481421512E+03 -0.98985836977E+03  0.68278005604E+03  0.13927499429E+04  0.65864270000E+03 0.  0.
    8880022    1    1    2    0    0 -0.24481421512E+03  0.98985836977E+03 -0.13611486879E+04  0.17075921631E+04  0.15294330000E+03 0.  0.
<mgrwt>
<rscale>  0 0.11653662E+04</rscale>
<asrwt>0</asrwt>
<pdfrwt beam="1">  1        2 0.29067006E+00 0.12139044E+04</pdfrwt>
<pdfrwt beam="2">  1       -2 0.18630565E+00 0.12139044E+04</pdfrwt>
<totfact> 0.12249378E+00</totfact>
</mgrwt>
</event>
<event>
 4    5  0.1112901E-007  0.1020781E+04  0.7818608E-02  0.9354860E-01
         -2   -1    0    0    0  501 -0.00000000000E+00  0.00000000000E+00  0.11630415096E+04  0.11630415096E+04  0.25500000000E-02 0.  1.
          2   -1    0    0  501    0  0.00000000000E+00 -0.00000000000E+00 -0.17382302820E+04  0.17382302820E+04  0.25500000000E-02 0. -1.
    8880023    1    1    2    0    0 -0.60585718291E+02  0.77750482788E+03  0.81079828594E+03  0.13036059425E+04  0.65864270000E+03 0.  1.
    8880022    1    1    2    0    0  0.60585718291E+02 -0.77750482788E+03 -0.13859870583E+04  0.15976658491E+04  0.15294330000E+03 0.  0.
<mgrwt>
<rscale>  0 0.95885460E+03</rscale>
<asrwt>0</asrwt>
<pdfrwt beam="1">  1        2 0.26742004E+00 0.10207814E+04</pdfrwt>
<pdfrwt beam="2">  1       -2 0.17892946E+00 0.10207814E+04</pdfrwt>
<totfact> 0.17085721E+00</totfact>
</mgrwt>
</event>
<event>
 4    5  0.1112901E-007  0.1698967E+04  0.7818608E-02  0.8780584E-01
         -2   -1    0    0    0  501 -0.00000000000E+00  0.00000000000E+00  0.24327976376E+04  0.24327976376E+04  0.25500000000E-02 0.  1.
          2   -1    0    0  501    0  0.00000000000E+00 -0.00000000000E+00 -0.14672795399E+04  0.14672795399E+04  0.25500000000E-02 0. -1.
    8880023    1    1    2    0    0 -0.15659302930E+04 -0.23276602918E+02  0.14710342939E+04  0.22473165293E+04  0.65864270000E+03 0.  0.
    8880022    1    1    2    0    0  0.15659302930E+04  0.23276602918E+02 -0.50551619621E+03  0.16527606482E+04  0.15294330000E+03 0.  0.
<mgrwt>
<rscale>  0 0.16667066E+04</rscale>
<asrwt>0</asrwt>
<pdfrwt beam="1">  1        2 0.22573532E+00 0.16989672E+04</pdfrwt>
<pdfrwt beam="2">  1       -2 0.37427656E+00 0.16989672E+04</pdfrwt>
<totfact> 0.13315194E-01</totfact>
</mgrwt>
</event>
<event>
 4    5  0.1112901E-007  0.6793184E+03  0.7818608E-02  0.1009712E+00
          2   -1    0    0  501    0  0.00000000000E+00  0.00000000000E+00  0.10174140244E+04  0.10174140244E+04  0.25500000000E-02 0. -1.
         -2   -1    0    0    0  501 -0.00000000000E+00 -0.00000000000E+00 -0.48734821675E+03  0.48734821675E+03  0.25500000000E-02 0.  1.
    8880023    1    1    2    0    0  0.16518152280E+03 -0.19451980268E+02 -0.22578739300E+03  0.71585855315E+03  0.65864270000E+03 0.  1.
    8880022    1    1    2    0    0 -0.16518152280E+03  0.19451980268E+02  0.75585320065E+03  0.78890368801E+03  0.15294330000E+03 0.  0.
<mgrwt>
<rscale>  0 0.51589319E+03</rscale>
<asrwt>0</asrwt>
<pdfrwt beam="1">  1        2 0.15652523E+00 0.67931842E+03</pdfrwt>
<pdfrwt beam="2">  1       -2 0.74976650E-01 0.67931842E+03</pdfrwt>
<totfact> 0.40128427E+01</totfact>
</mgrwt>
</event>
<event>
 4    5  0.1112901E-007  0.1033835E+04  0.7818608E-02  0.9338571E-01
         -2   -1    0    0    0  501 -0.00000000000E+00  0.00000000000E+00  0.71764567806E+03  0.71764567806E+03  0.25500000000E-02 0.  1.
          2   -1    0    0  501    0  0.00000000000E+00 -0.00000000000E+00 -0.15572741916E+04  0.15572741916E+04  0.25500000000E-02 0. -1.
    8880023    1    1    2    0    0 -0.20077464816E+02  0.79661874526E+03  0.93840282464E+02  0.10380851289E+04  0.65864270000E+03 0.  0.
    8880022    1    1    2    0    0  0.20077464816E+02 -0.79661874526E+03 -0.93346879597E+03  0.12368347408E+04  0.15294330000E+03 0.  0.
<mgrwt>
<rscale>  0 0.97308175E+03</rscale>
<asrwt>0</asrwt>
<pdfrwt beam="1">  1        2 0.23958064E+00 0.10338350E+04</pdfrwt>
<pdfrwt beam="2">  1       -2 0.11040703E+00 0.10338350E+04</pdfrwt>
<totfact> 0.76091696E+00</totfact>
</mgrwt>
</event>
<event>
 4    5  0.1112901E-007  0.9140993E+03  0.7818608E-02  0.9503766E-01
          2   -1    0    0  501    0  0.00000000000E+00  0.00000000000E+00  0.95458712855E+03  0.95458712855E+03  0.25500000000E-02 0. -1.
         -2   -1    0    0    0  501 -0.00000000000E+00 -0.00000000000E+00 -0.10943812737E+04  0.10943812737E+04  0.25500000000E-02 0.  1.
    8880023    1    1    2    0    0 -0.59347784964E+03 -0.22260155340E+03 -0.72973689399E+03  0.11696553126E+04  0.65864270000E+03 0.  1.
    8880022    1    1    2    0    0  0.59347784964E+03  0.22260155340E+03  0.58994274888E+03  0.87931308961E+03  0.15294330000E+03 0.  0.
<mgrwt>
<rscale>  0 0.84006710E+03</rscale>
<asrwt>0</asrwt>
<pdfrwt beam="1">  1        2 0.14685956E+00 0.91409935E+03</pdfrwt>
<pdfrwt beam="2">  1       -2 0.16836635E+00 0.91409935E+03</pdfrwt>
<totfact> 0.59026239E+00</totfact>
</mgrwt>
</event>
<event>
 4    5  0.1112901E-007  0.1289184E+04  0.7818608E-02  0.9074957E-01
         -2   -1    0    0    0  501 -0.00000000000E+00  0.00000000000E+00  0.12402665808E+04  0.12402665808E+04  0.25500000000E-02 0.  1.
          2   -1    0    0  501    0  0.00000000000E+00 -0.00000000000E+00 -0.16571048030E+04  0.16571048030E+04  0.25500000000E-02 0. -1.
    8880023    1    1    2    0    0  0.10783161265E+04 -0.25577088336E+03  0.56625288195E+03  0.14080614142E+04  0.65864270000E+03 0.  1.
    8880022    1    1    2    0    0 -0.10783161265E+04  0.25577088336E+03 -0.98309110411E+03  0.14893099696E+04  0.15294330000E+03 0.  0.
<mgrwt>
<rscale>  0 0.12442804E+04</rscale>
<asrwt>0</asrwt>
<pdfrwt beam="1">  1        2 0.25493920E+00 0.12891837E+04</pdfrwt>
<pdfrwt beam="2">  1       -2 0.19081024E+00 0.12891837E+04</pdfrwt>
<totfact> 0.15240783E+00</totfact>
</mgrwt>
</event>
<event>
 4    5  0.1112901E-007  0.7348249E+03  0.7818608E-02  0.9875286E-01
         -2   -1    0    0    0  501 -0.00000000000E+00  0.00000000000E+00  0.80519811003E+03  0.80519811003E+03  0.25500000000E-02 0.  1.
          2   -1    0    0  501    0  0.00000000000E+00 -0.00000000000E+00 -0.80757748780E+03  0.80757748780E+03  0.25500000000E-02 0. -1.
    8880023    1    1    2    0    0  0.32345990165E+03 -0.39129678375E+02  0.57454986523E+03  0.93277821244E+03  0.65864270000E+03 0.  1.
    8880022    1    1    2    0    0 -0.32345990165E+03  0.39129678375E+02 -0.57692924300E+03  0.67999738540E+03  0.15294330000E+03 0.  0.
<mgrwt>
<rscale>  0 0.61474103E+03</rscale>
<asrwt>0</asrwt>
<pdfrwt beam="1">  1        2 0.12424269E+00 0.73482491E+03</pdfrwt>
<pdfrwt beam="2">  1       -2 0.12387663E+00 0.73482491E+03</pdfrwt>
<totfact> 0.16957868E+01</totfact>
</mgrwt>
</event>
<event>
 4    5  0.1112901E-007  0.1130461E+04  0.7818608E-02  0.9227876E-01
          2   -1    0    0  501    0  0.00000000000E+00  0.00000000000E+00  0.10566394021E+04  0.10566394021E+04  0.25500000000E-02 0. -1.
         -2   -1    0    0    0  501 -0.00000000000E+00 -0.00000000000E+00 -0.10840834745E+04  0.10840834745E+04  0.25500000000E-02 0.  1.
    8880023    1    1    2    0    0  0.38140066774E+03  0.83586193130E+03 -0.30123219350E+03  0.11699071238E+04  0.65864270000E+03 0.  0.
    8880022    1    1    2    0    0 -0.38140066774E+03 -0.83586193130E+03  0.27378812111E+03  0.97081575277E+03  0.15294330000E+03 0.  0.
<mgrwt>
<rscale>  0 0.10770275E+04</rscale>
<asrwt>0</asrwt>
<pdfrwt beam="1">  1        2 0.16255991E+00 0.11304609E+04</pdfrwt>
<pdfrwt beam="2">  1       -2 0.16678207E+00 0.11304609E+04</pdfrwt>
<totfact> 0.51006148E+00</totfact>
</mgrwt>
</event>
<event>
 4    5  0.1112901E-007  0.8587775E+03  0.7818608E-02  0.9595742E-01
          2   -1    0    0  501    0  0.00000000000E+00  0.00000000000E+00  0.17281865770E+04  0.17281865770E+04  0.25500000000E-02 0. -1.
         -2   -1    0    0    0  501 -0.00000000000E+00 -0.00000000000E+00 -0.72392319483E+03  0.72392319484E+03  0.25500000000E-02 0.  1.
    8880023    1    1    2    0    0 -0.32889124821E+03 -0.44217554271E+03 -0.39143627240E+03  0.94378028446E+03  0.65864270000E+03 0.  0.
    8880022    1    1    2    0    0  0.32889124821E+03  0.44217554271E+03  0.13956996546E+04  0.15083294874E+04  0.15294330000E+03 0. -1.
<mgrwt>
<rscale>  0 0.77578667E+03</rscale>
<asrwt>0</asrwt>
<pdfrwt beam="1">  1        2 0.26587486E+00 0.85877754E+03</pdfrwt>
<pdfrwt beam="2">  1       -2 0.11137280E+00 0.85877754E+03</pdfrwt>
<totfact> 0.61140416E+00</totfact>
</mgrwt>
</event>
<event>
 4    5  0.1112901E-007  0.9250625E+03  0.7818608E-02  0.9486940E-01
         -2   -1    0    0    0  501 -0.00000000000E+00  0.00000000000E+00  0.50352177674E+03  0.50352177675E+03  0.25500000000E-02 0.  1.
          2   -1    0    0  501    0  0.00000000000E+00 -0.00000000000E+00 -0.21911492659E+04  0.21911492659E+04  0.25500000000E-02 0. -1.
    8880023    1    1    2    0    0  0.36175346987E+03 -0.53950428217E+03 -0.50132499007E+02  0.92641994644E+03  0.65864270000E+03 0.  1.
    8880022    1    1    2    0    0 -0.36175346987E+03  0.53950428217E+03 -0.16374949901E+04  0.17682510962E+04  0.15294330000E+03 0.  0.
<mgrwt>
<rscale>  0 0.85253573E+03</rscale>
<asrwt>0</asrwt>
<pdfrwt beam="1">  1        2 0.33709988E+00 0.92506251E+03</pdfrwt>
<pdfrwt beam="2">  1       -2 0.77464890E-01 0.92506251E+03</pdfrwt>
<totfact> 0.78739361E+00</totfact>
</mgrwt>
</event>
<event>
 4    5  0.1112901E-007  0.1044995E+04  0.7818608E-02  0.9324923E-01
         -2   -1    0    0    0  501 -0.00000000000E+00  0.00000000000E+00  0.16651932167E+04  0.16651932167E+04  0.25500000000E-02 0.  1.
          2   -1    0    0  501    0  0.00000000000E+00 -0.00000000000E+00 -0.71572091062E+03  0.71572091063E+03  0.25500000000E-02 0. -1.
    8880023    1    1    2    0    0 -0.35998343647E+03 -0.72705980544E+03  0.11264996720E+04  0.15365597133E+04  0.65864270000E+03 0.  1.
    8880022    1    1    2    0    0  0.35998343647E+03  0.72705980544E+03 -0.17702736593E+03  0.84435441404E+03  0.15294330000E+03 0.  0.
<mgrwt>
<rscale>  0 0.98520468E+03</rscale>
<asrwt>0</asrwt>
<pdfrwt beam="1">  1        2 0.11011091E+00 0.10449949E+04</pdfrwt>
<pdfrwt beam="2">  1       -2 0.25618357E+00 0.10449949E+04</pdfrwt>
<totfact> 0.23306030E+00</totfact>
</mgrwt>
</event>
<event>
 4    5  0.3123645E-007  0.1438451E+04  0.7818608E-02  0.8954367E-01
         -2   -1    0    0    0  501 -0.00000000000E+00  0.00000000000E+00  0.25921487243E+04  0.25921487243E+04  0.25500000000E-02 0.  1.
          2   -1    0    0  501    0  0.00000000000E+00 -0.00000000000E+00 -0.25578888196E+04  0.25578888196E+04  0.25500000000E-02 0. -1.
    8880023    1    1    2    0    0 -0.11847413005E+04 -0.48137124203E+03  0.22010378385E+04  0.26293930848E+04  0.65864270000E+03 0.  0.
    8880022    1    1    2    0    0  0.11847413005E+04  0.48137124203E+03 -0.21667779339E+04  0.25206444591E+04  0.15294330000E+03 0.  0.
<mgrwt>
<rscale>  0 0.13992423E+04</rscale>
<asrwt>0</asrwt>
<pdfrwt beam="1">  1        2 0.39352136E+00 0.14384507E+04</pdfrwt>
<pdfrwt beam="2">  1       -2 0.39879211E+00 0.14384507E+04</pdfrwt>
<totfact> 0.23115691E-02</totfact>
</mgrwt>
</event>
<event>
 4    5  0.1112901E-007  0.1012024E+04  0.7818608E-02  0.9365993E-01
          2   -1    0    0  501    0  0.00000000000E+00  0.00000000000E+00  0.27677561599E+04  0.27677561599E+04  0.25500000000E-02 0. -1.
         -2   -1    0    0    0  501 -0.00000000000E+00 -0.00000000000E+00 -0.60151206016E+03  0.60151206017E+03  0.25500000000E-02 0.  1.
    8880023    1    1    2    0    0 -0.60823819071E+03  0.46949845900E+03 -0.55396212336E+02  0.10135390699E+04  0.65864270000E+03 0.  0.
    8880022    1    1    2    0    0  0.60823819071E+03 -0.46949845900E+03  0.22216403121E+04  0.23557291502E+04  0.15294330000E+03 0.  0.
<mgrwt>
<rscale>  0 0.94927972E+03</rscale>
<asrwt>0</asrwt>
<pdfrwt beam="1">  1        2 0.42580865E+00 0.10120241E+04</pdfrwt>
<pdfrwt beam="2">  1       -2 0.92540316E-01 0.10120241E+04</pdfrwt>
<totfact> 0.24272149E+00</totfact>
</mgrwt>
</event>
<event>
 4    5  0.1112901E-007  0.8881968E+03  0.7818608E-02  0.9545251E-01
          2   -1    0    0  501    0  0.00000000000E+00  0.00000000000E+00  0.15205946557E+04  0.15205946557E+04  0.25500000000E-02 0. -1.
         -2   -1    0    0    0  501 -0.00000000000E+00 -0.00000000000E+00 -0.17944785932E+04  0.17944785932E+04  0.25500000000E-02 0.  1.
    8880023    1    1    2    0    0 -0.28042627885E+03 -0.52577985493E+03 -0.16130150487E+04  0.18413883641E+04  0.65864270000E+03 0.  1.
    8880022    1    1    2    0    0  0.28042627885E+03  0.52577985493E+03  0.13391311112E+04  0.14736848848E+04  0.15294330000E+03 0.  0.
<mgrwt>
<rscale>  0 0.81028268E+03</rscale>
<asrwt>0</asrwt>
<pdfrwt beam="1">  1        2 0.23393764E+00 0.88819680E+03</pdfrwt>
<pdfrwt beam="2">  1       -2 0.27607363E+00 0.88819680E+03</pdfrwt>
<totfact> 0.56146800E-01</totfact>
</mgrwt>
</event>
<event>
 4    5  0.1112901E-007  0.8387499E+03  0.7818608E-02  0.9632542E-01
         -2   -1    0    0    0  501 -0.00000000000E+00  0.00000000000E+00  0.74115966130E+03  0.74115966131E+03  0.25500000000E-02 0.  1.
          2   -1    0    0  501    0  0.00000000000E+00 -0.00000000000E+00 -0.25204486134E+04  0.25204486134E+04  0.25500000000E-02 0. -1.
    8880023    1    1    2    0    0 -0.33542662937E+03 -0.39645962633E+03  0.46082449555E+03  0.95700610289E+03  0.65864270000E+03 0.  1.
    8880022    1    1    2    0    0  0.33542662937E+03  0.39645962633E+03 -0.22401134477E+04  0.23046021718E+04  0.15294330000E+03 0.  0.
<mgrwt>
<rscale>  0 0.75179285E+03</rscale>
<asrwt>0</asrwt>
<pdfrwt beam="1">  1        2 0.38776132E+00 0.83874994E+03</pdfrwt>
<pdfrwt beam="2">  1       -2 0.11402456E+00 0.83874994E+03</pdfrwt>
<totfact> 0.21088759E+00</totfact>
</mgrwt>
</event>
<event>
 4    5  0.1112901E-007  0.1181285E+04  0.7818608E-02  0.9175533E-01
         -2   -1    0    0    0  501 -0.00000000000E+00  0.00000000000E+00  0.84117060740E+03  0.84117060741E+03  0.25500000000E-02 0.  1.
          2   -1    0    0  501    0  0.00000000000E+00 -0.00000000000E+00 -0.19182855265E+04  0.19182855265E+04  0.25500000000E-02 0. -1.
    8880023    1    1    2    0    0  0.84651325703E+03  0.49501357043E+03  0.13936348984E+03  0.11894769934E+04  0.65864270000E+03 0.  1.
    8880022    1    1    2    0    0 -0.84651325703E+03 -0.49501357043E+03 -0.12164784089E+04  0.15699791405E+04  0.15294330000E+03 0.  0.
<mgrwt>
<rscale>  0 0.11309574E+04</rscale>
<asrwt>0</asrwt>
<pdfrwt beam="1">  1        2 0.29512085E+00 0.11812846E+04</pdfrwt>
<pdfrwt beam="2">  1       -2 0.12941086E+00 0.11812846E+04</pdfrwt>
<totfact> 0.31831484E+00</totfact>
</mgrwt>
</event>
<event>
 4    5  0.1112901E-007  0.7820776E+03  0.7818608E-02  0.9750979E-01
         -2   -1    0    0    0  501 -0.00000000000E+00  0.00000000000E+00  0.15309236294E+03  0.15309236296E+03  0.25500000000E-02 0.  1.
          2   -1    0    0  501    0  0.00000000000E+00 -0.00000000000E+00 -0.36376866992E+04  0.36376866992E+04  0.25500000000E-02 0. -1.
    8880023    1    1    2    0    0  0.38240271095E+03  0.17777347691E+03 -0.10180341384E+04  0.12837596955E+04  0.65864270000E+03 0.  0.
    8880022    1    1    2    0    0 -0.38240271095E+03 -0.17777347691E+03 -0.24665601978E+04  0.25070193667E+04  0.15294330000E+03 0.  0.
<mgrwt>
<rscale>  0 0.68060974E+03</rscale>
<asrwt>0</asrwt>
<pdfrwt beam="1">  1        2 0.55964404E+00 0.78207765E+03</pdfrwt>
<pdfrwt beam="2">  1       -2 0.23552674E-01 0.78207765E+03</pdfrwt>
<totfact> 0.11159294E+01</totfact>
</mgrwt>
</event>
<event>
 4    5  0.1112901E-007  0.1164913E+04  0.7818608E-02  0.9192007E-01
         -2   -1    0    0    0  501 -0.00000000000E+00  0.00000000000E+00  0.79254811650E+03  0.79254811650E+03  0.25500000000E-02 0.  1.
          2   -1    0    0  501    0  0.00000000000E+00 -0.00000000000E+00 -0.16072418703E+04  0.16072418703E+04  0.25500000000E-02 0. -1.
    8880023    1    1    2    0    0  0.95690830078E+03  0.86828768517E+02 -0.56443999811E+02  0.11662799246E+04  0.65864270000E+03 0. -1.
    8880022    1    1    2    0    0 -0.95690830078E+03 -0.86828768517E+02 -0.75824975403E+03  0.12335100622E+04  0.15294330000E+03 0.  0.
<mgrwt>
<rscale>  0 0.11136309E+04</rscale>
<asrwt>0</asrwt>
<pdfrwt beam="1">  1        2 0.24726798E+00 0.11649133E+04</pdfrwt>
<pdfrwt beam="2">  1       -2 0.12193048E+00 0.11649133E+04</pdfrwt>
<totfact> 0.55137370E+00</totfact>
</mgrwt>
</event>
<event>
 4    5  0.1112901E-007  0.7515590E+03  0.7818608E-02  0.9827472E-01
          2   -1    0    0  501    0  0.00000000000E+00  0.00000000000E+00  0.35030407450E+04  0.35030407450E+04  0.25500000000E-02 0. -1.
         -2   -1    0    0    0  501 -0.00000000000E+00 -0.00000000000E+00 -0.16893283710E+03  0.16893283712E+03  0.25500000000E-02 0.  1.
    8880023    1    1    2    0    0 -0.86297762145E+02 -0.35154436243E+03  0.76291595537E+03  0.10709256294E+04  0.65864270000E+03 0.  1.
    8880022    1    1    2    0    0  0.86297762145E+02  0.35154436243E+03  0.25711919525E+04  0.26010479527E+04  0.15294330000E+03 0.  0.
<mgrwt>
<rscale>  0 0.63908864E+03</rscale>
<asrwt>0</asrwt>
<pdfrwt beam="1">  1        2 0.53892935E+00 0.75155901E+03</pdfrwt>
<pdfrwt beam="2">  1       -2 0.25989667E-01 0.75155901E+03</pdfrwt>
<totfact> 0.11657974E+01</totfact>
</mgrwt>
</event>
<event>
 4    5  0.1112901E-007  0.7786677E+03  0.7818608E-02  0.9758976E-01
         -2   -1    0    0    0  501 -0.00000000000E+00  0.00000000000E+00  0.97598724996E+03  0.97598724997E+03  0.25500000000E-02 0.  1.
          2   -1    0    0  501    0  0.00000000000E+00 -0.00000000000E+00 -0.79132404575E+03  0.79132404576E+03  0.25500000000E-02 0. -1.
    8880023    1    1    2    0    0 -0.34457929588E+03  0.23190160884E+03  0.72836661188E+03  0.10662276375E+04  0.65864270000E+03 0.  1.
    8880022    1    1    2    0    0  0.34457929588E+03 -0.23190160884E+03 -0.54370340768E+03  0.70108365825E+03  0.15294330000E+03 0.  0.
<mgrwt>
<rscale>  0 0.67611380E+03</rscale>
<asrwt>0</asrwt>
<pdfrwt beam="1">  1        2 0.12174216E+00 0.77866774E+03</pdfrwt>
<pdfrwt beam="2">  1       -2 0.15015188E+00 0.77866774E+03</pdfrwt>
<totfact> 0.10578423E+01</totfact>
</mgrwt>
</event>
<event>
 4    5  0.1112901E-007  0.7896315E+03  0.7818608E-02  0.9733680E-01
         -2   -1    0    0    0  501 -0.00000000000E+00  0.00000000000E+00  0.16219604490E+04  0.16219604490E+04  0.25500000000E-02 0.  1.
          2   -1    0    0  501    0  0.00000000000E+00 -0.00000000000E+00 -0.81065396617E+03  0.81065396617E+03  0.25500000000E-02 0. -1.
    8880023    1    1    2    0    0  0.40388579737E+03  0.16304591112E+03  0.14461453324E+04  0.16476814726E+04  0.65864270000E+03 0.  0.
    8880022    1    1    2    0    0 -0.40388579737E+03 -0.16304591112E+03 -0.63483884955E+03  0.78493294259E+03  0.15294330000E+03 0.  0.
<mgrwt>
<rscale>  0 0.69046413E+03</rscale>
<asrwt>0</asrwt>
<pdfrwt beam="1">  1        2 0.12471600E+00 0.78963150E+03</pdfrwt>
<pdfrwt beam="2">  1       -2 0.24953237E+00 0.78963150E+03</pdfrwt>
<totfact> 0.22450134E+00</totfact>
</mgrwt>
</event>
<event>
 4    5  0.1112901E-007  0.7440631E+03  0.7818608E-02  0.9848266E-01
         -2   -1    0    0    0  501 -0.00000000000E+00  0.00000000000E+00  0.10298875088E+04  0.10298875088E+04  0.25500000000E-02 0.  1.
          2   -1    0    0  501    0  0.00000000000E+00 -0.00000000000E+00 -0.54187391810E+03  0.54187391811E+03  0.25500000000E-02 0. -1.
    8880023    1    1    2    0    0  0.18501425827E+03 -0.29255661000E+03 -0.21401540711E+03  0.77423022840E+03  0.65864270000E+03 0. -1.
    8880022    1    1    2    0    0 -0.18501425827E+03  0.29255661000E+03  0.70202899781E+03  0.79753119851E+03  0.15294330000E+03 0.  0.
<mgrwt>
<rscale>  0 0.62835413E+03</rscale>
<asrwt>0</asrwt>
<pdfrwt beam="1">  1        2 0.83365219E-01 0.74406307E+03</pdfrwt>
<pdfrwt beam="2">  1       -2 0.15844423E+00 0.74406307E+03</pdfrwt>
<totfact> 0.14714741E+01</totfact>
</mgrwt>
</event>
<event>
 4    5  0.1112901E-007  0.7134464E+03  0.7818608E-02  0.9945419E-01
         -2   -1    0    0    0  501 -0.00000000000E+00  0.00000000000E+00  0.16295996410E+04  0.16295996410E+04  0.25500000000E-02 0.  1.
          2   -1    0    0  501    0  0.00000000000E+00 -0.00000000000E+00 -0.80703290835E+03  0.80703290835E+03  0.25500000000E-02 0. -1.
    8880023    1    1    2    0    0  0.31807299262E+02 -0.27236715808E+03  0.15159650217E+04  0.16754568710E+04  0.65864270000E+03 0.  1.
    8880022    1    1    2    0    0 -0.31807299262E+02  0.27236715808E+03 -0.69339828907E+03  0.76117567840E+03  0.15294330000E+03 0.  0.
<mgrwt>
<rscale>  0 0.58109695E+03</rscale>
<asrwt>0</asrwt>
<pdfrwt beam="1">  1        2 0.12415891E+00 0.71344641E+03</pdfrwt>
<pdfrwt beam="2">  1       -2 0.25070764E+00 0.71344641E+03</pdfrwt>
<totfact> 0.22484758E+00</totfact>
</mgrwt>
</event>
<event>
 4    5  0.1112901E-007  0.9084668E+03  0.7818608E-02  0.9512574E-01
          2   -1    0    0  501    0  0.00000000000E+00  0.00000000000E+00  0.30252781858E+04  0.30252781858E+04  0.25500000000E-02 0. -1.
         -2   -1    0    0    0  501 -0.00000000000E+00 -0.00000000000E+00 -0.21805919677E+03  0.21805919678E+03  0.25500000000E-02 0.  1.
    8880023    1    1    2    0    0  0.38053319660E+03  0.49668513319E+03  0.11513565713E+04  0.14666062171E+04  0.65864270000E+03 0.  0.
    8880022    1    1    2    0    0 -0.38053319660E+03 -0.49668513319E+03  0.16558624177E+04  0.17767311655E+04  0.15294330000E+03 0.  0.
<mgrwt>
<rscale>  0 0.83363095E+03</rscale>
<asrwt>0</asrwt>
<pdfrwt beam="1">  1        2 0.46542739E+00 0.90846675E+03</pdfrwt>
<pdfrwt beam="2">  1       -2 0.33547570E-01 0.90846675E+03</pdfrwt>
<totfact> 0.14442423E+01</totfact>
</mgrwt>
</event>
<event>
 4    5  0.1112901E-007  0.8145340E+03  0.7818608E-02  0.9680209E-01
          2   -1    0    0  501    0  0.00000000000E+00  0.00000000000E+00  0.13031394183E+04  0.13031394183E+04  0.25500000000E-02 0. -1.
         -2   -1    0    0    0  501 -0.00000000000E+00 -0.00000000000E+00 -0.41459849375E+03  0.41459849375E+03  0.25500000000E-02 0.  1.
    8880023    1    1    2    0    0 -0.21857061054E+03 -0.42647656281E+03  0.15636180342E+03  0.82940616724E+03  0.65864270000E+03 0. -1.
    8880022    1    1    2    0    0  0.21857061054E+03  0.42647656281E+03  0.73217912110E+03  0.88833174479E+03  0.15294330000E+03 0.  0.
<mgrwt>
<rscale>  0 0.72207457E+03</rscale>
<asrwt>0</asrwt>
<pdfrwt beam="1">  1        2 0.20048299E+00 0.81453396E+03</pdfrwt>
<pdfrwt beam="2">  1       -2 0.63784384E-01 0.81453396E+03</pdfrwt>
<totfact> 0.37921033E+01</totfact>
</mgrwt>
</event>
<event>
 4    5  0.1112901E-007  0.6871417E+03  0.7818608E-02  0.1005542E+00
         -2   -1    0    0    0  501 -0.00000000000E+00  0.00000000000E+00  0.70469080270E+03  0.70469080271E+03  0.25500000000E-02 0.  1.
          2   -1    0    0  501    0  0.00000000000E+00 -0.00000000000E+00 -0.94341066714E+03  0.94341066714E+03  0.25500000000E-02 0. -1.
    8880023    1    1    2    0    0 -0.24624028294E+02 -0.19428634205E+03  0.51226416175E+03  0.85707543609E+03  0.65864270000E+03 0.  1.
    8880022    1    1    2    0    0  0.24624028294E+02  0.19428634205E+03 -0.75098402619E+03  0.79102603376E+03  0.15294330000E+03 0.  0.
<mgrwt>
<rscale>  0 0.53285631E+03</rscale>
<asrwt>0</asrwt>
<pdfrwt beam="1">  1        2 0.14514010E+00 0.68714171E+03</pdfrwt>
<pdfrwt beam="2">  1       -2 0.10841397E+00 0.68714171E+03</pdfrwt>
<totfact> 0.19090057E+01</totfact>
</mgrwt>
</event>
<event>
 4    5  0.1112901E-007  0.7221263E+03  0.7818608E-02  0.9915456E-01
         -2   -1    0    0    0  501 -0.00000000000E+00  0.00000000000E+00  0.39611580102E+03  0.39611580103E+03  0.25500000000E-02 0.  1.
          2   -1    0    0  501    0  0.00000000000E+00 -0.00000000000E+00 -0.11337599792E+04  0.11337599792E+04  0.25500000000E-02 0. -1.
    8880023    1    1    2    0    0 -0.91576247458E+02  0.28154929942E+03 -0.18401749534E+01  0.72212866555E+03  0.65864270000E+03 0.  0.
    8880022    1    1    2    0    0  0.91576247458E+02 -0.28154929942E+03 -0.73580400321E+03  0.80774711467E+03  0.15294330000E+03 0.  0.
<mgrwt>
<rscale>  0 0.59518045E+03</rscale>
<asrwt>0</asrwt>
<pdfrwt beam="1">  1        2 0.17442461E+00 0.72212632E+03</pdfrwt>
<pdfrwt beam="2">  1       -2 0.60940893E-01 0.72212632E+03</pdfrwt>
<totfact> 0.53057704E+01</totfact>
</mgrwt>
</event>
<event>
 4    5  0.1112901E-007  0.8819508E+03  0.7818608E-02  0.9555651E-01
          2   -1    0    0  501    0  0.00000000000E+00  0.00000000000E+00  0.19953593213E+04  0.19953593213E+04  0.25500000000E-02 0. -1.
         -2   -1    0    0    0  501 -0.00000000000E+00 -0.00000000000E+00 -0.44596366585E+03  0.44596366586E+03  0.25500000000E-02 0.  1.
    8880023    1    1    2    0    0 -0.30714760688E+02  0.58573335107E+03  0.12173517029E+03  0.89031264903E+03  0.65864270000E+03 0.  1.
    8880022    1    1    2    0    0  0.30714760688E+02 -0.58573335107E+03  0.14276604852E+04  0.15510103381E+04  0.15294330000E+03 0.  0.
<mgrwt>
<rscale>  0 0.80302377E+03</rscale>
<asrwt>0</asrwt>
<pdfrwt beam="1">  1        2 0.30697836E+00 0.88195077E+03</pdfrwt>
<pdfrwt beam="2">  1       -2 0.68609795E-01 0.88195077E+03</pdfrwt>
<totfact> 0.13271011E+01</totfact>
</mgrwt>
</event>
<event>
 4    5  0.1112901E-007  0.7176609E+03  0.7818608E-02  0.9930582E-01
          2   -1    0    0  501    0  0.00000000000E+00  0.00000000000E+00  0.20337396787E+04  0.20337396787E+04  0.25500000000E-02 0. -1.
         -2   -1    0    0    0  501 -0.00000000000E+00 -0.00000000000E+00 -0.17917232578E+03  0.17917232579E+03  0.25500000000E-02 0.  1.
    8880023    1    1    2    0    0 -0.10618446966E+03 -0.26448394135E+03  0.65887900371E+03  0.97424773268E+03  0.65864270000E+03 0.  1.
    8880022    1    1    2    0    0  0.10618446966E+03  0.26448394135E+03  0.11956883492E+04  0.12386642718E+04  0.15294330000E+03 0.  0.
<mgrwt>
<rscale>  0 0.58801788E+03</rscale>
<asrwt>0</asrwt>
<pdfrwt beam="1">  1        2 0.31288302E+00 0.71766086E+03</pdfrwt>
<pdfrwt beam="2">  1       -2 0.27564974E-01 0.71766086E+03</pdfrwt>
<totfact> 0.79172839E+01</totfact>
</mgrwt>
</event>
<event>
 4    5  0.1112901E-007  0.8206435E+03  0.7818608E-02  0.9667819E-01
         -2   -1    0    0    0  501 -0.00000000000E+00  0.00000000000E+00  0.23518466188E+03  0.23518466189E+03  0.25500000000E-02 0.  1.
          2   -1    0    0  501    0  0.00000000000E+00 -0.00000000000E+00 -0.20311637319E+04  0.20311637319E+04  0.25500000000E-02 0. -1.
    8880023    1    1    2    0    0  0.17420309204E+03 -0.45749192434E+03 -0.79992445092E+03  0.11460082511E+04  0.65864270000E+03 0.  0.
    8880022    1    1    2    0    0 -0.17420309204E+03  0.45749192434E+03 -0.99605461908E+03  0.11203401427E+04  0.15294330000E+03 0.  1.
<mgrwt>
<rscale>  0 0.72965584E+03</rscale>
<asrwt>0</asrwt>
<pdfrwt beam="1">  1        2 0.31248672E+00 0.82064352E+03</pdfrwt>
<pdfrwt beam="2">  1       -2 0.36182257E-01 0.82064352E+03</pdfrwt>
<totfact> 0.47167551E+01</totfact>
</mgrwt>
</event>
<event>
 4    5  0.1112901E-007  0.1621294E+04  0.7818608E-02  0.8828418E-01
         -2   -1    0    0    0  501 -0.00000000000E+00  0.00000000000E+00  0.17677917902E+04  0.17677917902E+04  0.25500000000E-02 0.  1.
          2   -1    0    0  501    0  0.00000000000E+00 -0.00000000000E+00 -0.21987312974E+04  0.21987312974E+04  0.25500000000E-02 0. -1.
    8880023    1    1    2    0    0  0.14651955518E+04  0.21906066990E+03  0.99692876855E+03  0.19032768474E+04  0.65864270000E+03 0.  0.
    8880022    1    1    2    0    0 -0.14651955518E+04 -0.21906066990E+03 -0.14278682757E+04  0.20632462402E+04  0.15294330000E+03 0.  0.
<mgrwt>
<rscale>  0 0.15872523E+04</rscale>
<asrwt>0</asrwt>
<pdfrwt beam="1">  1        2 0.33826635E+00 0.16212945E+04</pdfrwt>
<pdfrwt beam="2">  1       -2 0.27196797E+00 0.16212945E+04</pdfrwt>
<totfact> 0.22541322E-01</totfact>
</mgrwt>
</event>
<event>
 4    5  0.1112901E-007  0.6618673E+03  0.7818608E-02  0.1022320E+00
         -2   -1    0    0    0  501 -0.00000000000E+00  0.00000000000E+00  0.27006592573E+03  0.27006592575E+03  0.25500000000E-02 0.  1.
          2   -1    0    0  501    0  0.00000000000E+00 -0.00000000000E+00 -0.12852906438E+04  0.12852906438E+04  0.25500000000E-02 0. -1.
    8880023    1    1    2    0    0 -0.64957491994E+02  0.62126319048E+01 -0.15575194704E+03  0.67994628305E+03  0.65864270000E+03 0.  1.
    8880022    1    1    2    0    0  0.64957491994E+02 -0.62126319048E+01 -0.85947277103E+03  0.87541028651E+03  0.15294330000E+03 0.  0.
<mgrwt>
<rscale>  0 0.46858624E+03</rscale>
<asrwt>0</asrwt>
<pdfrwt beam="1">  1        2 0.19773702E+00 0.66186727E+03</pdfrwt>
<pdfrwt beam="2">  1       -2 0.41548605E-01 0.66186727E+03</pdfrwt>
<totfact> 0.94798392E+01</totfact>
</mgrwt>
</event>
<event>
 4    5  0.1112901E-007  0.8408609E+03  0.7818608E-02  0.9628559E-01
          2   -1    0    0  501    0  0.00000000000E+00  0.00000000000E+00  0.22939621704E+04  0.22939621704E+04  0.25500000000E-02 0. -1.
         -2   -1    0    0    0  501 -0.00000000000E+00 -0.00000000000E+00 -0.25941055016E+03  0.25941055017E+03  0.25500000000E-02 0.  1.
    8880023    1    1    2    0    0  0.13444740378E+03 -0.50513438141E+03  0.64145696466E+03  0.10575982656E+04  0.65864270000E+03 0.  1.
    8880022    1    1    2    0    0 -0.13444740378E+03  0.50513438141E+03  0.13930946556E+04  0.14957744549E+04  0.15294330000E+03 0.  0.
<mgrwt>
<rscale>  0 0.75434450E+03</rscale>
<asrwt>0</asrwt>
<pdfrwt beam="1">  1        2 0.35291725E+00 0.84086090E+03</pdfrwt>
<pdfrwt beam="2">  1       -2 0.39909316E-01 0.84086090E+03</pdfrwt>
<totfact> 0.27870332E+01</totfact>
</mgrwt>
</event>
<event>
 4    5  0.1112901E-007  0.7604243E+03  0.7818608E-02  0.9804010E-01
          2   -1    0    0  501    0  0.00000000000E+00  0.00000000000E+00  0.13101961706E+04  0.13101961706E+04  0.25500000000E-02 0. -1.
         -2   -1    0    0    0  501 -0.00000000000E+00 -0.00000000000E+00 -0.17097920787E+04  0.17097920787E+04  0.25500000000E-02 0.  1.
    8880023    1    1    2    0    0  0.15250044997E+03 -0.34810697570E+03 -0.15892325853E+04  0.17617903593E+04  0.65864270000E+03 0.  1.
    8880022    1    1    2    0    0 -0.15250044997E+03  0.34810697570E+03  0.11896366772E+04  0.12581978900E+04  0.15294330000E+03 0.  0.
<mgrwt>
<rscale>  0 0.65147768E+03</rscale>
<asrwt>0</asrwt>
<pdfrwt beam="1">  1        2 0.20156864E+00 0.76042426E+03</pdfrwt>
<pdfrwt beam="2">  1       -2 0.26304493E+00 0.76042426E+03</pdfrwt>
<totfact> 0.90623935E-01</totfact>
</mgrwt>
</event>
<event>
 4    5  0.1112901E-007  0.8088168E+03  0.7818608E-02  0.9692047E-01
         -2   -1    0    0    0  501 -0.00000000000E+00  0.00000000000E+00  0.26003098635E+04  0.26003098635E+04  0.25500000000E-02 0.  1.
          2   -1    0    0  501    0  0.00000000000E+00 -0.00000000000E+00 -0.13482178140E+04  0.13482178140E+04  0.25500000000E-02 0. -1.
    8880023    1    1    2    0    0  0.21846827069E+03  0.41550692893E+03  0.24887892489E+04  0.26169173706E+04  0.65864270000E+03 0.  0.
    8880022    1    1    2    0    0 -0.21846827069E+03 -0.41550692893E+03 -0.12366971994E+04  0.13316103068E+04  0.15294330000E+03 0.  0.
<mgrwt>
<rscale>  0 0.71492300E+03</rscale>
<asrwt>0</asrwt>
<pdfrwt beam="1">  1        2 0.20741813E+00 0.80881679E+03</pdfrwt>
<pdfrwt beam="2">  1       -2 0.40004767E+00 0.80881679E+03</pdfrwt>
<totfact> 0.12174657E-01</totfact>
</mgrwt>
</event>
<event>
 4    5  0.1112901E-007  0.8630585E+03  0.7818608E-02  0.9588146E-01
          2   -1    0    0  501    0  0.00000000000E+00  0.00000000000E+00  0.29695255838E+04  0.29695255838E+04  0.25500000000E-02 0. -1.
         -2   -1    0    0    0  501 -0.00000000000E+00 -0.00000000000E+00 -0.42924760910E+03  0.42924760910E+03  0.25500000000E-02 0.  1.
    8880023    1    1    2    0    0 -0.23317039475E+03  0.50664722748E+03  0.74706917729E+02  0.86628585116E+03  0.65864270000E+03 0.  0.
    8880022    1    1    2    0    0  0.23317039475E+03 -0.50664722748E+03  0.24655710570E+04  0.25324873418E+04  0.15294330000E+03 0. -1.
<mgrwt>
<rscale>  0 0.78085759E+03</rscale>
<asrwt>0</asrwt>
<pdfrwt beam="1">  1        2 0.45685009E+00 0.86305855E+03</pdfrwt>
<pdfrwt beam="2">  1       -2 0.66038094E-01 0.86305855E+03</pdfrwt>
<totfact> 0.40059094E+00</totfact>
</mgrwt>
</event>
<event>
 4    5  0.1112901E-007  0.8905411E+03  0.7818608E-02  0.9541390E-01
         -2   -1    0    0    0  501 -0.00000000000E+00  0.00000000000E+00  0.55178715209E+03  0.55178715210E+03  0.25500000000E-02 0.  1.
          2   -1    0    0  501    0  0.00000000000E+00 -0.00000000000E+00 -0.36615079758E+04  0.36615079758E+04  0.25500000000E-02 0. -1.
    8880023    1    1    2    0    0 -0.35764836163E+03 -0.48097913227E+03  0.14328765224E+03  0.90199491894E+03  0.65864270000E+03 0.  1.
    8880022    1    1    2    0    0  0.35764836163E+03  0.48097913227E+03 -0.32530084760E+04  0.33113002090E+04  0.15294330000E+03 0.  0.
<mgrwt>
<rscale>  0 0.81299894E+03</rscale>
<asrwt>0</asrwt>
<pdfrwt beam="1">  1        2 0.56330891E+00 0.89054112E+03</pdfrwt>
<pdfrwt beam="2">  1       -2 0.84890333E-01 0.89054112E+03</pdfrwt>
<totfact> 0.79962316E-01</totfact>
</mgrwt>
</event>
<event>
 4    5  0.1112901E-007  0.8136181E+03  0.7818608E-02  0.9682089E-01
          2   -1    0    0  501    0  0.00000000000E+00  0.00000000000E+00  0.50447512152E+03  0.50447512153E+03  0.25500000000E-02 0. -1.
         -2   -1    0    0    0  501 -0.00000000000E+00 -0.00000000000E+00 -0.23729710452E+04  0.23729710452E+04  0.25500000000E-02 0.  1.
    8880023    1    1    2    0    0 -0.46806469023E+03 -0.95287375514E+02 -0.21524503387E+04  0.23010903730E+04  0.65864270000E+03 0.  1.
    8880022    1    1    2    0    0  0.46806469023E+03  0.95287375514E+02  0.28395441496E+03  0.57635579373E+03  0.15294330000E+03 0.  0.
<mgrwt>
<rscale>  0 0.72093278E+03</rscale>
<asrwt>0</asrwt>
<pdfrwt beam="1">  1        2 0.77611559E-01 0.81361812E+03</pdfrwt>
<pdfrwt beam="2">  1       -2 0.36507246E+00 0.81361812E+03</pdfrwt>
<totfact> 0.79554295E-01</totfact>
</mgrwt>
</event>
<event>
 4    5  0.1112901E-007  0.2175762E+04  0.7818608E-02  0.8539003E-01
          2   -1    0    0  501    0  0.00000000000E+00  0.00000000000E+00  0.23984270677E+04  0.23984270677E+04  0.25500000000E-02 0. -1.
         -2   -1    0    0    0  501 -0.00000000000E+00 -0.00000000000E+00 -0.19731514976E+04  0.19731514976E+04  0.25500000000E-02 0.  1.
    8880023    1    1    2    0    0  0.97369797968E+03 -0.18308584531E+04  0.67323142533E+03  0.22775384057E+04  0.65864270000E+03 0.  0.
    8880022    1    1    2    0    0 -0.97369797968E+03  0.18308584531E+04 -0.24795585526E+03  0.20940401596E+04  0.15294330000E+03 0.  0.
<mgrwt>
<rscale>  0 0.21512370E+04</rscale>
<asrwt>0</asrwt>
<pdfrwt beam="1">  1        2 0.36898878E+00 0.21757621E+04</pdfrwt>
<pdfrwt beam="2">  1       -2 0.30356177E+00 0.21757621E+04</pdfrwt>
<totfact> 0.10509220E-01</totfact>
</mgrwt>
</event>
<event>
 4    5  0.1112901E-007  0.7682827E+03  0.7818608E-02  0.9784118E-01
          2   -1    0    0  501    0  0.00000000000E+00  0.00000000000E+00  0.16660516957E+04  0.16660516957E+04  0.25500000000E-02 0. -1.
         -2   -1    0    0    0  501 -0.00000000000E+00 -0.00000000000E+00 -0.25941591818E+03  0.25941591819E+03  0.25500000000E-02 0.  1.
    8880023    1    1    2    0    0  0.24658051097E+03 -0.30926705622E+03  0.47868275084E+03  0.90520464132E+03  0.65864270000E+03 0.  0.
    8880022    1    1    2    0    0 -0.24658051097E+03  0.30926705622E+03  0.92795302669E+03  0.10202629726E+04  0.15294330000E+03 0.  0.
<mgrwt>
<rscale>  0 0.66221876E+03</rscale>
<asrwt>0</asrwt>
<pdfrwt beam="1">  1        2 0.25631564E+00 0.76828267E+03</pdfrwt>
<pdfrwt beam="2">  1       -2 0.39910142E-01 0.76828267E+03</pdfrwt>
<totfact> 0.62139248E+01</totfact>
</mgrwt>
</event>
<event>
 4    5  0.1112901E-007  0.9402211E+03  0.7818608E-02  0.9464326E-01
         -2   -1    0    0    0  501 -0.00000000000E+00  0.00000000000E+00  0.50091510880E+03  0.50091510880E+03  0.25500000000E-02 0.  1.
          2   -1    0    0  501    0  0.00000000000E+00 -0.00000000000E+00 -0.23342307447E+04  0.23342307447E+04  0.25500000000E-02 0. -1.
    8880023    1    1    2    0    0 -0.22604530220E+03 -0.63175081632E+03 -0.70614901607E+02  0.94286915485E+03  0.65864270000E+03 0.  0.
    8880022    1    1    2    0    0  0.22604530220E+03  0.63175081632E+03 -0.17627007343E+04  0.18922766987E+04  0.15294330000E+03 0.  0.
<mgrwt>
<rscale>  0 0.86965831E+03</rscale>
<asrwt>0</asrwt>
<pdfrwt beam="1">  1        2 0.35911242E+00 0.94022113E+03</pdfrwt>
<pdfrwt beam="2">  1       -2 0.77063864E-01 0.94022113E+03</pdfrwt>
<totfact> 0.66158429E+00</totfact>
</mgrwt>
</event>
<event>
 4    5  0.1112901E-007  0.1124488E+04  0.7818608E-02  0.9234270E-01
          2   -1    0    0  501    0  0.00000000000E+00  0.00000000000E+00  0.16041361851E+04  0.16041361851E+04  0.25500000000E-02 0. -1.
         -2   -1    0    0    0  501 -0.00000000000E+00 -0.00000000000E+00 -0.92447422843E+03  0.92447422844E+03  0.25500000000E-02 0.  1.
    8880023    1    1    2    0    0 -0.73112026589E+03  0.54417388067E+03 -0.31810227644E+03  0.11686151292E+04  0.65864270000E+03 0.  1.
    8880022    1    1    2    0    0  0.73112026589E+03 -0.54417388067E+03  0.99776423310E+03  0.13599952844E+04  0.15294330000E+03 0.  0.
<mgrwt>
<rscale>  0 0.10706601E+04</rscale>
<asrwt>0</asrwt>
<pdfrwt beam="1">  1        2 0.24679018E+00 0.11244876E+04</pdfrwt>
<pdfrwt beam="2">  1       -2 0.14222681E+00 0.11244876E+04</pdfrwt>
<totfact> 0.37473769E+00</totfact>
</mgrwt>
</event>
<event>
 4    5  0.1112901E-007  0.1166729E+04  0.7818608E-02  0.9190163E-01
          2   -1    0    0  501    0  0.00000000000E+00  0.00000000000E+00  0.97279064341E+03  0.97279064341E+03  0.25500000000E-02 0. -1.
         -2   -1    0    0    0  501 -0.00000000000E+00 -0.00000000000E+00 -0.17529669199E+04  0.17529669199E+04  0.25500000000E-02 0.  1.
    8880023    1    1    2    0    0 -0.23498740373E+01 -0.96303723775E+03  0.36423024057E+03  0.12222602495E+04  0.65864270000E+03 0. -1.
    8880022    1    1    2    0    0  0.23498740373E+01  0.96303723775E+03 -0.11444065171E+04  0.15034973138E+04  0.15294330000E+03 0.  1.
<mgrwt>
<rscale>  0 0.11155545E+04</rscale>
<asrwt>0</asrwt>
<pdfrwt beam="1">  1        2 0.14966010E+00 0.11667290E+04</pdfrwt>
<pdfrwt beam="2">  1       -2 0.26968722E+00 0.11667290E+04</pdfrwt>
<totfact> 0.12507593E+00</totfact>
</mgrwt>
</event>
<event>
 4    5  0.1112901E-007  0.1000311E+04  0.7818608E-02  0.9381150E-01
         -2   -1    0    0    0  501 -0.00000000000E+00  0.00000000000E+00  0.68964231325E+03  0.68964231325E+03  0.25500000000E-02 0.  1.
          2   -1    0    0  501    0  0.00000000000E+00 -0.00000000000E+00 -0.20367500585E+04  0.20367500585E+04  0.25500000000E-02 0. -1.
    8880023    1    1    2    0    0  0.52873144081E+03 -0.53596254288E+03  0.18051587693E+03  0.10164688741E+04  0.65864270000E+03 0.  0.
    8880022    1    1    2    0    0 -0.52873144081E+03  0.53596254288E+03 -0.15276236222E+04  0.17099234977E+04  0.15294330000E+03 0.  0.
<mgrwt>
<rscale>  0 0.93643306E+03</rscale>
<asrwt>0</asrwt>
<pdfrwt beam="1">  1        2 0.31334616E+00 0.10003114E+04</pdfrwt>
<pdfrwt beam="2">  1       -2 0.10609882E+00 0.10003114E+04</pdfrwt>
<totfact> 0.45715536E+00</totfact>
</mgrwt>
</event>
<event>
 4    5  0.1112901E-007  0.1107540E+04  0.7818608E-02  0.9252707E-01
          2   -1    0    0  501    0  0.00000000000E+00  0.00000000000E+00  0.82064728088E+03  0.82064728089E+03  0.25500000000E-02 0. -1.
         -2   -1    0    0    0  501 -0.00000000000E+00 -0.00000000000E+00 -0.13403003286E+04  0.13403003286E+04  0.25500000000E-02 0.  1.
    8880023    1    1    2    0    0  0.82960956366E+03  0.32339372177E+03 -0.58976501873E+03  0.12547782716E+04  0.65864270000E+03 0.  1.
    8880022    1    1    2    0    0 -0.82960956366E+03 -0.32339372177E+03  0.70111971007E+02  0.90616933786E+03  0.15294330000E+03 0.  0.
<mgrwt>
<rscale>  0 0.10525581E+04</rscale>
<asrwt>0</asrwt>
<pdfrwt beam="1">  1        2 0.12625343E+00 0.11075404E+04</pdfrwt>
<pdfrwt beam="2">  1       -2 0.20620005E+00 0.11075404E+04</pdfrwt>
<totfact> 0.39641926E+00</totfact>
</mgrwt>
</event>
<event>
 4    5  0.1112901E-007  0.9301373E+03  0.7818608E-02  0.9479287E-01
         -2   -1    0    0    0  501 -0.00000000000E+00  0.00000000000E+00  0.19229917459E+04  0.19229917459E+04  0.25500000000E-02 0.  1.
          2   -1    0    0  501    0  0.00000000000E+00 -0.00000000000E+00 -0.12637801717E+04  0.12637801717E+04  0.25500000000E-02 0. -1.
    8880023    1    1    2    0    0 -0.40658127367E+03 -0.51578767116E+03  0.17051224137E+04  0.19423176634E+04  0.65864270000E+03 0.  1.
    8880022    1    1    2    0    0  0.40658127367E+03  0.51578767116E+03 -0.10459108394E+04  0.12444542542E+04  0.15294330000E+03 0.  0.
<mgrwt>
<rscale>  0 0.85828265E+03</rscale>
<asrwt>0</asrwt>
<pdfrwt beam="1">  1        2 0.19442772E+00 0.93013733E+03</pdfrwt>
<pdfrwt beam="2">  1       -2 0.29584488E+00 0.93013733E+03</pdfrwt>
<totfact> 0.59367721E-01</totfact>
</mgrwt>
</event>
<event>
 4    5  0.1112901E-007  0.1353614E+04  0.7818608E-02  0.9020590E-01
          2   -1    0    0  501    0  0.00000000000E+00  0.00000000000E+00  0.25165079024E+04  0.25165079024E+04  0.25500000000E-02 0. -1.
         -2   -1    0    0    0  501 -0.00000000000E+00 -0.00000000000E+00 -0.11864916478E+04  0.11864916478E+04  0.25500000000E-02 0.  1.
    8880023    1    1    2    0    0  0.78231535177E+03 -0.88681705261E+03 -0.56275894114E+03  0.14659364333E+04  0.65864270000E+03 0.  0.
    8880022    1    1    2    0    0 -0.78231535177E+03  0.88681705261E+03  0.18927751957E+04  0.22370631169E+04  0.15294330000E+03 0.  0.
<mgrwt>
<rscale>  0 0.13113786E+04</rscale>
<asrwt>0</asrwt>
<pdfrwt beam="1">  1        2 0.38715506E+00 0.13536144E+04</pdfrwt>
<pdfrwt beam="2">  1       -2 0.18253718E+00 0.13536144E+04</pdfrwt>
<totfact> 0.56764731E-01</totfact>
</mgrwt>
</event>
<event>
 4    5  0.1112901E-007  0.1095005E+04  0.7818608E-02  0.9266638E-01
          2   -1    0    0  501    0  0.00000000000E+00  0.00000000000E+00  0.29418106708E+04  0.29418106708E+04  0.25500000000E-02 0. -1.
         -2   -1    0    0    0  501 -0.00000000000E+00 -0.00000000000E+00 -0.79989181317E+03  0.79989181317E+03  0.25500000000E-02 0.  1.
    8880023    1    1    2    0    0  0.48154107501E+03 -0.73030440085E+03 -0.30659864674E+03  0.11371188422E+04  0.65864270000E+03 0.  0.
    8880022    1    1    2    0    0 -0.48154107501E+03  0.73030440085E+03  0.24485175044E+04  0.26045836418E+04  0.15294330000E+03 0.  0.
<mgrwt>
<rscale>  0 0.10391315E+04</rscale>
<asrwt>0</asrwt>
<pdfrwt beam="1">  1        2 0.45258626E+00 0.10950053E+04</pdfrwt>
<pdfrwt beam="2">  1       -2 0.12306028E+00 0.10950053E+04</pdfrwt>
<totfact> 0.94528406E-01</totfact>
</mgrwt>
</event>
<event>
 4    5  0.1112901E-007  0.1171048E+04  0.7818608E-02  0.9185793E-01
          2   -1    0    0  501    0  0.00000000000E+00  0.00000000000E+00  0.17973257297E+04  0.17973257297E+04  0.25500000000E-02 0. -1.
         -2   -1    0    0    0  501 -0.00000000000E+00 -0.00000000000E+00 -0.83449234902E+03  0.83449234903E+03  0.25500000000E-02 0.  1.
    8880023    1    1    2    0    0  0.64057112640E+02 -0.96614657238E+03 -0.11285061005E+03  0.11764726854E+04  0.65864270000E+03 0.  0.
    8880022    1    1    2    0    0 -0.64057112640E+02  0.96614657238E+03  0.10756839907E+04  0.14553453933E+04  0.15294330000E+03 0.  0.
<mgrwt>
<rscale>  0 0.11201280E+04</rscale>
<asrwt>0</asrwt>
<pdfrwt beam="1">  1        2 0.27651165E+00 0.11710477E+04</pdfrwt>
<pdfrwt beam="2">  1       -2 0.12838344E+00 0.11710477E+04</pdfrwt>
<totfact> 0.37932689E+00</totfact>
</mgrwt>
</event>
<event>
 4    5  0.1112901E-007  0.6785764E+03  0.7818608E-02  0.1010141E+00
          2   -1    0    0  501    0  0.00000000000E+00  0.00000000000E+00  0.12394217443E+04  0.12394217443E+04  0.25500000000E-02 0. -1.
         -2   -1    0    0    0  501 -0.00000000000E+00 -0.00000000000E+00 -0.32528688378E+03  0.32528688379E+03  0.25500000000E-02 0.  1.
    8880023    1    1    2    0    0  0.16326169711E+03 -0.11699557628E+01  0.59387684990E+02  0.68117020922E+03  0.65864270000E+03 0.  1.
    8880022    1    1    2    0    0 -0.16326169711E+03  0.11699557628E+01  0.85474717553E+03  0.88353841888E+03  0.15294330000E+03 0.  0.
<mgrwt>
<rscale>  0 0.51418780E+03</rscale>
<asrwt>0</asrwt>
<pdfrwt beam="1">  1        2 0.19068027E+00 0.67857642E+03</pdfrwt>
<pdfrwt beam="2">  1       -2 0.50044136E-01 0.67857642E+03</pdfrwt>
<totfact> 0.69409683E+01</totfact>
</mgrwt>
</event>
<event>
 4    5  0.1112901E-007  0.7762080E+03  0.7818608E-02  0.9764821E-01
          2   -1    0    0  501    0  0.00000000000E+00  0.00000000000E+00  0.27286779392E+04  0.27286779392E+04  0.25500000000E-02 0. -1.
         -2   -1    0    0    0  501 -0.00000000000E+00 -0.00000000000E+00 -0.23262244067E+03  0.23262244068E+03  0.25500000000E-02 0.  1.
    8880023    1    1    2    0    0 -0.63352618203E+02 -0.40580175441E+03  0.51304904987E+03  0.93043976267E+03  0.65864270000E+03 0.  1.
    8880022    1    1    2    0    0  0.63352618203E+02  0.40580175441E+03  0.19830064486E+04  0.20308606172E+04  0.15294330000E+03 0.  0.
<mgrwt>
<rscale>  0 0.67285103E+03</rscale>
<asrwt>0</asrwt>
<pdfrwt beam="1">  1        2 0.41979662E+00 0.77620798E+03</pdfrwt>
<pdfrwt beam="2">  1       -2 0.35788067E-01 0.77620798E+03</pdfrwt>
<totfact> 0.19626184E+01</totfact>
</mgrwt>
</event>
<event>
 4    5  0.1112901E-007  0.1218194E+04  0.7818608E-02  0.9139636E-01
         -2   -1    0    0    0  501 -0.00000000000E+00  0.00000000000E+00  0.14571761821E+04  0.14571761821E+04  0.25500000000E-02 0.  1.
          2   -1    0    0  501    0  0.00000000000E+00 -0.00000000000E+00 -0.14456530225E+04  0.14456530225E+04  0.25500000000E-02 0. -1.
    8880023    1    1    2    0    0 -0.10207967583E+04  0.90339260165E+02 -0.90653310321E+03  0.15184859819E+04  0.65864270000E+03 0.  0.
    8880022    1    1    2    0    0  0.10207967583E+04 -0.90339260165E+02  0.91805626281E+03  0.13843432228E+04  0.15294330000E+03 0.  0.
<mgrwt>
<rscale>  0 0.11698810E+04</rscale>
<asrwt>0</asrwt>
<pdfrwt beam="1">  1        2 0.22240816E+00 0.12181943E+04</pdfrwt>
<pdfrwt beam="2">  1       -2 0.22418095E+00 0.12181943E+04</pdfrwt>
<totfact> 0.12275099E+00</totfact>
</mgrwt>
</event>
<event>
 4    5  0.1112901E-007  0.7969000E+03  0.7818608E-02  0.9717539E-01
          2   -1    0    0  501    0  0.00000000000E+00  0.00000000000E+00  0.32448172688E+04  0.32448172688E+04  0.25500000000E-02 0. -1.
         -2   -1    0    0    0  501 -0.00000000000E+00 -0.00000000000E+00 -0.17301866943E+03  0.17301866945E+03  0.25500000000E-02 0.  1.
    8880023    1    1    2    0    0  0.31636085574E+03 -0.31804900117E+03  0.93230853364E+03  0.12264781964E+04  0.65864270000E+03 0.  1.
    8880022    1    1    2    0    0 -0.31636085574E+03  0.31804900117E+03  0.21394900658E+04  0.21913577418E+04  0.15294330000E+03 0.  0.
<mgrwt>
<rscale>  0 0.69982036E+03</rscale>
<asrwt>0</asrwt>
<pdfrwt beam="1">  1        2 0.49920265E+00 0.79689997E+03</pdfrwt>
<pdfrwt beam="2">  1       -2 0.26618257E-01 0.79689997E+03</pdfrwt>
<totfact> 0.16421144E+01</totfact>
</mgrwt>
</event>
<event>
 4    5  0.1112901E-007  0.8236599E+03  0.7818608E-02  0.9661797E-01
          2   -1    0    0  501    0  0.00000000000E+00  0.00000000000E+00  0.10200464907E+04  0.10200464907E+04  0.25500000000E-02 0. -1.
         -2   -1    0    0    0  501 -0.00000000000E+00 -0.00000000000E+00 -0.69125441405E+03  0.69125441405E+03  0.25500000000E-02 0.  1.
    8880023    1    1    2    0    0  0.40201876309E+03 -0.28807336376E+03 -0.31793947620E+03  0.88289357545E+03  0.65864270000E+03 0.  1.
    8880022    1    1    2    0    0 -0.40201876309E+03  0.28807336376E+03  0.64673155288E+03  0.82840732934E+03  0.15294330000E+03 0.  0.
<mgrwt>
<rscale>  0 0.73337680E+03</rscale>
<asrwt>0</asrwt>
<pdfrwt beam="1">  1        2 0.15693023E+00 0.82365985E+03</pdfrwt>
<pdfrwt beam="2">  1       -2 0.10634683E+00 0.82365985E+03</pdfrwt>
<totfact> 0.17593836E+01</totfact>
</mgrwt>
</event>
<event>
 4    5  0.1112901E-007  0.1217403E+04  0.7818608E-02  0.9140388E-01
          2   -1    0    0  501    0  0.00000000000E+00  0.00000000000E+00  0.12692502703E+04  0.12692502703E+04  0.25500000000E-02 0. -1.
         -2   -1    0    0    0  501 -0.00000000000E+00 -0.00000000000E+00 -0.11826497079E+04  0.11826497079E+04  0.25500000000E-02 0.  1.
    8880023    1    1    2    0    0 -0.69585072796E+03 -0.75103440493E+03 -0.43490404911E+03  0.12927539020E+04  0.65864270000E+03 0.  0.
    8880022    1    1    2    0    0  0.69585072796E+03  0.75103440493E+03  0.52150461156E+03  0.11591460762E+04  0.15294330000E+03 0.  0.
<mgrwt>
<rscale>  0 0.11690488E+04</rscale>
<asrwt>0</asrwt>
<pdfrwt beam="1">  1        2 0.19526927E+00 0.12174034E+04</pdfrwt>
<pdfrwt beam="2">  1       -2 0.18194611E+00 0.12174034E+04</pdfrwt>
<totfact> 0.29367169E+00</totfact>
</mgrwt>
</event>
<event>
 4    5  0.1112901E-007  0.8169004E+03  0.7818608E-02  0.9675379E-01
         -2   -1    0    0    0  501 -0.00000000000E+00  0.00000000000E+00  0.39375014634E+03  0.39375014635E+03  0.25500000000E-02 0.  1.
          2   -1    0    0  501    0  0.00000000000E+00 -0.00000000000E+00 -0.21709063837E+04  0.21709063837E+04  0.25500000000E-02 0. -1.
    8880023    1    1    2    0    0  0.10468456489E+03  0.47175970165E+03 -0.11257989479E+03  0.82462143630E+03  0.65864270000E+03 0.  1.
    8880022    1    1    2    0    0 -0.10468456489E+03 -0.47175970165E+03 -0.16645763426E+04  0.17400350938E+04  0.15294330000E+03 0.  0.
<mgrwt>
<rscale>  0 0.72501832E+03</rscale>
<asrwt>0</asrwt>
<pdfrwt beam="1">  1        2 0.33398559E+00 0.81690041E+03</pdfrwt>
<pdfrwt beam="2">  1       -2 0.60576947E-01 0.81690041E+03</pdfrwt>
<totfact> 0.14003690E+01</totfact>
</mgrwt>
</event>
<event>
 4    5  0.1112901E-007  0.8616465E+03  0.7818608E-02  0.9590641E-01
         -2   -1    0    0    0  501 -0.00000000000E+00  0.00000000000E+00  0.13577462183E+04  0.13577462183E+04  0.25500000000E-02 0.  1.
          2   -1    0    0  501    0  0.00000000000E+00 -0.00000000000E+00 -0.62924951897E+03  0.62924951897E+03  0.25500000000E-02 0. -1.
    8880023    1    1    2    0    0  0.53130210754E+03 -0.16230373187E+03  0.10249375974E+04  0.13390040013E+04  0.65864270000E+03 0.  1.
    8880022    1    1    2    0    0 -0.53130210754E+03  0.16230373187E+03 -0.29644089801E+03  0.64799173596E+03  0.15294330000E+03 0.  0.
<mgrwt>
<rscale>  0 0.77918705E+03</rscale>
<asrwt>0</asrwt>
<pdfrwt beam="1">  1        2 0.96807619E-01 0.86164647E+03</pdfrwt>
<pdfrwt beam="2">  1       -2 0.20888403E+00 0.86164647E+03</pdfrwt>
<totfact> 0.54951106E+00</totfact>
</mgrwt>
</event>
<event>
 4    5  0.1112901E-007  0.1743709E+04  0.7818608E-02  0.8754330E-01
          2   -1    0    0  501    0  0.00000000000E+00  0.00000000000E+00  0.38020234592E+04  0.38020234592E+04  0.25500000000E-02 0. -1.
         -2   -1    0    0    0  501 -0.00000000000E+00 -0.00000000000E+00 -0.10163909567E+04  0.10163909567E+04  0.25500000000E-02 0.  1.
    8880023    1    1    2    0    0  0.66771750299E+02  0.16131500807E+04  0.18492654500E+03  0.17534878622E+04  0.65864270000E+03 0.  0.
    8880022    1    1    2    0    0 -0.66771750299E+02 -0.16131500807E+04  0.26007059575E+04  0.30649265537E+04  0.15294330000E+03 0.  0.
<mgrwt>
<rscale>  0 0.17123879E+04</rscale>
<asrwt>0</asrwt>
<pdfrwt beam="1">  1        2 0.58492668E+00 0.17437092E+04</pdfrwt>
<pdfrwt beam="2">  1       -2 0.15636784E+00 0.17437092E+04</pdfrwt>
<totfact> 0.12175383E-01</totfact>
</mgrwt>
</event>
<event>
 4    5  0.1112901E-007  0.1066644E+04  0.7818608E-02  0.9299136E-01
          2   -1    0    0  501    0  0.00000000000E+00  0.00000000000E+00  0.25010504606E+04  0.25010504606E+04  0.25500000000E-02 0. -1.
         -2   -1    0    0    0  501 -0.00000000000E+00 -0.00000000000E+00 -0.66055391054E+03  0.66055391055E+03  0.25500000000E-02 0.  1.
    8880023    1    1    2    0    0  0.69727358151E+03  0.46661375562E+03 -0.70474505108E+02  0.10689694601E+04  0.65864270000E+03 0.  1.
    8880022    1    1    2    0    0 -0.69727358151E+03 -0.46661375562E+03  0.19109710552E+04  0.20926349111E+04  0.15294330000E+03 0.  0.
<mgrwt>
<rscale>  0 0.10086246E+04</rscale>
<asrwt>0</asrwt>
<pdfrwt beam="1">  1        2 0.38477699E+00 0.10666438E+04</pdfrwt>
<pdfrwt beam="2">  1       -2 0.10162368E+00 0.10666438E+04</pdfrwt>
<totfact> 0.27616679E+00</totfact>
</mgrwt>
</event>
<event>
 4    5  0.1112901E-007  0.1434750E+04  0.7818608E-02  0.8957141E-01
         -2   -1    0    0    0  501 -0.00000000000E+00  0.00000000000E+00  0.13334921280E+04  0.13334921280E+04  0.25500000000E-02 0.  1.
          2   -1    0    0  501    0  0.00000000000E+00 -0.00000000000E+00 -0.21492989285E+04  0.21492989285E+04  0.25500000000E-02 0. -1.
    8880023    1    1    2    0    0 -0.36000226248E+03 -0.12227414745E+04  0.61453538929E+03  0.15608210319E+04  0.65864270000E+03 0.  0.
    8880022    1    1    2    0    0  0.36000226248E+03  0.12227414745E+04 -0.14303421898E+04  0.19219700246E+04  0.15294330000E+03 0.  0.
<mgrwt>
<rscale>  0 0.13954198E+04</rscale>
<asrwt>0</asrwt>
<pdfrwt beam="1">  1        2 0.33066137E+00 0.14347503E+04</pdfrwt>
<pdfrwt beam="2">  1       -2 0.20515264E+00 0.14347503E+04</pdfrwt>
<totfact> 0.64162095E-01</totfact>
</mgrwt>
</event>
<event>
 4    5  0.1112901E-007  0.8084324E+03  0.7818608E-02  0.9692851E-01
          2   -1    0    0  501    0  0.00000000000E+00  0.00000000000E+00  0.28105553161E+04  0.28105553161E+04  0.25500000000E-02 0. -1.
         -2   -1    0    0    0  501 -0.00000000000E+00 -0.00000000000E+00 -0.17072102366E+03  0.17072102368E+03  0.25500000000E-02 0.  1.
    8880023    1    1    2    0    0  0.15101102854E+01  0.46877554479E+03  0.11048472620E+04  0.13690326769E+04  0.65864270000E+03 0.  0.
    8880022    1    1    2    0    0 -0.15101102854E+01 -0.46877554479E+03  0.15349870304E+04  0.16122436628E+04  0.15294330000E+03 0.  0.
<mgrwt>
<rscale>  0 0.71444013E+03</rscale>
<asrwt>0</asrwt>
<pdfrwt beam="1">  1        2 0.43239313E+00 0.80843243E+03</pdfrwt>
<pdfrwt beam="2">  1       -2 0.26264772E-01 0.80843243E+03</pdfrwt>
<totfact> 0.31127105E+01</totfact>
</mgrwt>
</event>
<event>
 4    5  0.1112901E-007  0.6884024E+03  0.7818608E-02  0.1004921E+00
         -2   -1    0    0    0  501 -0.00000000000E+00  0.00000000000E+00  0.77201401696E+03  0.77201401697E+03  0.25500000000E-02 0.  1.
          2   -1    0    0  501    0  0.00000000000E+00 -0.00000000000E+00 -0.21821745389E+04  0.21821745389E+04  0.25500000000E-02 0. -1.
    8880023    1    1    2    0    0  0.11942874695E+03  0.16069964533E+03  0.60915168801E+03  0.91921900920E+03  0.65864270000E+03 0.  1.
    8880022    1    1    2    0    0 -0.11942874695E+03 -0.16069964533E+03 -0.20193122100E+04  0.20349695467E+04  0.15294330000E+03 0.  0.
<mgrwt>
<rscale>  0 0.53543991E+03</rscale>
<asrwt>0</asrwt>
<pdfrwt beam="1">  1        2 0.33571916E+00 0.68840236E+03</pdfrwt>
<pdfrwt beam="2">  1       -2 0.11877139E+00 0.68840236E+03</pdfrwt>
<totfact> 0.30327715E+00</totfact>
</mgrwt>
</event>
<event>
 4    5  0.1112901E-007  0.1172665E+04  0.7818608E-02  0.9184163E-01
         -2   -1    0    0    0  501 -0.00000000000E+00  0.00000000000E+00  0.26883598614E+04  0.26883598614E+04  0.25500000000E-02 0.  1.
          2   -1    0    0  501    0  0.00000000000E+00 -0.00000000000E+00 -0.80111761331E+03  0.80111761331E+03  0.25500000000E-02 0. -1.
    8880023    1    1    2    0    0 -0.66256028318E+02  0.96795769634E+03  0.21706904153E+04  0.24671925439E+04  0.65864270000E+03 0.  0.
    8880022    1    1    2    0    0  0.66256028318E+02 -0.96795769634E+03 -0.28344816726E+03  0.10222849308E+04  0.15294330000E+03 0.  0.
<mgrwt>
<rscale>  0 0.11218395E+04</rscale>
<asrwt>0</asrwt>
<pdfrwt beam="1">  1        2 0.12324886E+00 0.11726646E+04</pdfrwt>
<pdfrwt beam="2">  1       -2 0.41359382E+00 0.11726646E+04</pdfrwt>
<totfact> 0.20620763E-01</totfact>
</mgrwt>
</event>
<event>
 4    5  0.1112901E-007  0.8987510E+03  0.7818608E-02  0.9528040E-01
         -2   -1    0    0    0  501 -0.00000000000E+00  0.00000000000E+00  0.37205953526E+03  0.37205953526E+03  0.25500000000E-02 0.  1.
          2   -1    0    0  501    0  0.00000000000E+00 -0.00000000000E+00 -0.21008855873E+04  0.21008855873E+04  0.25500000000E-02 0. -1.
    8880023    1    1    2    0    0 -0.53900986791E+03 -0.28881067376E+03 -0.36414539727E+03  0.96971919627E+03  0.65864270000E+03 0.  1.
    8880022    1    1    2    0    0  0.53900986791E+03  0.28881067376E+03 -0.13646806548E+04  0.15032259263E+04  0.15294330000E+03 0.  0.
<mgrwt>
<rscale>  0 0.82247773E+03</rscale>
<asrwt>0</asrwt>
<pdfrwt beam="1">  1        2 0.32321316E+00 0.89875105E+03</pdfrwt>
<pdfrwt beam="2">  1       -2 0.57239930E-01 0.89875105E+03</pdfrwt>
<totfact> 0.17067050E+01</totfact>
</mgrwt>
</event>
<event>
 4    5  0.1112901E-007  0.1461080E+04  0.7818608E-02  0.8937619E-01
          2   -1    0    0  501    0  0.00000000000E+00  0.00000000000E+00  0.22863475356E+04  0.22863475356E+04  0.25500000000E-02 0. -1.
         -2   -1    0    0    0  501 -0.00000000000E+00 -0.00000000000E+00 -0.14173867882E+04  0.14173867882E+04  0.25500000000E-02 0.  1.
    8880023    1    1    2    0    0 -0.63577320197E+03  0.11387434007E+04 -0.73112964966E+03  0.16338007430E+04  0.65864270000E+03 0.  0.
    8880022    1    1    2    0    0  0.63577320197E+03 -0.11387434007E+04  0.16000903970E+04  0.20699335808E+04  0.15294330000E+03 0.  0.
<mgrwt>
<rscale>  0 0.14226013E+04</rscale>
<asrwt>0</asrwt>
<pdfrwt beam="1">  1        2 0.35174578E+00 0.14610798E+04</pdfrwt>
<pdfrwt beam="2">  1       -2 0.21805951E+00 0.14610798E+04</pdfrwt>
<totfact> 0.44220189E-01</totfact>
</mgrwt>
</event>
<event>
 4    5  0.1112901E-007  0.6736999E+03  0.7818608E-02  0.1013139E+00
          2   -1    0    0  501    0  0.00000000000E+00  0.00000000000E+00  0.23177145312E+04  0.23177145312E+04  0.25500000000E-02 0. -1.
         -2   -1    0    0    0  501 -0.00000000000E+00 -0.00000000000E+00 -0.77592254618E+03  0.77592254619E+03  0.25500000000E-02 0.  1.
    8880023    1    1    2    0    0 -0.85181501524E+02  0.11316108388E+03 -0.62373219014E+03  0.91810313711E+03  0.65864270000E+03 0.  1.
    8880022    1    1    2    0    0  0.85181501524E+02 -0.11316108388E+03  0.21655241752E+04  0.21755339403E+04  0.15294330000E+03 0.  0.
<mgrwt>
<rscale>  0 0.50246092E+03</rscale>
<asrwt>0</asrwt>
<pdfrwt beam="1">  1        2 0.35657147E+00 0.67369988E+03</pdfrwt>
<pdfrwt beam="2">  1       -2 0.11937270E+00 0.67369988E+03</pdfrwt>
<totfact> 0.25290610E+00</totfact>
</mgrwt>
</event>
<event>
 4    5  0.1112901E-007  0.7383195E+03  0.7818608E-02  0.9864869E-01
         -2   -1    0    0    0  501 -0.00000000000E+00  0.00000000000E+00  0.13111893721E+03  0.13111893724E+03  0.25500000000E-02 0.  1.
          2   -1    0    0  501    0  0.00000000000E+00 -0.00000000000E+00 -0.32605390697E+04  0.32605390697E+04  0.25500000000E-02 0. -1.
    8880023    1    1    2    0    0 -0.16024194042E+02  0.33323975278E+03 -0.10713349699E+04  0.13011050425E+04  0.65864270000E+03 0.  0.
    8880022    1    1    2    0    0  0.16024194042E+02 -0.33323975278E+03 -0.20580851626E+04  0.20905529645E+04  0.15294330000E+03 0.  0.
<mgrwt>
<rscale>  0 0.61994487E+03</rscale>
<asrwt>0</asrwt>
<pdfrwt beam="1">  1        2 0.50162134E+00 0.73831952E+03</pdfrwt>
<pdfrwt beam="2">  1       -2 0.20172147E-01 0.73831952E+03</pdfrwt>
<totfact> 0.26581091E+01</totfact>
</mgrwt>
</event>
<event>
 4    5  0.1112901E-007  0.1379450E+04  0.7818608E-02  0.8999817E-01
          2   -1    0    0  501    0  0.00000000000E+00  0.00000000000E+00  0.28839880663E+04  0.28839880663E+04  0.25500000000E-02 0. -1.
         -2   -1    0    0    0  501 -0.00000000000E+00 -0.00000000000E+00 -0.96832294069E+03  0.96832294069E+03  0.25500000000E-02 0.  1.
    8880023    1    1    2    0    0  0.98547166719E+03  0.70563259663E+03 -0.21515035418E+03  0.13961273758E+04  0.65864270000E+03 0.  1.
    8880022    1    1    2    0    0 -0.98547166719E+03 -0.70563259663E+03  0.21308154798E+04  0.24561836312E+04  0.15294330000E+03 0.  0.
<mgrwt>
<rscale>  0 0.13381888E+04</rscale>
<asrwt>0</asrwt>
<pdfrwt beam="1">  1        2 0.44369047E+00 0.13794499E+04</pdfrwt>
<pdfrwt beam="2">  1       -2 0.14897276E+00 0.13794499E+04</pdfrwt>
<totfact> 0.60224930E-01</totfact>
</mgrwt>
</event>
<event>
 4    5  0.1112901E-007  0.1132872E+04  0.7818608E-02  0.9225311E-01
         -2   -1    0    0    0  501 -0.00000000000E+00  0.00000000000E+00  0.15883279669E+04  0.15883279669E+04  0.25500000000E-02 0.  1.
          2   -1    0    0  501    0  0.00000000000E+00 -0.00000000000E+00 -0.85438094047E+03  0.85438094047E+03  0.25500000000E-02 0. -1.
    8880023    1    1    2    0    0  0.90389889489E+03 -0.18042967709E+03  0.95601165845E+03  0.14823483322E+04  0.65864270000E+03 0.  1.
    8880022    1    1    2    0    0 -0.90389889489E+03  0.18042967709E+03 -0.22206463203E+03  0.96036057519E+03  0.15294330000E+03 0.  0.
<mgrwt>
<rscale>  0 0.10795955E+04</rscale>
<asrwt>0</asrwt>
<pdfrwt beam="1">  1        2 0.13144322E+00 0.11328717E+04</pdfrwt>
<pdfrwt beam="2">  1       -2 0.24435815E+00 0.11328717E+04</pdfrwt>
<totfact> 0.21549285E+00</totfact>
</mgrwt>
</event>
<event>
 4    5  0.1112901E-007  0.2537750E+04  0.7818608E-02  0.8396973E-01
         -2   -1    0    0    0  501 -0.00000000000E+00  0.00000000000E+00  0.15723728431E+04  0.15723728431E+04  0.25500000000E-02 0.  1.
          2   -1    0    0  501    0  0.00000000000E+00 -0.00000000000E+00 -0.39689891698E+04  0.39689891698E+04  0.25500000000E-02 0. -1.
    8880023    1    1    2    0    0 -0.10735888592E+04  0.22031281808E+04 -0.11222801286E+04  0.27748314747E+04  0.65864270000E+03 0.  0.
    8880022    1    1    2    0    0  0.10735888592E+04 -0.22031281808E+04 -0.12743361981E+04  0.27665305381E+04  0.15294330000E+03 0.  0.
<mgrwt>
<rscale>  0 0.25169476E+04</rscale>
<asrwt>0</asrwt>
<pdfrwt beam="1">  1        2 0.61061371E+00 0.25377504E+04</pdfrwt>
<pdfrwt beam="2">  1       -2 0.24190352E+00 0.25377504E+04</pdfrwt>
<totfact> 0.22035068E-02</totfact>
</mgrwt>
</event>
<event>
 4    5  0.1112901E-007  0.1199074E+04  0.7818608E-02  0.9158023E-01
         -2   -1    0    0    0  501 -0.00000000000E+00  0.00000000000E+00  0.81762310127E+03  0.81762310128E+03  0.25500000000E-02 0.  1.
          2   -1    0    0  501    0  0.00000000000E+00 -0.00000000000E+00 -0.22374750999E+04  0.22374750999E+04  0.25500000000E-02 0. -1.
    8880023    1    1    2    0    0  0.83868267174E+03 -0.54825115288E+03  0.12696107525E+03  0.12057766258E+04  0.65864270000E+03 0.  0.
    8880022    1    1    2    0    0 -0.83868267174E+03  0.54825115288E+03 -0.15468130739E+04  0.18493215753E+04  0.15294330000E+03 0.  0.
<mgrwt>
<rscale>  0 0.11497403E+04</rscale>
<asrwt>0</asrwt>
<pdfrwt beam="1">  1        2 0.34422694E+00 0.11990739E+04</pdfrwt>
<pdfrwt beam="2">  1       -2 0.12578817E+00 0.11990739E+04</pdfrwt>
<totfact> 0.22691696E+00</totfact>
</mgrwt>
</event>
<event>
 4    5  0.1112901E-007  0.1512796E+04  0.7818608E-02  0.8900652E-01
         -2   -1    0    0    0  501 -0.00000000000E+00  0.00000000000E+00  0.11204100382E+04  0.11204100382E+04  0.25500000000E-02 0.  1.
          2   -1    0    0  501    0  0.00000000000E+00 -0.00000000000E+00 -0.24291669373E+04  0.24291669373E+04  0.25500000000E-02 0. -1.
    8880023    1    1    2    0    0 -0.11535331620E+04 -0.72395028974E+03  0.18305730179E+03  0.15238316704E+04  0.65864270000E+03 0.  0.
    8880022    1    1    2    0    0  0.11535331620E+04  0.72395028974E+03 -0.14918142010E+04  0.20257453051E+04  0.15294330000E+03 0.  0.
<mgrwt>
<rscale>  0 0.14758805E+04</rscale>
<asrwt>0</asrwt>
<pdfrwt beam="1">  1        2 0.37371799E+00 0.15127964E+04</pdfrwt>
<pdfrwt beam="2">  1       -2 0.17237078E+00 0.15127964E+04</pdfrwt>
<totfact> 0.73771897E-01</totfact>
</mgrwt>
</event>
<event>
 4    5  0.1112901E-007  0.1662042E+04  0.7818608E-02  0.8802952E-01
         -2   -1    0    0    0  501 -0.00000000000E+00  0.00000000000E+00  0.15880973275E+04  0.15880973275E+04  0.25500000000E-02 0.  1.
          2   -1    0    0  501    0  0.00000000000E+00 -0.00000000000E+00 -0.20939024490E+04  0.20939024490E+04  0.25500000000E-02 0. -1.
    8880023    1    1    2    0    0 -0.14611630092E+04  0.43997358734E+03  0.62594347071E+03  0.17760038096E+04  0.65864270000E+03 0.  0.
    8880022    1    1    2    0    0  0.14611630092E+04 -0.43997358734E+03 -0.11317485922E+04  0.19059959669E+04  0.15294330000E+03 0.  0.
<mgrwt>
<rscale>  0 0.16289600E+04</rscale>
<asrwt>0</asrwt>
<pdfrwt beam="1">  1        2 0.32213884E+00 0.16620422E+04</pdfrwt>
<pdfrwt beam="2">  1       -2 0.24432266E+00 0.16620422E+04</pdfrwt>
<totfact> 0.38019774E-01</totfact>
</mgrwt>
</event>
<event>
 4    5  0.1112901E-007  0.1019489E+04  0.7818608E-02  0.9356493E-01
          2   -1    0    0  501    0  0.00000000000E+00  0.00000000000E+00  0.61875619431E+03  0.61875619431E+03  0.25500000000E-02 0. -1.
         -2   -1    0    0    0  501 -0.00000000000E+00 -0.00000000000E+00 -0.15837484157E+04  0.15837484157E+04  0.25500000000E-02 0.  1.
    8880023    1    1    2    0    0 -0.66543132164E+03  0.40342169449E+03 -0.97317277288E+03  0.14094053212E+04  0.65864270000E+03 0.  1.
    8880022    1    1    2    0    0  0.66543132164E+03 -0.40342169449E+03  0.81805514955E+01  0.79309928876E+03  0.15294330000E+03 0.  0.
<mgrwt>
<rscale>  0 0.95744331E+03</rscale>
<asrwt>0</asrwt>
<pdfrwt beam="1">  1        2 0.95193261E-01 0.10194891E+04</pdfrwt>
<pdfrwt beam="2">  1       -2 0.24365360E+00 0.10194891E+04</pdfrwt>
<totfact> 0.33460700E+00</totfact>
</mgrwt>
</event>
<event>
 4    5  0.1112901E-007  0.1533037E+04  0.7818608E-02  0.8886653E-01
         -2   -1    0    0    0  501 -0.00000000000E+00  0.00000000000E+00  0.18414277764E+04  0.18414277764E+04  0.25500000000E-02 0.  1.
          2   -1    0    0  501    0  0.00000000000E+00 -0.00000000000E+00 -0.15323927595E+04  0.15323927595E+04  0.25500000000E-02 0. -1.
    8880023    1    1    2    0    0  0.25273650085E+03 -0.13610720203E+04  0.98855968885E+03  0.18241308198E+04  0.65864270000E+03 0. -1.
    8880022    1    1    2    0    0 -0.25273650085E+03  0.13610720203E+04 -0.67952467194E+03  0.15496897160E+04  0.15294330000E+03 0.  0.
<mgrwt>
<rscale>  0 0.14966963E+04</rscale>
<asrwt>0</asrwt>
<pdfrwt beam="1">  1        2 0.23575273E+00 0.15330372E+04</pdfrwt>
<pdfrwt beam="2">  1       -2 0.28329658E+00 0.15330372E+04</pdfrwt>
<totfact> 0.45854250E-01</totfact>
</mgrwt>
</event>
<event>
 4    5  0.1112901E-007  0.1380679E+04  0.7818608E-02  0.8998843E-01
          2   -1    0    0  501    0  0.00000000000E+00  0.00000000000E+00  0.60337784215E+03  0.60337784215E+03  0.25500000000E-02 0. -1.
         -2   -1    0    0    0  501 -0.00000000000E+00 -0.00000000000E+00 -0.31671270310E+04  0.31671270310E+04  0.25500000000E-02 0.  1.
    8880023    1    1    2    0    0 -0.82697222416E+03 -0.88802120181E+03 -0.19836709269E+04  0.24168626910E+04  0.65864270000E+03 0.  0.
    8880022    1    1    2    0    0  0.82697222416E+03  0.88802120181E+03 -0.58007826191E+03  0.13536421822E+04  0.15294330000E+03 0.  0.
<mgrwt>
<rscale>  0 0.13394633E+04</rscale>
<asrwt>0</asrwt>
<pdfrwt beam="1">  1        2 0.92827362E-01 0.13806792E+04</pdfrwt>
<pdfrwt beam="2">  1       -2 0.48725030E+00 0.13806792E+04</pdfrwt>
<totfact> 0.94326306E-02</totfact>
</mgrwt>
</event>
<event>
 4    5  0.1112901E-007  0.7970397E+03  0.7818608E-02  0.9717234E-01
          2   -1    0    0  501    0  0.00000000000E+00  0.00000000000E+00  0.19788833918E+04  0.19788833918E+04  0.25500000000E-02 0. -1.
         -2   -1    0    0    0  501 -0.00000000000E+00 -0.00000000000E+00 -0.42697009162E+03  0.42697009163E+03  0.25500000000E-02 0.  1.
    8880023    1    1    2    0    0 -0.35350873337E+03 -0.27657481775E+03  0.14710852595E+02  0.79717543228E+03  0.65864270000E+03 0.  1.
    8880022    1    1    2    0    0  0.35350873337E+03  0.27657481775E+03  0.15372024475E+04  0.16086780511E+04  0.15294330000E+03 0.  0.
<mgrwt>
<rscale>  0 0.69999908E+03</rscale>
<asrwt>0</asrwt>
<pdfrwt beam="1">  1        2 0.30444359E+00 0.79703969E+03</pdfrwt>
<pdfrwt beam="2">  1       -2 0.65687707E-01 0.79703969E+03</pdfrwt>
<totfact> 0.15053470E+01</totfact>
</mgrwt>
</event>
<event>
 4    5  0.1112901E-007  0.1067370E+04  0.7818608E-02  0.9298286E-01
         -2   -1    0    0    0  501 -0.00000000000E+00  0.00000000000E+00  0.52511179937E+03  0.52511179937E+03  0.25500000000E-02 0.  1.
          2   -1    0    0  501    0  0.00000000000E+00 -0.00000000000E+00 -0.30455220381E+04  0.30455220381E+04  0.25500000000E-02 0. -1.
    8880023    1    1    2    0    0 -0.52385016053E+03  0.65654423795E+03 -0.18397855511E+03  0.10831101708E+04  0.65864270000E+03 0.  1.
    8880022    1    1    2    0    0  0.52385016053E+03 -0.65654423795E+03 -0.23364316836E+04  0.24875236667E+04  0.15294330000E+03 0.  0.
<mgrwt>
<rscale>  0 0.10094085E+04</rscale>
<asrwt>0</asrwt>
<pdfrwt beam="1">  1        2 0.46854184E+00 0.10673704E+04</pdfrwt>
<pdfrwt beam="2">  1       -2 0.80786432E-01 0.10673704E+04</pdfrwt>
<totfact> 0.22304459E+00</totfact>
</mgrwt>
</event>
<event>
 4    5  0.1112901E-007  0.8416829E+03  0.7818608E-02  0.9627015E-01
          2   -1    0    0  501    0  0.00000000000E+00  0.00000000000E+00  0.24820546531E+04  0.24820546531E+04  0.25500000000E-02 0. -1.
         -2   -1    0    0    0  501 -0.00000000000E+00 -0.00000000000E+00 -0.26826585176E+03  0.26826585177E+03  0.25500000000E-02 0.  1.
    8880023    1    1    2    0    0 -0.42270788168E+03 -0.30973843375E+03  0.56557368812E+03  0.10140530822E+04  0.65864270000E+03 0.  1.
    8880022    1    1    2    0    0  0.42270788168E+03  0.30973843375E+03  0.16482151132E+04  0.17362674227E+04  0.15294330000E+03 0.  0.
<mgrwt>
<rscale>  0 0.75533654E+03</rscale>
<asrwt>0</asrwt>
<pdfrwt beam="1">  1        2 0.38185455E+00 0.84168287E+03</pdfrwt>
<pdfrwt beam="2">  1       -2 0.41271670E-01 0.84168287E+03</pdfrwt>
<totfact> 0.20454400E+01</totfact>
</mgrwt>
</event>
<event>
 4    5  0.1112901E-007  0.1151808E+04  0.7818608E-02  0.9205455E-01
          2   -1    0    0  501    0  0.00000000000E+00  0.00000000000E+00  0.17333241814E+04  0.17333241814E+04  0.25500000000E-02 0. -1.
         -2   -1    0    0    0  501 -0.00000000000E+00 -0.00000000000E+00 -0.10155803589E+04  0.10155803589E+04  0.25500000000E-02 0.  1.
    8880023    1    1    2    0    0  0.81243579305E+03  0.48249200618E+03 -0.45209882765E+03  0.12373576727E+04  0.65864270000E+03 0.  0.
    8880022    1    1    2    0    0 -0.81243579305E+03 -0.48249200618E+03  0.11698426502E+04  0.15115468676E+04  0.15294330000E+03 0.  0.
<mgrwt>
<rscale>  0 0.10997304E+04</rscale>
<asrwt>0</asrwt>
<pdfrwt beam="1">  1        2 0.26666526E+00 0.11518076E+04</pdfrwt>
<pdfrwt beam="2">  1       -2 0.15624313E+00 0.11518076E+04</pdfrwt>
<totfact> 0.24662488E+00</totfact>
</mgrwt>
</event>
<event>
 4    5  0.1112901E-007  0.7249117E+03  0.7818608E-02  0.9906304E-01
          2   -1    0    0  501    0  0.00000000000E+00  0.00000000000E+00  0.31721971571E+04  0.31721971571E+04  0.25500000000E-02 0. -1.
         -2   -1    0    0    0  501 -0.00000000000E+00 -0.00000000000E+00 -0.22758054569E+03  0.22758054571E+03  0.25500000000E-02 0.  1.
    8880023    1    1    2    0    0 -0.18787338080E+03 -0.23746655141E+03  0.39082550525E+03  0.82355421927E+03  0.65864270000E+03 0.  1.
    8880022    1    1    2    0    0  0.18787338080E+03  0.23746655141E+03  0.25537911062E+04  0.25762234836E+04  0.15294330000E+03 0.  0.
<mgrwt>
<rscale>  0 0.59956748E+03</rscale>
<asrwt>0</asrwt>
<pdfrwt beam="1">  1        2 0.48803032E+00 0.72491170E+03</pdfrwt>
<pdfrwt beam="2">  1       -2 0.35012393E-01 0.72491170E+03</pdfrwt>
<totfact> 0.11104093E+01</totfact>
</mgrwt>
</event>
<event>
 4    5  0.1112901E-007  0.6912666E+03  0.7818608E-02  0.1003556E+00
          2   -1    0    0  501    0  0.00000000000E+00  0.00000000000E+00  0.26232008000E+04  0.26232008000E+04  0.25500000000E-02 0. -1.
         -2   -1    0    0    0  501 -0.00000000000E+00 -0.00000000000E+00 -0.37717564007E+03  0.37717564008E+03  0.25500000000E-02 0.  1.
    8880023    1    1    2    0    0  0.13041379560E+03 -0.16441252777E+03 -0.46841849247E+02  0.69285178969E+03  0.65864270000E+03 0.  1.
    8880022    1    1    2    0    0 -0.13041379560E+03  0.16441252777E+03  0.22928670092E+04  0.23075246504E+04  0.15294330000E+03 0.  0.
<mgrwt>
<rscale>  0 0.54117973E+03</rscale>
<asrwt>0</asrwt>
<pdfrwt beam="1">  1        2 0.40356936E+00 0.69126655E+03</pdfrwt>
<pdfrwt beam="2">  1       -2 0.58027021E-01 0.69126655E+03</pdfrwt>
<totfact> 0.87182377E+00</totfact>
</mgrwt>
</event>
<event>
 4    5  0.1112901E-007  0.7958331E+03  0.7818608E-02  0.9719879E-01
         -2   -1    0    0    0  501 -0.00000000000E+00  0.00000000000E+00  0.48841320449E+03  0.48841320450E+03  0.25500000000E-02 0.  1.
          2   -1    0    0  501    0  0.00000000000E+00 -0.00000000000E+00 -0.20854238294E+04  0.20854238294E+04  0.25500000000E-02 0. -1.
    8880023    1    1    2    0    0  0.28815976589E+03 -0.34132681669E+03  0.10939264858E+03  0.80331625422E+03  0.65864270000E+03 0.  1.
    8880022    1    1    2    0    0 -0.28815976589E+03  0.34132681669E+03 -0.17064032734E+04  0.17705207796E+04  0.15294330000E+03 0.  0.
<mgrwt>
<rscale>  0 0.69845424E+03</rscale>
<asrwt>0</asrwt>
<pdfrwt beam="1">  1        2 0.32083443E+00 0.79583306E+03</pdfrwt>
<pdfrwt beam="2">  1       -2 0.75140494E-01 0.79583306E+03</pdfrwt>
<totfact> 0.98104756E+00</totfact>
</mgrwt>
</event>
<event>
 4    5  0.1112901E-007  0.1825579E+04  0.7818608E-02  0.8708518E-01
         -2   -1    0    0    0  501 -0.00000000000E+00  0.00000000000E+00  0.16109720724E+04  0.16109720724E+04  0.25500000000E-02 0.  1.
          2   -1    0    0  501    0  0.00000000000E+00 -0.00000000000E+00 -0.23801667444E+04  0.23801667444E+04  0.25500000000E-02 0. -1.
    8880023    1    1    2    0    0 -0.14175317880E+04 -0.94314948145E+03  0.46358251366E+03  0.18835196488E+04  0.65864270000E+03 0.  0.
    8880022    1    1    2    0    0  0.14175317880E+04  0.94314948145E+03 -0.12327771857E+04  0.21076191679E+04  0.15294330000E+03 0.  0.
<mgrwt>
<rscale>  0 0.17958347E+04</rscale>
<asrwt>0</asrwt>
<pdfrwt beam="1">  1        2 0.36617950E+00 0.18255787E+04</pdfrwt>
<pdfrwt beam="2">  1       -2 0.24784186E+00 0.18255787E+04</pdfrwt>
<totfact> 0.24482322E-01</totfact>
</mgrwt>
</event>
<event>
 4    5  0.1112901E-007  0.6971003E+03  0.7818608E-02  0.1000945E+00
         -2   -1    0    0    0  501 -0.00000000000E+00  0.00000000000E+00  0.22072684561E+03  0.22072684562E+03  0.25500000000E-02 0.  1.
          2   -1    0    0  501    0  0.00000000000E+00 -0.00000000000E+00 -0.18262289865E+04  0.18262289865E+04  0.25500000000E-02 0. -1.
    8880023    1    1    2    0    0 -0.18746812888E+03  0.13036243496E+03 -0.38592825142E+03  0.79679952642E+03  0.65864270000E+03 0.  1.
    8880022    1    1    2    0    0  0.18746812888E+03 -0.13036243496E+03 -0.12195738895E+04  0.12501563057E+04  0.15294330000E+03 0.  0.
<mgrwt>
<rscale>  0 0.55237833E+03</rscale>
<asrwt>0</asrwt>
<pdfrwt beam="1">  1        2 0.28095830E+00 0.69710033E+03</pdfrwt>
<pdfrwt beam="2">  1       -2 0.33957978E-01 0.69710033E+03</pdfrwt>
<totfact> 0.69825139E+01</totfact>
</mgrwt>
</event>
<event>
 4    5  0.1112901E-007  0.6909638E+03  0.7818608E-02  0.1003698E+00
         -2   -1    0    0    0  501 -0.00000000000E+00  0.00000000000E+00  0.16161392989E+03  0.16161392991E+03  0.25500000000E-02 0.  1.
          2   -1    0    0  501    0  0.00000000000E+00 -0.00000000000E+00 -0.20186025067E+04  0.20186025067E+04  0.25500000000E-02 0. -1.
    8880023    1    1    2    0    0  0.83241247662E+02 -0.19155053101E+03 -0.65989834175E+03  0.95545629882E+03  0.65864270000E+03 0.  1.
    8880022    1    1    2    0    0 -0.83241247662E+02  0.19155053101E+03 -0.11970902351E+04  0.12247601378E+04  0.15294330000E+03 0.  0.
<mgrwt>
<rscale>  0 0.54058105E+03</rscale>
<asrwt>0</asrwt>
<pdfrwt beam="1">  1        2 0.31055421E+00 0.69096376E+03</pdfrwt>
<pdfrwt beam="2">  1       -2 0.24863683E-01 0.69096376E+03</pdfrwt>
<totfact> 0.97605201E+01</totfact>
</mgrwt>
</event>
<event>
 4    5  0.1112901E-007  0.1073095E+04  0.7818608E-02  0.9291619E-01
         -2   -1    0    0    0  501 -0.00000000000E+00  0.00000000000E+00  0.67397046046E+03  0.67397046046E+03  0.25500000000E-02 0.  1.
          2   -1    0    0  501    0  0.00000000000E+00 -0.00000000000E+00 -0.17435593042E+04  0.17435593042E+04  0.25500000000E-02 0. -1.
    8880023    1    1    2    0    0 -0.58988583945E+03  0.60807765743E+03 -0.37794538877E+02  0.10737608554E+04  0.65864270000E+03 0.  0.
    8880022    1    1    2    0    0  0.58988583945E+03 -0.60807765743E+03 -0.10317943048E+04  0.13437689093E+04  0.15294330000E+03 0.  0.
<mgrwt>
<rscale>  0 0.10155809E+04</rscale>
<asrwt>0</asrwt>
<pdfrwt beam="1">  1        2 0.26823989E+00 0.10730955E+04</pdfrwt>
<pdfrwt beam="2">  1       -2 0.10368776E+00 0.10730955E+04</pdfrwt>
<totfact> 0.69524656E+00</totfact>
</mgrwt>
</event>
<event>
 4    5  0.1112901E-007  0.9670748E+03  0.7818608E-02  0.9425961E-01
          2   -1    0    0  501    0  0.00000000000E+00  0.00000000000E+00  0.23475696069E+04  0.23475696069E+04  0.25500000000E-02 0. -1.
         -2   -1    0    0    0  501 -0.00000000000E+00 -0.00000000000E+00 -0.37067870379E+03  0.37067870380E+03  0.25500000000E-02 0.  1.
    8880023    1    1    2    0    0  0.53401012983E+03 -0.46503394717E+03  0.16735254851E+04  0.19328531104E+04  0.65864270000E+03 0.  0.
    8880022    1    1    2    0    0 -0.53401012983E+03  0.46503394717E+03  0.30336541797E+03  0.78539520028E+03  0.15294330000E+03 0.  0.
<mgrwt>
<rscale>  0 0.89969607E+03</rscale>
<asrwt>0</asrwt>
<pdfrwt beam="1">  1        2 0.36116456E+00 0.96707476E+03</pdfrwt>
<pdfrwt beam="2">  1       -2 0.57027492E-01 0.96707476E+03</pdfrwt>
<totfact> 0.12439195E+01</totfact>
</mgrwt>
</event>
<event>
 4    5  0.1112901E-007  0.6915094E+03  0.7818608E-02  0.1003443E+00
         -2   -1    0    0    0  501 -0.00000000000E+00  0.00000000000E+00  0.20727383516E+04  0.20727383516E+04  0.25500000000E-02 0.  1.
          2   -1    0    0  501    0  0.00000000000E+00 -0.00000000000E+00 -0.60372484768E+03  0.60372484769E+03  0.25500000000E-02 0. -1.
    8880023    1    1    2    0    0 -0.15788303735E+03 -0.13945594916E+03  0.19831090873E+04  0.21002159112E+04  0.65864270000E+03 0.  1.
    8880022    1    1    2    0    0  0.15788303735E+03  0.13945594916E+03 -0.51409558335E+03  0.57624728813E+03  0.15294330000E+03 0.  0.
<mgrwt>
<rscale>  0 0.54165851E+03</rscale>
<asrwt>0</asrwt>
<pdfrwt beam="1">  1        2 0.92880746E-01 0.69150938E+03</pdfrwt>
<pdfrwt beam="2">  1       -2 0.31888282E+00 0.69150938E+03</pdfrwt>
<totfact> 0.12674189E+00</totfact>
</mgrwt>
</event>
<event>
 4    5  0.1112901E-007  0.1819587E+04  0.7818608E-02  0.8711778E-01
          2   -1    0    0  501    0  0.00000000000E+00  0.00000000000E+00  0.18713249604E+04  0.18713249604E+04  0.25500000000E-02 0. -1.
         -2   -1    0    0    0  501 -0.00000000000E+00 -0.00000000000E+00 -0.20346046018E+04  0.20346046018E+04  0.25500000000E-02 0.  1.
    8880023    1    1    2    0    0  0.14308928756E+04  0.91084093413E+03 -0.92391021142E+03  0.20407121095E+04  0.65864270000E+03 0.  0.
    8880022    1    1    2    0    0 -0.14308928756E+04 -0.91084093413E+03  0.76063057005E+03  0.18652174527E+04  0.15294330000E+03 0.  0.
<mgrwt>
<rscale>  0 0.17897330E+04</rscale>
<asrwt>0</asrwt>
<pdfrwt beam="1">  1        2 0.28789615E+00 0.18195867E+04</pdfrwt>
<pdfrwt beam="2">  1       -2 0.31301609E+00 0.18195867E+04</pdfrwt>
<totfact> 0.18888862E-01</totfact>
</mgrwt>
</event>
<event>
 4    5  0.1112901E-007  0.7040044E+03  0.7818608E-02  0.9980978E-01
         -2   -1    0    0    0  501 -0.00000000000E+00  0.00000000000E+00  0.14365406327E+04  0.14365406327E+04  0.25500000000E-02 0.  1.
          2   -1    0    0  501    0  0.00000000000E+00 -0.00000000000E+00 -0.13532500632E+04  0.13532500632E+04  0.25500000000E-02 0. -1.
    8880023    1    1    2    0    0 -0.93461831318E+02  0.23038413313E+03  0.13324399994E+04  0.15069898875E+04  0.65864270000E+03 0.  1.
    8880022    1    1    2    0    0  0.93461831318E+02 -0.23038413313E+03 -0.12491494300E+04  0.12828008084E+04  0.15294330000E+03 0.  0.
<mgrwt>
<rscale>  0 0.56492237E+03</rscale>
<asrwt>0</asrwt>
<pdfrwt beam="1">  1        2 0.20819232E+00 0.70400438E+03</pdfrwt>
<pdfrwt beam="2">  1       -2 0.22100625E+00 0.70400438E+03</pdfrwt>
<totfact> 0.15626871E+00</totfact>
</mgrwt>
</event>
<event>
 4    5  0.1112901E-007  0.1144871E+04  0.7818608E-02  0.9212669E-01
         -2   -1    0    0    0  501 -0.00000000000E+00  0.00000000000E+00  0.10065496299E+04  0.10065496299E+04  0.25500000000E-02 0.  1.
          2   -1    0    0  501    0  0.00000000000E+00 -0.00000000000E+00 -0.38246095212E+04  0.38246095212E+04  0.25500000000E-02 0. -1.
    8880023    1    1    2    0    0  0.93529436853E+03 -0.46289360526E+02  0.59388258197E+03  0.12897383410E+04  0.65864270000E+03 0.  0.
    8880022    1    1    2    0    0 -0.93529436853E+03  0.46289360526E+02 -0.34119424733E+04  0.35414208101E+04  0.15294330000E+03 0.  0.
<mgrwt>
<rscale>  0 0.10923612E+04</rscale>
<asrwt>0</asrwt>
<pdfrwt beam="1">  1        2 0.58840146E+00 0.11448705E+04</pdfrwt>
<pdfrwt beam="2">  1       -2 0.15485379E+00 0.11448705E+04</pdfrwt>
<totfact> 0.13104442E-01</totfact>
</mgrwt>
</event>
<event>
 4    5  0.1112901E-007  0.7337255E+03  0.7818608E-02  0.9878616E-01
         -2   -1    0    0    0  501 -0.00000000000E+00  0.00000000000E+00  0.88443319170E+03  0.88443319170E+03  0.25500000000E-02 0.  1.
          2   -1    0    0  501    0  0.00000000000E+00 -0.00000000000E+00 -0.12112191606E+04  0.12112191606E+04  0.25500000000E-02 0. -1.
    8880023    1    1    2    0    0  0.21949472233E+03  0.23741299159E+03  0.69649454651E+03  0.10116608727E+04  0.65864270000E+03 0.  0.
    8880022    1    1    2    0    0 -0.21949472233E+03 -0.23741299159E+03 -0.10232805154E+04  0.10839914796E+04  0.15294330000E+03 0.  0.
<mgrwt>
<rscale>  0 0.61308920E+03</rscale>
<asrwt>0</asrwt>
<pdfrwt beam="1">  1        2 0.18634141E+00 0.73372547E+03</pdfrwt>
<pdfrwt beam="2">  1       -2 0.13606664E+00 0.73372547E+03</pdfrwt>
<totfact> 0.73758832E+00</totfact>
</mgrwt>
</event>
<event>
 4    5  0.1112901E-007  0.6956820E+03  0.7818608E-02  0.1001561E+00
          2   -1    0    0  501    0  0.00000000000E+00  0.00000000000E+00  0.11869353518E+04  0.11869353518E+04  0.25500000000E-02 0. -1.
         -2   -1    0    0    0  501 -0.00000000000E+00 -0.00000000000E+00 -0.14300737936E+04  0.14300737936E+04  0.25500000000E-02 0.  1.
    8880023    1    1    2    0    0  0.41581648881E+02 -0.22007757372E+03 -0.13277711127E+04  0.14989828238E+04  0.65864270000E+03 0.  1.
    8880022    1    1    2    0    0 -0.41581648881E+02  0.22007757372E+03  0.10846326709E+04  0.11180263216E+04  0.15294330000E+03 0.  0.
<mgrwt>
<rscale>  0 0.54971103E+03</rscale>
<asrwt>0</asrwt>
<pdfrwt beam="1">  1        2 0.18260544E+00 0.69568195E+03</pdfrwt>
<pdfrwt beam="2">  1       -2 0.22001135E+00 0.69568195E+03</pdfrwt>
<totfact> 0.19825006E+00</totfact>
</mgrwt>
</event>
<event>
 4    5  0.1112901E-007  0.9229232E+03  0.7818608E-02  0.9490191E-01
          2   -1    0    0  501    0  0.00000000000E+00  0.00000000000E+00  0.19612721139E+04  0.19612721139E+04  0.25500000000E-02 0. -1.
         -2   -1    0    0    0  501 -0.00000000000E+00 -0.00000000000E+00 -0.79090616960E+03  0.79090616960E+03  0.25500000000E-02 0.  1.
    8880023    1    1    2    0    0 -0.61400042681E+03  0.20243650857E+03 -0.43090323057E+03  0.10185601919E+04  0.65864270000E+03 0.  1.
    8880022    1    1    2    0    0  0.61400042681E+03 -0.20243650857E+03  0.16012691749E+04  0.17336180916E+04  0.15294330000E+03 0.  0.
<mgrwt>
<rscale>  0 0.85010853E+03</rscale>
<asrwt>0</asrwt>
<pdfrwt beam="1">  1        2 0.30173417E+00 0.92292322E+03</pdfrwt>
<pdfrwt beam="2">  1       -2 0.12167787E+00 0.92292322E+03</pdfrwt>
<totfact> 0.36322898E+00</totfact>
</mgrwt>
</event>
<event>
 4    5  0.1112901E-007  0.1360853E+04  0.7818608E-02  0.9014714E-01
         -2   -1    0    0    0  501 -0.00000000000E+00  0.00000000000E+00  0.68343914182E+03  0.68343914182E+03  0.25500000000E-02 0.  1.
          2   -1    0    0  501    0  0.00000000000E+00 -0.00000000000E+00 -0.26115908255E+04  0.26115908255E+04  0.25500000000E-02 0. -1.
    8880023    1    1    2    0    0 -0.10606966865E+04  0.54132447254E+03 -0.55145424776E+03  0.14683397559E+04  0.65864270000E+03 0.  0.
    8880022    1    1    2    0    0  0.10606966865E+04 -0.54132447254E+03 -0.13766974359E+04  0.18266902113E+04  0.15294330000E+03 0.  0.
<mgrwt>
<rscale>  0 0.13188949E+04</rscale>
<asrwt>0</asrwt>
<pdfrwt beam="1">  1        2 0.40178320E+00 0.13608526E+04</pdfrwt>
<pdfrwt beam="2">  1       -2 0.10514448E+00 0.13608526E+04</pdfrwt>
<totfact> 0.21212388E+00</totfact>
</mgrwt>
</event>
<event>
 4    5  0.1112901E-007  0.1069890E+04  0.7818608E-02  0.9295344E-01
          2   -1    0    0  501    0  0.00000000000E+00  0.00000000000E+00  0.10124143577E+04  0.10124143577E+04  0.25500000000E-02 0. -1.
         -2   -1    0    0    0  501 -0.00000000000E+00 -0.00000000000E+00 -0.22192407451E+04  0.22192407451E+04  0.25500000000E-02 0.  1.
    8880023    1    1    2    0    0 -0.27479565234E+03  0.79708318515E+03 -0.18657339421E+04  0.21507272267E+04  0.65864270000E+03 0.  0.
    8880022    1    1    2    0    0  0.27479565234E+03 -0.79708318515E+03  0.65890755469E+03  0.10809278761E+04  0.15294330000E+03 0.  0.
<mgrwt>
<rscale>  0 0.10121258E+04</rscale>
<asrwt>0</asrwt>
<pdfrwt beam="1">  1        2 0.15575605E+00 0.10698899E+04</pdfrwt>
<pdfrwt beam="2">  1       -2 0.34142165E+00 0.10698899E+04</pdfrwt>
<totfact> 0.43543115E-01</totfact>
</mgrwt>
</event>
<event>
 4    5  0.1112901E-007  0.1097746E+04  0.7818608E-02  0.9263569E-01
         -2   -1    0    0    0  501 -0.00000000000E+00  0.00000000000E+00  0.48859707337E+03  0.48859707337E+03  0.25500000000E-02 0.  1.
          2   -1    0    0  501    0  0.00000000000E+00 -0.00000000000E+00 -0.24738165654E+04  0.24738165654E+04  0.25500000000E-02 0. -1.
    8880023    1    1    2    0    0 -0.53178566904E+03  0.69888562134E+03 -0.44844004021E+03  0.11858101810E+04  0.65864270000E+03 0.  0.
    8880022    1    1    2    0    0  0.53178566904E+03 -0.69888562134E+03 -0.15367794518E+04  0.17766034578E+04  0.15294330000E+03 0.  0.
<mgrwt>
<rscale>  0 0.10420704E+04</rscale>
<asrwt>0</asrwt>
<pdfrwt beam="1">  1        2 0.38058716E+00 0.10977465E+04</pdfrwt>
<pdfrwt beam="2">  1       -2 0.75168782E-01 0.10977465E+04</pdfrwt>
<totfact> 0.57165806E+00</totfact>
</mgrwt>
</event>
<event>
 4    5  0.1112901E-007  0.8410147E+03  0.7818608E-02  0.9628270E-01
          2   -1    0    0  501    0  0.00000000000E+00  0.00000000000E+00  0.18112621096E+04  0.18112621096E+04  0.25500000000E-02 0. -1.
         -2   -1    0    0    0  501 -0.00000000000E+00 -0.00000000000E+00 -0.85858188999E+03  0.85858189000E+03  0.25500000000E-02 0.  1.
    8880023    1    1    2    0    0 -0.51737814289E+03  0.76258882710E+02 -0.59423844486E+03  0.10297694381E+04  0.65864270000E+03 0.  1.
    8880022    1    1    2    0    0  0.51737814289E+03 -0.76258882710E+02  0.15469186645E+04  0.16400745616E+04  0.15294330000E+03 0.  0.
<mgrwt>
<rscale>  0 0.75453022E+03</rscale>
<asrwt>0</asrwt>
<pdfrwt beam="1">  1        2 0.27865571E+00 0.84101472E+03</pdfrwt>
<pdfrwt beam="2">  1       -2 0.13208952E+00 0.84101472E+03</pdfrwt>
<totfact> 0.36099235E+00</totfact>
</mgrwt>
</event>
<event>
 4    5  0.1112901E-007  0.1045958E+04  0.7818608E-02  0.9323756E-01
         -2   -1    0    0    0  501 -0.00000000000E+00  0.00000000000E+00  0.46255833483E+03  0.46255833483E+03  0.25500000000E-02 0.  1.
          2   -1    0    0  501    0  0.00000000000E+00 -0.00000000000E+00 -0.32632965687E+04  0.32632965687E+04  0.25500000000E-02 0. -1.
    8880023    1    1    2    0    0  0.79667249125E+03  0.15978329727E+03 -0.29430893867E+03  0.10865752243E+04  0.65864270000E+03 0.  1.
    8880022    1    1    2    0    0 -0.79667249125E+03 -0.15978329727E+03 -0.25064292952E+04  0.26392796792E+04  0.15294330000E+03 0.  0.
<mgrwt>
<rscale>  0 0.98624920E+03</rscale>
<asrwt>0</asrwt>
<pdfrwt beam="1">  1        2 0.50204561E+00 0.10459579E+04</pdfrwt>
<pdfrwt beam="2">  1       -2 0.71162823E-01 0.10459579E+04</pdfrwt>
<totfact> 0.21581093E+00</totfact>
</mgrwt>
</event>
<event>
 4    5  0.1112901E-007  0.1037349E+04  0.7818608E-02  0.9334246E-01
         -2   -1    0    0    0  501 -0.00000000000E+00  0.00000000000E+00  0.62409511430E+03  0.62409511430E+03  0.25500000000E-02 0.  1.
          2   -1    0    0  501    0  0.00000000000E+00 -0.00000000000E+00 -0.15206132166E+04  0.15206132166E+04  0.25500000000E-02 0. -1.
    8880023    1    1    2    0    0  0.36407038302E+03  0.71395807828E+03 -0.16792846581E+03  0.10508537278E+04  0.65864270000E+03 0.  0.
    8880022    1    1    2    0    0 -0.36407038302E+03 -0.71395807828E+03 -0.72858963653E+03  0.10938546031E+04  0.15294330000E+03 0.  0.
<mgrwt>
<rscale>  0 0.97690324E+03</rscale>
<asrwt>0</asrwt>
<pdfrwt beam="1">  1        2 0.23394049E+00 0.10373493E+04</pdfrwt>
<pdfrwt beam="2">  1       -2 0.96014634E-01 0.10373493E+04</pdfrwt>
<totfact> 0.11148391E+01</totfact>
</mgrwt>
</event>
<event>
 4    5  0.1112901E-007  0.8424481E+03  0.7818608E-02  0.9625581E-01
          2   -1    0    0  501    0  0.00000000000E+00  0.00000000000E+00  0.11912145208E+04  0.11912145208E+04  0.25500000000E-02 0. -1.
         -2   -1    0    0    0  501 -0.00000000000E+00 -0.00000000000E+00 -0.15836314690E+04  0.15836314690E+04  0.25500000000E-02 0.  1.
    8880023    1    1    2    0    0 -0.22781164190E+03  0.47329750369E+03 -0.13967676328E+04  0.16311586979E+04  0.65864270000E+03 0.  0.
    8880022    1    1    2    0    0  0.22781164190E+03 -0.47329750369E+03  0.10043506846E+04  0.11436872920E+04  0.15294330000E+03 0.  0.
<mgrwt>
<rscale>  0 0.75625939E+03</rscale>
<asrwt>0</asrwt>
<pdfrwt beam="1">  1        2 0.18326377E+00 0.84244815E+03</pdfrwt>
<pdfrwt beam="2">  1       -2 0.24363561E+00 0.84244815E+03</pdfrwt>
<totfact> 0.13744451E+00</totfact>
</mgrwt>
</event>
<event>
 4    5  0.1361568E-007  0.1176775E+04  0.7818608E-02  0.9180036E-01
         -2   -1    0    0    0  501 -0.00000000000E+00  0.00000000000E+00  0.12640550965E+04  0.12640550965E+04  0.25500000000E-02 0.  1.
          2   -1    0    0  501    0  0.00000000000E+00 -0.00000000000E+00 -0.33801097995E+04  0.33801097995E+04  0.25500000000E-02 0. -1.
    8880023    1    1    2    0    0  0.97420565641E+03  0.43720163866E+02  0.89306127526E+03  0.14772801905E+04  0.65864270000E+03 0.  0.
    8880022    1    1    2    0    0 -0.97420565641E+03 -0.43720163866E+02 -0.30091159783E+04  0.31668847054E+04  0.15294330000E+03 0.  0.
<mgrwt>
<rscale>  0 0.11261882E+04</rscale>
<asrwt>0</asrwt>
<pdfrwt beam="1">  1        2 0.52001689E+00 0.11767745E+04</pdfrwt>
<pdfrwt beam="2">  1       -2 0.19447002E+00 0.11767745E+04</pdfrwt>
<totfact> 0.14148740E-01</totfact>
</mgrwt>
</event>
<event>
 4    5  0.1112901E-007  0.9627757E+03  0.7818608E-02  0.9431966E-01
          2   -1    0    0  501    0  0.00000000000E+00  0.00000000000E+00  0.87873659205E+03  0.87873659206E+03  0.25500000000E-02 0. -1.
         -2   -1    0    0    0  501 -0.00000000000E+00 -0.00000000000E+00 -0.88097681846E+03  0.88097681847E+03  0.25500000000E-02 0.  1.
    8880023    1    1    2    0    0  0.93563489608E+02 -0.69596893996E+03 -0.25820819945E+03  0.99679916357E+03  0.65864270000E+03 0.  0.
    8880022    1    1    2    0    0 -0.93563489608E+02  0.69596893996E+03  0.25596797304E+03  0.76291424695E+03  0.15294330000E+03 0.  0.
<mgrwt>
<rscale>  0 0.89491047E+03</rscale>
<asrwt>0</asrwt>
<pdfrwt beam="1">  1        2 0.13519024E+00 0.96277573E+03</pdfrwt>
<pdfrwt beam="2">  1       -2 0.13553490E+00 0.96277573E+03</pdfrwt>
<totfact> 0.11783408E+01</totfact>
</mgrwt>
</event>
<event>
 4    5  0.1112901E-007  0.1329823E+04  0.7818608E-02  0.9040225E-01
         -2   -1    0    0    0  501 -0.00000000000E+00  0.00000000000E+00  0.26077912032E+04  0.26077912032E+04  0.25500000000E-02 0.  1.
          2   -1    0    0  501    0  0.00000000000E+00 -0.00000000000E+00 -0.12659914887E+04  0.12659914887E+04  0.25500000000E-02 0. -1.
    8880023    1    1    2    0    0 -0.11476741010E+04 -0.13214546043E+03  0.20984590782E+04  0.24843427650E+04  0.65864270000E+03 0.  0.
    8880022    1    1    2    0    0  0.11476741010E+04  0.13214546043E+03 -0.75665936361E+03  0.13894399269E+04  0.15294330000E+03 0.  0.
<mgrwt>
<rscale>  0 0.12866433E+04</rscale>
<asrwt>0</asrwt>
<pdfrwt beam="1">  1        2 0.19476792E+00 0.13298227E+04</pdfrwt>
<pdfrwt beam="2">  1       -2 0.40119865E+00 0.13298227E+04</pdfrwt>
<totfact> 0.12187859E-01</totfact>
</mgrwt>
</event>
<event>
 4    5  0.1112901E-007  0.7786961E+03  0.7818608E-02  0.9758909E-01
         -2   -1    0    0    0  501 -0.00000000000E+00  0.00000000000E+00  0.32365702132E+03  0.32365702133E+03  0.25500000000E-02 0.  1.
          2   -1    0    0  501    0  0.00000000000E+00 -0.00000000000E+00 -0.19846598398E+04  0.19846598398E+04  0.25500000000E-02 0. -1.
    8880023    1    1    2    0    0  0.35127285585E+03  0.22173131460E+03 -0.23229709954E+03  0.81260663537E+03  0.65864270000E+03 0.  1.
    8880022    1    1    2    0    0 -0.35127285585E+03 -0.22173131460E+03 -0.14287057189E+04  0.14957102257E+04  0.15294330000E+03 0.  0.
<mgrwt>
<rscale>  0 0.67615130E+03</rscale>
<asrwt>0</asrwt>
<pdfrwt beam="1">  1        2 0.30533228E+00 0.77869609E+03</pdfrwt>
<pdfrwt beam="2">  1       -2 0.49793389E-01 0.77869609E+03</pdfrwt>
<totfact> 0.26754967E+01</totfact>
</mgrwt>
</event>
<event>
 4    5  0.1112901E-007  0.1034898E+04  0.7818608E-02  0.9337260E-01
         -2   -1    0    0    0  501 -0.00000000000E+00  0.00000000000E+00  0.18480099113E+04  0.18480099113E+04  0.25500000000E-02 0.  1.
          2   -1    0    0  501    0  0.00000000000E+00 -0.00000000000E+00 -0.91344303484E+03  0.91344303485E+03  0.25500000000E-02 0. -1.
    8880023    1    1    2    0    0 -0.31006511151E+03  0.73557015204E+03  0.14629763544E+04  0.17920139067E+04  0.65864270000E+03 0.  0.
    8880022    1    1    2    0    0  0.31006511151E+03 -0.73557015204E+03 -0.52840947791E+03  0.96943903950E+03  0.15294330000E+03 0.  0.
<mgrwt>
<rscale>  0 0.97423815E+03</rscale>
<asrwt>0</asrwt>
<pdfrwt beam="1">  1        2 0.14052970E+00 0.10348981E+04</pdfrwt>
<pdfrwt beam="2">  1       -2 0.28430921E+00 0.10348981E+04</pdfrwt>
<totfact> 0.11349270E+00</totfact>
</mgrwt>
</event>
<event>
 4    5  0.1112901E-007  0.1201860E+04  0.7818608E-02  0.9155316E-01
         -2   -1    0    0    0  501 -0.00000000000E+00  0.00000000000E+00  0.10611734665E+04  0.10611734665E+04  0.25500000000E-02 0.  1.
          2   -1    0    0  501    0  0.00000000000E+00 -0.00000000000E+00 -0.32219087183E+04  0.32219087183E+04  0.25500000000E-02 0. -1.
    8880023    1    1    2    0    0  0.35306080885E+03 -0.94127898773E+03  0.59835218559E+03  0.13425697791E+04  0.65864270000E+03 0.  0.
    8880022    1    1    2    0    0 -0.35306080885E+03  0.94127898773E+03 -0.27590874375E+04  0.29405124057E+04  0.15294330000E+03 0.  0.
<mgrwt>
<rscale>  0 0.11526785E+04</rscale>
<asrwt>0</asrwt>
<pdfrwt beam="1">  1        2 0.49567826E+00 0.12018603E+04</pdfrwt>
<pdfrwt beam="2">  1       -2 0.16325746E+00 0.12018603E+04</pdfrwt>
<totfact> 0.29541588E-01</totfact>
</mgrwt>
</event>
<event>
 4    5  0.1112901E-007  0.8162411E+03  0.7818608E-02  0.9676721E-01
         -2   -1    0    0    0  501 -0.00000000000E+00  0.00000000000E+00  0.69411606967E+03  0.69411606968E+03  0.25500000000E-02 0.  1.
          2   -1    0    0  501    0  0.00000000000E+00 -0.00000000000E+00 -0.11324788489E+04  0.11324788489E+04  0.25500000000E-02 0. -1.
    8880023    1    1    2    0    0 -0.47695881543E+03 -0.70352990147E+02  0.35146466322E+03  0.88869391277E+03  0.65864270000E+03 0.  1.
    8880022    1    1    2    0    0  0.47695881543E+03  0.70352990147E+02 -0.78982744248E+03  0.93790100583E+03  0.15294330000E+03 0.  0.
<mgrwt>
<rscale>  0 0.72419905E+03</rscale>
<asrwt>0</asrwt>
<pdfrwt beam="1">  1        2 0.17422752E+00 0.81624106E+03</pdfrwt>
<pdfrwt beam="2">  1       -2 0.10678709E+00 0.81624106E+03</pdfrwt>
<totfact> 0.14848774E+01</totfact>
</mgrwt>
</event>
<event>
 4    5  0.1112901E-007  0.1420131E+04  0.7818608E-02  0.8968196E-01
         -2   -1    0    0    0  501 -0.00000000000E+00  0.00000000000E+00  0.16629123169E+04  0.16629123169E+04  0.25500000000E-02 0.  1.
          2   -1    0    0  501    0  0.00000000000E+00 -0.00000000000E+00 -0.22991362669E+04  0.22991362669E+04  0.25500000000E-02 0. -1.
    8880023    1    1    2    0    0  0.58002165415E+03  0.11164838737E+04  0.11113260017E+04  0.18032795257E+04  0.65864270000E+03 0.  0.
    8880022    1    1    2    0    0 -0.58002165415E+03 -0.11164838737E+04 -0.17475499517E+04  0.21587690581E+04  0.15294330000E+03 0.  0.
<mgrwt>
<rscale>  0 0.13803092E+04</rscale>
<asrwt>0</asrwt>
<pdfrwt beam="1">  1        2 0.35371327E+00 0.14201308E+04</pdfrwt>
<pdfrwt beam="2">  1       -2 0.25583266E+00 0.14201308E+04</pdfrwt>
<totfact> 0.25421920E-01</totfact>
</mgrwt>
</event>
<event>
 4    5  0.1112901E-007  0.1572383E+04  0.7818608E-02  0.8860146E-01
         -2   -1    0    0    0  501 -0.00000000000E+00  0.00000000000E+00  0.12091880361E+04  0.12091880361E+04  0.25500000000E-02 0.  1.
          2   -1    0    0  501    0  0.00000000000E+00 -0.00000000000E+00 -0.23959322485E+04  0.23959322485E+04  0.25500000000E-02 0. -1.
    8880023    1    1    2    0    0  0.53320496333E+03  0.13244886747E+04  0.22857693446E+03  0.15889101308E+04  0.65864270000E+03 0.  0.
    8880022    1    1    2    0    0 -0.53320496333E+03 -0.13244886747E+04 -0.14153211469E+04  0.20162101538E+04  0.15294330000E+03 0.  0.
<mgrwt>
<rscale>  0 0.15371067E+04</rscale>
<asrwt>0</asrwt>
<pdfrwt beam="1">  1        2 0.36860496E+00 0.15723829E+04</pdfrwt>
<pdfrwt beam="2">  1       -2 0.18602893E+00 0.15723829E+04</pdfrwt>
<totfact> 0.61513624E-01</totfact>
</mgrwt>
</event>
<event>
 4    5  0.1157796E-007  0.1851633E+04  0.7818608E-02  0.8694500E-01
         -2   -1    0    0    0  501 -0.00000000000E+00  0.00000000000E+00  0.22404788162E+04  0.22404788162E+04  0.25500000000E-02 0.  1.
          2   -1    0    0  501    0  0.00000000000E+00 -0.00000000000E+00 -0.36422217034E+04  0.36422217034E+04  0.25500000000E-02 0. -1.
    8880023    1    1    2    0    0 -0.48499801757E+03  0.16611775911E+04  0.15784466263E+04  0.24331128261E+04  0.65864270000E+03 0.  0.
    8880022    1    1    2    0    0  0.48499801757E+03 -0.16611775911E+04 -0.29801895135E+04  0.34495876936E+04  0.15294330000E+03 0.  0.
<mgrwt>
<rscale>  0 0.18223564E+04</rscale>
<asrwt>0</asrwt>
<pdfrwt beam="1">  1        2 0.56034180E+00 0.18516329E+04</pdfrwt>
<pdfrwt beam="2">  1       -2 0.34468905E+00 0.18516329E+04</pdfrwt>
<totfact> 0.97331610E-03</totfact>
</mgrwt>
</event>
<event>
 4    5  0.1112901E-007  0.7974378E+03  0.7818608E-02  0.9716364E-01
          2   -1    0    0  501    0  0.00000000000E+00  0.00000000000E+00  0.79975104041E+03  0.79975104042E+03  0.25500000000E-02 0. -1.
         -2   -1    0    0    0  501 -0.00000000000E+00 -0.00000000000E+00 -0.59490519382E+03  0.59490519383E+03  0.25500000000E-02 0.  1.
    8880023    1    1    2    0    0  0.33586995158E+03  0.29881142284E+03 -0.13757182879E+03  0.80921758825E+03  0.65864270000E+03 0. -1.
    8880022    1    1    2    0    0 -0.33586995158E+03 -0.29881142284E+03  0.34241767538E+03  0.58543864599E+03  0.15294330000E+03 0.  0.
<mgrwt>
<rscale>  0 0.70050814E+03</rscale>
<asrwt>0</asrwt>
<pdfrwt beam="1">  1        2 0.12303862E+00 0.79743783E+03</pdfrwt>
<pdfrwt beam="2">  1       -2 0.91523876E-01 0.79743783E+03</pdfrwt>
<totfact> 0.35381287E+01</totfact>
</mgrwt>
</event>
<event>
 4    5  0.1112901E-007  0.8295555E+03  0.7818608E-02  0.9650198E-01
          2   -1    0    0  501    0  0.00000000000E+00  0.00000000000E+00  0.59102129277E+03  0.59102129278E+03  0.25500000000E-02 0. -1.
         -2   -1    0    0    0  501 -0.00000000000E+00 -0.00000000000E+00 -0.15952896512E+04  0.15952896512E+04  0.25500000000E-02 0.  1.
    8880023    1    1    2    0    0 -0.43960266185E+03  0.24718737218E+03 -0.13294591016E+04  0.15670430135E+04  0.65864270000E+03 0.  0.
    8880022    1    1    2    0    0  0.43960266185E+03 -0.24718737218E+03  0.32519074312E+03  0.61926793046E+03  0.15294330000E+03 0.  0.
<mgrwt>
<rscale>  0 0.74061008E+03</rscale>
<asrwt>0</asrwt>
<pdfrwt beam="1">  1        2 0.90926353E-01 0.82955549E+03</pdfrwt>
<pdfrwt beam="2">  1       -2 0.24542918E+00 0.82955549E+03</pdfrwt>
<totfact> 0.35259376E+00</totfact>
</mgrwt>
</event>
<event>
 4    5  0.1112901E-007  0.7907311E+03  0.7818608E-02  0.9731208E-01
          2   -1    0    0  501    0  0.00000000000E+00  0.00000000000E+00  0.28850449975E+04  0.28850449975E+04  0.25500000000E-02 0. -1.
         -2   -1    0    0    0  501 -0.00000000000E+00 -0.00000000000E+00 -0.52153445131E+03  0.52153445131E+03  0.25500000000E-02 0.  1.
    8880023    1    1    2    0    0  0.36549424635E+03  0.24053979921E+03 -0.18844247972E+03  0.81287527551E+03  0.65864270000E+03 0.  1.
    8880022    1    1    2    0    0 -0.36549424635E+03 -0.24053979921E+03  0.25519530260E+04  0.25937041733E+04  0.15294330000E+03 0.  0.
<mgrwt>
<rscale>  0 0.69188715E+03</rscale>
<asrwt>0</asrwt>
<pdfrwt beam="1">  1        2 0.44385308E+00 0.79073108E+03</pdfrwt>
<pdfrwt beam="2">  1       -2 0.80236068E-01 0.79073108E+03</pdfrwt>
<totfact> 0.29717475E+00</totfact>
</mgrwt>
</event>
<event>
 4    5  0.1112901E-007  0.8040536E+03  0.7818608E-02  0.9702099E-01
          2   -1    0    0  501    0  0.00000000000E+00  0.00000000000E+00  0.66732392087E+03  0.66732392087E+03  0.25500000000E-02 0. -1.
         -2   -1    0    0    0  501 -0.00000000000E+00 -0.00000000000E+00 -0.23239336065E+04  0.23239336065E+04  0.25500000000E-02 0.  1.
    8880023    1    1    2    0    0  0.12227136298E+03 -0.44468151018E+03 -0.21520332654E+04  0.22973352636E+04  0.65864270000E+03 0.  1.
    8880022    1    1    2    0    0 -0.12227136298E+03  0.44468151018E+03  0.49542357980E+03  0.69392226375E+03  0.15294330000E+03 0.  0.
<mgrwt>
<rscale>  0 0.70891956E+03</rscale>
<asrwt>0</asrwt>
<pdfrwt beam="1">  1        2 0.10266522E+00 0.80405357E+03</pdfrwt>
<pdfrwt beam="2">  1       -2 0.35752824E+00 0.80405357E+03</pdfrwt>
<totfact> 0.63491678E-01</totfact>
</mgrwt>
</event>
<event>
 4    5  0.1112901E-007  0.7006716E+03  0.7818608E-02  0.9994426E-01
         -2   -1    0    0    0  501 -0.00000000000E+00  0.00000000000E+00  0.13503560216E+04  0.13503560216E+04  0.25500000000E-02 0.  1.
          2   -1    0    0  501    0  0.00000000000E+00 -0.00000000000E+00 -0.69327067151E+03  0.69327067151E+03  0.25500000000E-02 0. -1.
    8880023    1    1    2    0    0 -0.19826974640E+03  0.13349011086E+03  0.12236021747E+04  0.14100152447E+04  0.65864270000E+03 0.  1.
    8880022    1    1    2    0    0  0.19826974640E+03 -0.13349011086E+03 -0.56651682460E+03  0.63361144844E+03  0.15294330000E+03 0.  0.
<mgrwt>
<rscale>  0 0.55895303E+03</rscale>
<asrwt>0</asrwt>
<pdfrwt beam="1">  1        2 0.10665703E+00 0.70067161E+03</pdfrwt>
<pdfrwt beam="2">  1       -2 0.20774708E+00 0.70067161E+03</pdfrwt>
<totfact> 0.50534876E+00</totfact>
</mgrwt>
</event>
<event>
 4    5  0.1112901E-007  0.8781250E+03  0.7818608E-02  0.9562102E-01
          2   -1    0    0  501    0  0.00000000000E+00  0.00000000000E+00  0.19887762341E+04  0.19887762341E+04  0.25500000000E-02 0. -1.
         -2   -1    0    0    0  501 -0.00000000000E+00 -0.00000000000E+00 -0.55653292568E+03  0.55653292568E+03  0.25500000000E-02 0.  1.
    8880023    1    1    2    0    0 -0.50437973553E+03  0.28791390958E+03 -0.11497460445E+03  0.88561995397E+03  0.65864270000E+03 0.  0.
    8880022    1    1    2    0    0  0.50437973553E+03 -0.28791390958E+03  0.15472179129E+04  0.16596892058E+04  0.15294330000E+03 0.  0.
<mgrwt>
<rscale>  0 0.79856132E+03</rscale>
<asrwt>0</asrwt>
<pdfrwt beam="1">  1        2 0.30596557E+00 0.87812502E+03</pdfrwt>
<pdfrwt beam="2">  1       -2 0.85620451E-01 0.87812502E+03</pdfrwt>
<totfact> 0.81656243E+00</totfact>
</mgrwt>
</event>
<event>
 4    5  0.1112901E-007  0.7151082E+03  0.7818608E-02  0.9939499E-01
         -2   -1    0    0    0  501 -0.00000000000E+00  0.00000000000E+00  0.71949011318E+03  0.71949011319E+03  0.25500000000E-02 0.  1.
          2   -1    0    0  501    0  0.00000000000E+00 -0.00000000000E+00 -0.87871580294E+03  0.87871580295E+03  0.25500000000E-02 0. -1.
    8880023    1    1    2    0    0  0.18540807801E+03  0.20783023720E+03  0.49580705845E+03  0.87017492975E+03  0.65864270000E+03 0.  0.
    8880022    1    1    2    0    0 -0.18540807801E+03 -0.20783023720E+03 -0.65503274821E+03  0.72803098638E+03  0.15294330000E+03 0.  0.
<mgrwt>
<rscale>  0 0.58384579E+03</rscale>
<asrwt>0</asrwt>
<pdfrwt beam="1">  1        2 0.13518705E+00 0.71510822E+03</pdfrwt>
<pdfrwt beam="2">  1       -2 0.11069079E+00 0.71510822E+03</pdfrwt>
<totfact> 0.19990553E+01</totfact>
</mgrwt>
</event>
<event>
 4    5  0.1112901E-007  0.6927040E+03  0.7818608E-02  0.1002893E+00
         -2   -1    0    0    0  501 -0.00000000000E+00  0.00000000000E+00  0.69042483401E+03  0.69042483401E+03  0.25500000000E-02 0.  1.
          2   -1    0    0  501    0  0.00000000000E+00 -0.00000000000E+00 -0.54024117356E+03  0.54024117356E+03  0.25500000000E-02 0. -1.
    8880023    1    1    2    0    0 -0.17081214498E+03 -0.12981478435E+03  0.45422395029E+03  0.82834670905E+03  0.65864270000E+03 0.  1.
    8880022    1    1    2    0    0  0.17081214498E+03  0.12981478435E+03 -0.30404028984E+03  0.40231929853E+03  0.15294330000E+03 0.  0.
<mgrwt>
<rscale>  0 0.54399713E+03</rscale>
<asrwt>0</asrwt>
<pdfrwt beam="1">  1        2 0.83114027E-01 0.69270403E+03</pdfrwt>
<pdfrwt beam="2">  1       -2 0.10621920E+00 0.69270403E+03</pdfrwt>
<totfact> 0.40867607E+01</totfact>
</mgrwt>
</event>
<event>
 4    5  0.1112901E-007  0.6971256E+03  0.7818608E-02  0.1000934E+00
          2   -1    0    0  501    0  0.00000000000E+00  0.00000000000E+00  0.19693650711E+04  0.19693650711E+04  0.25500000000E-02 0. -1.
         -2   -1    0    0    0  501 -0.00000000000E+00 -0.00000000000E+00 -0.63006459695E+03  0.63006459696E+03  0.25500000000E-02 0.  1.
    8880023    1    1    2    0    0  0.13073773539E+03 -0.18730073460E+03 -0.42326313220E+03  0.81555858525E+03  0.65864270000E+03 0.  1.
    8880022    1    1    2    0    0 -0.13073773539E+03  0.18730073460E+03  0.17625636064E+04  0.17838710828E+04  0.15294330000E+03 0.  0.
<mgrwt>
<rscale>  0 0.55242558E+03</rscale>
<asrwt>0</asrwt>
<pdfrwt beam="1">  1        2 0.30297924E+00 0.69712562E+03</pdfrwt>
<pdfrwt beam="2">  1       -2 0.96933016E-01 0.69712562E+03</pdfrwt>
<totfact> 0.64504774E+00</totfact>
</mgrwt>
</event>
<event>
 4    5  0.1112901E-007  0.7434255E+03  0.7818608E-02  0.9850079E-01
          2   -1    0    0  501    0  0.00000000000E+00  0.00000000000E+00  0.21275330574E+04  0.21275330575E+04  0.25500000000E-02 0. -1.
         -2   -1    0    0    0  501 -0.00000000000E+00 -0.00000000000E+00 -0.31612420215E+03  0.31612420216E+03  0.25500000000E-02 0.  1.
    8880023    1    1    2    0    0  0.31241494934E+03 -0.14583601765E+03  0.17419840933E+03  0.76356174386E+03  0.65864270000E+03 0.  1.
    8880022    1    1    2    0    0 -0.31241494934E+03  0.14583601765E+03  0.16372104460E+04  0.16800955157E+04  0.15294330000E+03 0.  0.
<mgrwt>
<rscale>  0 0.62742893E+03</rscale>
<asrwt>0</asrwt>
<pdfrwt beam="1">  1        2 0.32731276E+00 0.74342548E+03</pdfrwt>
<pdfrwt beam="2">  1       -2 0.48634495E-01 0.74342548E+03</pdfrwt>
<totfact> 0.23551005E+01</totfact>
</mgrwt>
</event>
<event>
 4    5  0.1112901E-007  0.1186531E+04  0.7818608E-02  0.9170328E-01
          2   -1    0    0  501    0  0.00000000000E+00  0.00000000000E+00  0.82916639441E+03  0.82916639441E+03  0.25500000000E-02 0. -1.
         -2   -1    0    0    0  501 -0.00000000000E+00 -0.00000000000E+00 -0.22103759097E+04  0.22103759097E+04  0.25500000000E-02 0.  1.
    8880023    1    1    2    0    0 -0.88053237811E+03 -0.44576599566E+03 -0.16244418218E+04  0.20116326778E+04  0.65864270000E+03 0.  0.
    8880022    1    1    2    0    0  0.88053237811E+03  0.44576599566E+03  0.24323230655E+03  0.10279096263E+04  0.15294330000E+03 0.  0.
<mgrwt>
<rscale>  0 0.11365011E+04</rscale>
<asrwt>0</asrwt>
<pdfrwt beam="1">  1        2 0.12756406E+00 0.11865306E+04</pdfrwt>
<pdfrwt beam="2">  1       -2 0.34005783E+00 0.11865306E+04</pdfrwt>
<totfact> 0.58126975E-01</totfact>
</mgrwt>
</event>
<event>
 4    5  0.1112901E-007  0.1066361E+04  0.7818608E-02  0.9299467E-01
          2   -1    0    0  501    0  0.00000000000E+00  0.00000000000E+00  0.18611665164E+04  0.18611665164E+04  0.25500000000E-02 0. -1.
         -2   -1    0    0    0  501 -0.00000000000E+00 -0.00000000000E+00 -0.80388801511E+03  0.80388801511E+03  0.25500000000E-02 0.  1.
    8880023    1    1    2    0    0 -0.52262429276E+03  0.65588040919E+03 -0.25851339173E+03  0.10972486694E+04  0.65864270000E+03 0.  0.
    8880022    1    1    2    0    0  0.52262429276E+03 -0.65588040919E+03  0.13157918931E+04  0.15678058622E+04  0.15294330000E+03 0.  0.
<mgrwt>
<rscale>  0 0.10083192E+04</rscale>
<asrwt>0</asrwt>
<pdfrwt beam="1">  1        2 0.28633330E+00 0.10663609E+04</pdfrwt>
<pdfrwt beam="2">  1       -2 0.12367508E+00 0.10663609E+04</pdfrwt>
<totfact> 0.38877366E+00</totfact>
</mgrwt>
</event>
<event>
 4    5  0.1112901E-007  0.8716395E+03  0.7818608E-02  0.9573185E-01
         -2   -1    0    0    0  501 -0.00000000000E+00  0.00000000000E+00  0.67438315404E+03  0.67438315405E+03  0.25500000000E-02 0.  1.
          2   -1    0    0  501    0  0.00000000000E+00 -0.00000000000E+00 -0.13967604865E+04  0.13967604865E+04  0.25500000000E-02 0. -1.
    8880023    1    1    2    0    0 -0.24067989357E+03 -0.51770496230E+03  0.27310308053E+03  0.91342254079E+03  0.65864270000E+03 0.  1.
    8880022    1    1    2    0    0  0.24067989357E+03  0.51770496230E+03 -0.99548041297E+03  0.11577210997E+04  0.15294330000E+03 0.  0.
<mgrwt>
<rscale>  0 0.79096677E+03</rscale>
<asrwt>0</asrwt>
<pdfrwt beam="1">  1        2 0.21488623E+00 0.87163952E+03</pdfrwt>
<pdfrwt beam="2">  1       -2 0.10375125E+00 0.87163952E+03</pdfrwt>
<totfact> 0.11080388E+01</totfact>
</mgrwt>
</event>
<event>
 4    5  0.1112901E-007  0.1084706E+04  0.7818608E-02  0.9278278E-01
         -2   -1    0    0    0  501 -0.00000000000E+00  0.00000000000E+00  0.47477531631E+03  0.47477531631E+03  0.25500000000E-02 0.  1.
          2   -1    0    0  501    0  0.00000000000E+00 -0.00000000000E+00 -0.29690997446E+04  0.29690997446E+04  0.25500000000E-02 0. -1.
    8880023    1    1    2    0    0 -0.79108751253E+03  0.34198957334E+03 -0.36965088405E+03  0.11459617372E+04  0.65864270000E+03 0.  0.
    8880022    1    1    2    0    0  0.79108751253E+03 -0.34198957334E+03 -0.21246735443E+04  0.22979133237E+04  0.15294330000E+03 0.  0.
<mgrwt>
<rscale>  0 0.10280742E+04</rscale>
<asrwt>0</asrwt>
<pdfrwt beam="1">  1        2 0.45678457E+00 0.10847057E+04</pdfrwt>
<pdfrwt beam="2">  1       -2 0.73042358E-01 0.10847057E+04</pdfrwt>
<totfact> 0.31093640E+00</totfact>
</mgrwt>
</event>
<event>
 4    5  0.1112901E-007  0.1252146E+04  0.7818608E-02  0.9108027E-01
          2   -1    0    0  501    0  0.00000000000E+00  0.00000000000E+00  0.18599402354E+04  0.18599402354E+04  0.25500000000E-02 0. -1.
         -2   -1    0    0    0  501 -0.00000000000E+00 -0.00000000000E+00 -0.96039617556E+03  0.96039617556E+03  0.25500000000E-02 0.  1.
    8880023    1    1    2    0    0 -0.36672584965E+03 -0.99978566051E+03 -0.21588043127E+03  0.12706194484E+04  0.65864270000E+03 0.  0.
    8880022    1    1    2    0    0  0.36672584965E+03  0.99978566051E+03  0.11154244911E+04  0.15497169626E+04  0.15294330000E+03 0.  0.
<mgrwt>
<rscale>  0 0.12055328E+04</rscale>
<asrwt>0</asrwt>
<pdfrwt beam="1">  1        2 0.28614465E+00 0.12521459E+04</pdfrwt>
<pdfrwt beam="2">  1       -2 0.14775326E+00 0.12521459E+04</pdfrwt>
<totfact> 0.24112392E+00</totfact>
</mgrwt>
</event>
<event>
 4    5  0.1112901E-007  0.7636811E+03  0.7818608E-02  0.9795669E-01
          2   -1    0    0  501    0  0.00000000000E+00  0.00000000000E+00  0.25891686512E+04  0.25891686512E+04  0.25500000000E-02 0. -1.
         -2   -1    0    0    0  501 -0.00000000000E+00 -0.00000000000E+00 -0.45723614293E+03  0.45723614293E+03  0.25500000000E-02 0.  1.
    8880023    1    1    2    0    0  0.38526564381E+03  0.31129166434E+02 -0.10527892154E+03  0.77090368976E+03  0.65864270000E+03 0.  1.
    8880022    1    1    2    0    0 -0.38526564381E+03 -0.31129166434E+02  0.22372114298E+04  0.22755011044E+04  0.15294330000E+03 0.  0.
<mgrwt>
<rscale>  0 0.65595486E+03</rscale>
<asrwt>0</asrwt>
<pdfrwt beam="1">  1        2 0.39833363E+00 0.76368112E+03</pdfrwt>
<pdfrwt beam="2">  1       -2 0.70344023E-01 0.76368112E+03</pdfrwt>
<totfact> 0.59620652E+00</totfact>
</mgrwt>
</event>
<event>
 4    5  0.1112901E-007  0.7797629E+03  0.7818608E-02  0.9756394E-01
         -2   -1    0    0    0  501 -0.00000000000E+00  0.00000000000E+00  0.26210754737E+03  0.26210754739E+03  0.25500000000E-02 0.  1.
          2   -1    0    0  501    0  0.00000000000E+00 -0.00000000000E+00 -0.31731481258E+04  0.31731481258E+04  0.25500000000E-02 0. -1.
    8880023    1    1    2    0    0 -0.40239975862E+03  0.11087984803E+03 -0.38358301646E+03  0.86900290173E+03  0.65864270000E+03 0.  1.
    8880022    1    1    2    0    0  0.40239975862E+03 -0.11087984803E+03 -0.25274575619E+04  0.25662527714E+04  0.15294330000E+03 0.  0.
<mgrwt>
<rscale>  0 0.67756108E+03</rscale>
<asrwt>0</asrwt>
<pdfrwt beam="1">  1        2 0.48817661E+00 0.77976286E+03</pdfrwt>
<pdfrwt beam="2">  1       -2 0.40324241E-01 0.77976286E+03</pdfrwt>
<totfact> 0.83605157E+00</totfact>
</mgrwt>
</event>
<event>
 4    5  0.1112901E-007  0.9231190E+03  0.7818608E-02  0.9489893E-01
          2   -1    0    0  501    0  0.00000000000E+00  0.00000000000E+00  0.25971743496E+04  0.25971743496E+04  0.25500000000E-02 0. -1.
         -2   -1    0    0    0  501 -0.00000000000E+00 -0.00000000000E+00 -0.55880895698E+03  0.55880895699E+03  0.25500000000E-02 0.  1.
    8880023    1    1    2    0    0 -0.47519072794E+03  0.43878506802E+03 -0.88823191124E+02  0.92738251514E+03  0.65864270000E+03 0.  1.
    8880022    1    1    2    0    0  0.47519072794E+03 -0.43878506802E+03  0.21271885837E+04  0.22286007914E+04  0.15294330000E+03 0.  0.
<mgrwt>
<rscale>  0 0.85033082E+03</rscale>
<asrwt>0</asrwt>
<pdfrwt beam="1">  1        2 0.39956528E+00 0.92311904E+03</pdfrwt>
<pdfrwt beam="2">  1       -2 0.85970610E-01 0.92311904E+03</pdfrwt>
<totfact> 0.36691499E+00</totfact>
</mgrwt>
</event>
<event>
 4    5  0.1112901E-007  0.8635877E+03  0.7818608E-02  0.9587213E-01
         -2   -1    0    0    0  501 -0.00000000000E+00  0.00000000000E+00  0.19331370468E+04  0.19331370468E+04  0.25500000000E-02 0.  1.
          2   -1    0    0  501    0  0.00000000000E+00 -0.00000000000E+00 -0.58307945675E+03  0.58307945675E+03  0.25500000000E-02 0. -1.
    8880023    1    1    2    0    0  0.31258376095E+03 -0.46288759875E+03  0.16512696219E+04  0.18634578362E+04  0.65864270000E+03 0.  1.
    8880022    1    1    2    0    0 -0.31258376095E+03  0.46288759875E+03 -0.30121203186E+03  0.65275866738E+03  0.15294330000E+03 0.  0.
<mgrwt>
<rscale>  0 0.78148310E+03</rscale>
<asrwt>0</asrwt>
<pdfrwt beam="1">  1        2 0.89704531E-01 0.86358772E+03</pdfrwt>
<pdfrwt beam="2">  1       -2 0.29740570E+00 0.86358772E+03</pdfrwt>
<totfact> 0.17327152E+00</totfact>
</mgrwt>
</event>
<event>
 4    5  0.1112901E-007  0.7592802E+03  0.7818608E-02  0.9806974E-01
          2   -1    0    0  501    0  0.00000000000E+00  0.00000000000E+00  0.12162886815E+04  0.12162886815E+04  0.25500000000E-02 0. -1.
         -2   -1    0    0    0  501 -0.00000000000E+00 -0.00000000000E+00 -0.34423970730E+03  0.34423970731E+03  0.25500000000E-02 0.  1.
    8880023    1    1    2    0    0 -0.28122064166E+03 -0.25221262746E+03  0.21809760676E+03  0.78998293088E+03  0.65864270000E+03 0.  0.
    8880022    1    1    2    0    0  0.28122064166E+03  0.25221262746E+03  0.65395136742E+03  0.77054545791E+03  0.15294330000E+03 0.  0.
<mgrwt>
<rscale>  0 0.64989594E+03</rscale>
<asrwt>0</asrwt>
<pdfrwt beam="1">  1        2 0.18712134E+00 0.75928023E+03</pdfrwt>
<pdfrwt beam="2">  1       -2 0.52959955E-01 0.75928023E+03</pdfrwt>
<totfact> 0.63295760E+01</totfact>
</mgrwt>
</event>
<event>
 4    5  0.1112901E-007  0.6861739E+03  0.7818608E-02  0.1006027E+00
         -2   -1    0    0    0  501 -0.00000000000E+00  0.00000000000E+00  0.36256859624E+03  0.36256859625E+03  0.25500000000E-02 0.  1.
          2   -1    0    0  501    0  0.00000000000E+00 -0.00000000000E+00 -0.27038748999E+04  0.27038748999E+04  0.25500000000E-02 0. -1.
    8880023    1    1    2    0    0  0.10202054211E+03  0.16314462801E+03  0.25752630701E+02  0.68665694849E+03  0.65864270000E+03 0.  1.
    8880022    1    1    2    0    0 -0.10202054211E+03 -0.16314462801E+03 -0.23670589344E+04  0.23797865477E+04  0.15294330000E+03 0.  0.
<mgrwt>
<rscale>  0 0.53084733E+03</rscale>
<asrwt>0</asrwt>
<pdfrwt beam="1">  1        2 0.41598074E+00 0.68617386E+03</pdfrwt>
<pdfrwt beam="2">  1       -2 0.55779786E-01 0.68617386E+03</pdfrwt>
<totfact> 0.85123240E+00</totfact>
</mgrwt>
</event>
<event>
 4    5  0.1112901E-007  0.9828543E+03  0.7818608E-02  0.9404341E-01
          2   -1    0    0  501    0  0.00000000000E+00  0.00000000000E+00  0.28604554344E+04  0.28604554344E+04  0.25500000000E-02 0. -1.
         -2   -1    0    0    0  501 -0.00000000000E+00 -0.00000000000E+00 -0.45283589283E+03  0.45283589283E+03  0.25500000000E-02 0.  1.
    8880023    1    1    2    0    0 -0.72945901219E+03 -0.90561476070E+01  0.22690145790E+03  0.10087055775E+04  0.65864270000E+03 0.  0.
    8880022    1    1    2    0    0  0.72945901219E+03  0.90561476070E+01  0.21807180837E+04  0.23045857497E+04  0.15294330000E+03 0. -1.
<mgrwt>
<rscale>  0 0.91719272E+03</rscale>
<asrwt>0</asrwt>
<pdfrwt beam="1">  1        2 0.44007008E+00 0.98285435E+03</pdfrwt>
<pdfrwt beam="2">  1       -2 0.69667059E-01 0.98285435E+03</pdfrwt>
<totfact> 0.40755849E+00</totfact>
</mgrwt>
</event>
<event>
 4    5  0.1112901E-007  0.1163796E+04  0.7818608E-02  0.9193144E-01
          2   -1    0    0  501    0  0.00000000000E+00  0.00000000000E+00  0.10072410575E+04  0.10072410575E+04  0.25500000000E-02 0. -1.
         -2   -1    0    0    0  501 -0.00000000000E+00 -0.00000000000E+00 -0.12216212596E+04  0.12216212596E+04  0.25500000000E-02 0.  1.
    8880023    1    1    2    0    0 -0.93893479383E+03 -0.19751592052E+03  0.18495233044E+03  0.11784008896E+04  0.65864270000E+03 0. -1.
    8880022    1    1    2    0    0  0.93893479383E+03  0.19751592052E+03 -0.39933253254E+03  0.10504614274E+04  0.15294330000E+03 0.  0.
<mgrwt>
<rscale>  0 0.11124470E+04</rscale>
<asrwt>0</asrwt>
<pdfrwt beam="1">  1        2 0.15496016E+00 0.11637961E+04</pdfrwt>
<pdfrwt beam="2">  1       -2 0.18794173E+00 0.11637961E+04</pdfrwt>
<totfact> 0.38915302E+00</totfact>
</mgrwt>
</event>
<event>
 4    5  0.1112901E-007  0.7626605E+03  0.7818608E-02  0.9798268E-01
         -2   -1    0    0    0  501 -0.00000000000E+00  0.00000000000E+00  0.78530576220E+03  0.78530576221E+03  0.25500000000E-02 0.  1.
          2   -1    0    0  501    0  0.00000000000E+00 -0.00000000000E+00 -0.15318052085E+04  0.15318052085E+04  0.25500000000E-02 0. -1.
    8880023    1    1    2    0    0 -0.27538587752E+03  0.26833470107E+03  0.56030364807E+03  0.94635684477E+03  0.65864270000E+03 0.  1.
    8880022    1    1    2    0    0  0.27538587752E+03 -0.26833470107E+03 -0.13068030944E+04  0.13707541259E+04  0.15294330000E+03 0.  0.
<mgrwt>
<rscale>  0 0.65455591E+03</rscale>
<asrwt>0</asrwt>
<pdfrwt beam="1">  1        2 0.23566234E+00 0.76266054E+03</pdfrwt>
<pdfrwt beam="2">  1       -2 0.12081627E+00 0.76266054E+03</pdfrwt>
<totfact> 0.65111328E+00</totfact>
</mgrwt>
</event>
<event>
 4    5  0.1112901E-007  0.9261907E+03  0.7818608E-02  0.9485231E-01
         -2   -1    0    0    0  501 -0.00000000000E+00  0.00000000000E+00  0.49094004263E+03  0.49094004264E+03  0.25500000000E-02 0.  1.
          2   -1    0    0  501    0  0.00000000000E+00 -0.00000000000E+00 -0.25243305005E+04  0.25243305005E+04  0.25500000000E-02 0. -1.
    8880023    1    1    2    0    0  0.36643989037E+02  0.65013555281E+03 -0.56079204023E+02  0.92788690170E+03  0.65864270000E+03 0.  0.
    8880022    1    1    2    0    0 -0.36643989037E+02 -0.65013555281E+03 -0.19773112539E+04  0.20873836415E+04  0.15294330000E+03 0.  0.
<mgrwt>
<rscale>  0 0.85381466E+03</rscale>
<asrwt>0</asrwt>
<pdfrwt beam="1">  1        2 0.38835853E+00 0.92619071E+03</pdfrwt>
<pdfrwt beam="2">  1       -2 0.75529239E-01 0.92619071E+03</pdfrwt>
<totfact> 0.54106438E+00</totfact>
</mgrwt>
</event>
<event>
 4    5  0.1112901E-007  0.1552008E+04  0.7818608E-02  0.8873759E-01
         -2   -1    0    0    0  501 -0.00000000000E+00  0.00000000000E+00  0.77858980596E+03  0.77858980597E+03  0.25500000000E-02 0.  1.
          2   -1    0    0  501    0  0.00000000000E+00 -0.00000000000E+00 -0.28801183924E+04  0.28801183924E+04  0.25500000000E-02 0. -1.
    8880023    1    1    2    0    0  0.11845595529E+04  0.75613214706E+03 -0.84373809892E+03  0.17665280479E+04  0.65864270000E+03 0.  0.
    8880022    1    1    2    0    0 -0.11845595529E+04 -0.75613214706E+03 -0.12577904875E+04  0.18921801504E+04  0.15294330000E+03 0.  0.
<mgrwt>
<rscale>  0 0.15161885E+04</rscale>
<asrwt>0</asrwt>
<pdfrwt beam="1">  1        2 0.44309513E+00 0.15520075E+04</pdfrwt>
<pdfrwt beam="2">  1       -2 0.11978305E+00 0.15520075E+04</pdfrwt>
<totfact> 0.10434600E+00</totfact>
</mgrwt>
</event>
<event>
 4    5  0.1112901E-007  0.6839788E+03  0.7818608E-02  0.1007157E+00
          2   -1    0    0  501    0  0.00000000000E+00  0.00000000000E+00  0.19443752319E+04  0.19443752319E+04  0.25500000000E-02 0. -1.
         -2   -1    0    0    0  501 -0.00000000000E+00 -0.00000000000E+00 -0.88199138897E+03  0.88199138897E+03  0.25500000000E-02 0.  1.
    8880023    1    1    2    0    0 -0.12277107144E+03  0.13763720172E+03 -0.74025664386E+03  0.10078724326E+04  0.65864270000E+03 0.  1.
    8880022    1    1    2    0    0  0.12277107144E+03 -0.13763720172E+03  0.18026404868E+04  0.18184941883E+04  0.15294330000E+03 0.  0.
<mgrwt>
<rscale>  0 0.52620368E+03</rscale>
<asrwt>0</asrwt>
<pdfrwt beam="1">  1        2 0.29913465E+00 0.68397876E+03</pdfrwt>
<pdfrwt beam="2">  1       -2 0.13569098E+00 0.68397876E+03</pdfrwt>
<totfact> 0.29287544E+00</totfact>
</mgrwt>
</event>
<event>
 4    5  0.1112901E-007  0.1112052E+04  0.7818608E-02  0.9247755E-01
         -2   -1    0    0    0  501 -0.00000000000E+00  0.00000000000E+00  0.11611151560E+04  0.11611151560E+04  0.25500000000E-02 0.  1.
          2   -1    0    0  501    0  0.00000000000E+00 -0.00000000000E+00 -0.15646692605E+04  0.15646692605E+04  0.25500000000E-02 0. -1.
    8880023    1    1    2    0    0  0.97571908453E+02 -0.89068988115E+03  0.68617987228E+03  0.13067141099E+04  0.65864270000E+03 0.  0.
    8880022    1    1    2    0    0 -0.97571908453E+02  0.89068988115E+03 -0.10897339768E+04  0.14190703066E+04  0.15294330000E+03 0.  0.
<mgrwt>
<rscale>  0 0.10573823E+04</rscale>
<asrwt>0</asrwt>
<pdfrwt beam="1">  1        2 0.24071835E+00 0.11120517E+04</pdfrwt>
<pdfrwt beam="2">  1       -2 0.17863310E+00 0.11120517E+04</pdfrwt>
<totfact> 0.21196158E+00</totfact>
</mgrwt>
</event>
<event>
 4    5  0.1112901E-007  0.7564844E+03  0.7818608E-02  0.9814295E-01
         -2   -1    0    0    0  501 -0.00000000000E+00  0.00000000000E+00  0.41713454101E+03  0.41713454102E+03  0.25500000000E-02 0.  1.
          2   -1    0    0  501    0  0.00000000000E+00 -0.00000000000E+00 -0.10355923800E+04  0.10355923800E+04  0.25500000000E-02 0. -1.
    8880023    1    1    2    0    0  0.13862434669E+03 -0.34531406335E+03 -0.52437500343E+02  0.75829968320E+03  0.65864270000E+03 0.  1.
    8880022    1    1    2    0    0 -0.13862434669E+03  0.34531406335E+03 -0.56602033864E+03  0.69442723781E+03  0.15294330000E+03 0.  0.
<mgrwt>
<rscale>  0 0.64600986E+03</rscale>
<asrwt>0</asrwt>
<pdfrwt beam="1">  1        2 0.15932190E+00 0.75648445E+03</pdfrwt>
<pdfrwt beam="2">  1       -2 0.64174545E-01 0.75648445E+03</pdfrwt>
<totfact> 0.54449998E+01</totfact>
</mgrwt>
</event>
<event>
 4    5  0.1112901E-007  0.8474252E+03  0.7818608E-02  0.9616335E-01
         -2   -1    0    0    0  501 -0.00000000000E+00  0.00000000000E+00  0.72846950234E+03  0.72846950235E+03  0.25500000000E-02 0.  1.
          2   -1    0    0  501    0  0.00000000000E+00 -0.00000000000E+00 -0.13505614887E+04  0.13505614887E+04  0.25500000000E-02 0. -1.
    8880023    1    1    2    0    0 -0.53317155062E+03  0.68867018750E+01  0.38382887673E+03  0.93029787806E+03  0.65864270000E+03 0.  0.
    8880022    1    1    2    0    0  0.53317155062E+03 -0.68867018750E+01 -0.10059208630E+04  0.11487331129E+04  0.15294330000E+03 0.  0.
<mgrwt>
<rscale>  0 0.76224383E+03</rscale>
<asrwt>0</asrwt>
<pdfrwt beam="1">  1        2 0.20777869E+00 0.84742524E+03</pdfrwt>
<pdfrwt beam="2">  1       -2 0.11207223E+00 0.84742524E+03</pdfrwt>
<totfact> 0.97977053E+00</totfact>
</mgrwt>
</event>
<event>
 4    5  0.1112901E-007  0.1310829E+04  0.7818608E-02  0.9056264E-01
          2   -1    0    0  501    0  0.00000000000E+00  0.00000000000E+00  0.22437671044E+04  0.22437671044E+04  0.25500000000E-02 0. -1.
         -2   -1    0    0    0  501 -0.00000000000E+00 -0.00000000000E+00 -0.79414304126E+03  0.79414304127E+03  0.25500000000E-02 0.  1.
    8880023    1    1    2    0    0 -0.36584836594E+03  0.10726687609E+04  0.17013335067E+03  0.13218240657E+04  0.65864270000E+03 0.  0.
    8880022    1    1    2    0    0  0.36584836594E+03 -0.10726687609E+04  0.12794907125E+04  0.17160860799E+04  0.15294330000E+03 0.  0.
<mgrwt>
<rscale>  0 0.12668627E+04</rscale>
<asrwt>0</asrwt>
<pdfrwt beam="1">  1        2 0.34519494E+00 0.13108293E+04</pdfrwt>
<pdfrwt beam="2">  1       -2 0.12217585E+00 0.13108293E+04</pdfrwt>
<totfact> 0.23933237E+00</totfact>
</mgrwt>
</event>
<event>
 4    5  0.1112901E-007  0.9371882E+03  0.7818608E-02  0.9468792E-01
         -2   -1    0    0    0  501 -0.00000000000E+00  0.00000000000E+00  0.13428417274E+04  0.13428417274E+04  0.25500000000E-02 0.  1.
          2   -1    0    0  501    0  0.00000000000E+00 -0.00000000000E+00 -0.67213031202E+03  0.67213031203E+03  0.25500000000E-02 0. -1.
    8880023    1    1    2    0    0 -0.26408622231E+03 -0.61218465020E+03  0.89421006490E+03  0.12953506958E+04  0.65864270000E+03 0.  1.
    8880022    1    1    2    0    0  0.26408622231E+03  0.61218465020E+03 -0.22349864955E+03  0.71962134357E+03  0.15294330000E+03 0.  0.
<mgrwt>
<rscale>  0 0.86624278E+03</rscale>
<asrwt>0</asrwt>
<pdfrwt beam="1">  1        2 0.10340466E+00 0.93718823E+03</pdfrwt>
<pdfrwt beam="2">  1       -2 0.20659103E+00 0.93718823E+03</pdfrwt>
<totfact> 0.51965518E+00</totfact>
</mgrwt>
</event>
<event>
 4    5  0.1112901E-007  0.6954310E+03  0.7818608E-02  0.1001671E+00
         -2   -1    0    0    0  501 -0.00000000000E+00  0.00000000000E+00  0.62092084467E+03  0.62092084468E+03  0.25500000000E-02 0.  1.
          2   -1    0    0  501    0  0.00000000000E+00 -0.00000000000E+00 -0.58726988321E+03  0.58726988322E+03  0.25500000000E-02 0. -1.
    8880023    1    1    2    0    0  0.21771992468E+03  0.49113559558E+02  0.36096124128E+03  0.78352876865E+03  0.65864270000E+03 0.  0.
    8880022    1    1    2    0    0 -0.21771992468E+03 -0.49113559558E+02 -0.32731027982E+03  0.42466195924E+03  0.15294330000E+03 0.  0.
<mgrwt>
<rscale>  0 0.54923563E+03</rscale>
<asrwt>0</asrwt>
<pdfrwt beam="1">  1        2 0.90349213E-01 0.69543103E+03</pdfrwt>
<pdfrwt beam="2">  1       -2 0.95526283E-01 0.69543103E+03</pdfrwt>
<totfact> 0.47594820E+01</totfact>
</mgrwt>
</event>
<event>
 4    5  0.1112901E-007  0.7824633E+03  0.7818608E-02  0.9750082E-01
         -2   -1    0    0    0  501 -0.00000000000E+00  0.00000000000E+00  0.27726662951E+03  0.27726662952E+03  0.25500000000E-02 0.  1.
          2   -1    0    0  501    0  0.00000000000E+00 -0.00000000000E+00 -0.27500581411E+04  0.27500581411E+04  0.25500000000E-02 0. -1.
    8880023    1    1    2    0    0  0.25964998950E+03 -0.33319739134E+03 -0.34940352380E+03  0.85693153014E+03  0.65864270000E+03 0.  1.
    8880022    1    1    2    0    0 -0.25964998950E+03  0.33319739134E+03 -0.21233879878E+04  0.21703932405E+04  0.15294330000E+03 0.  0.
<mgrwt>
<rscale>  0 0.68111630E+03</rscale>
<asrwt>0</asrwt>
<pdfrwt beam="1">  1        2 0.42308585E+00 0.78246331E+03</pdfrwt>
<pdfrwt beam="2">  1       -2 0.42656406E-01 0.78246331E+03</pdfrwt>
<totfact> 0.13542755E+01</totfact>
</mgrwt>
</event>
<event>
 4    5  0.1112901E-007  0.9508178E+03  0.7818608E-02  0.9448938E-01
         -2   -1    0    0    0  501 -0.00000000000E+00  0.00000000000E+00  0.45562728761E+03  0.45562728762E+03  0.25500000000E-02 0.  1.
          2   -1    0    0  501    0  0.00000000000E+00 -0.00000000000E+00 -0.16709512127E+04  0.16709512127E+04  0.25500000000E-02 0. -1.
    8880023    1    1    2    0    0 -0.23781039636E+02 -0.68533118487E+03 -0.35291644262E+03  0.10142014556E+04  0.65864270000E+03 0.  0.
    8880022    1    1    2    0    0  0.23781039636E+02  0.68533118487E+03 -0.86240748247E+03  0.11123770447E+04  0.15294330000E+03 0.  0.
<mgrwt>
<rscale>  0 0.88155386E+03</rscale>
<asrwt>0</asrwt>
<pdfrwt beam="1">  1        2 0.25706941E+00 0.95081785E+03</pdfrwt>
<pdfrwt beam="2">  1       -2 0.70096507E-01 0.95081785E+03</pdfrwt>
<totfact> 0.18942830E+01</totfact>
</mgrwt>
</event>
<event>
 4    5  0.1112901E-007  0.1257250E+04  0.7818608E-02  0.9103385E-01
          2   -1    0    0  501    0  0.00000000000E+00  0.00000000000E+00  0.14880232919E+04  0.14880232919E+04  0.25500000000E-02 0. -1.
         -2   -1    0    0    0  501 -0.00000000000E+00 -0.00000000000E+00 -0.12769159748E+04  0.12769159748E+04  0.25500000000E-02 0.  1.
    8880023    1    1    2    0    0 -0.76656897432E+03  0.74782348699E+03 -0.61899375855E+03  0.14013677032E+04  0.65864270000E+03 0.  0.
    8880022    1    1    2    0    0  0.76656897432E+03 -0.74782348699E+03  0.83010107563E+03  0.13635715635E+04  0.15294330000E+03 0.  0.
<mgrwt>
<rscale>  0 0.12108813E+04</rscale>
<asrwt>0</asrwt>
<pdfrwt beam="1">  1        2 0.22892666E+00 0.12572502E+04</pdfrwt>
<pdfrwt beam="2">  1       -2 0.19644861E+00 0.12572502E+04</pdfrwt>
<totfact> 0.17452046E+00</totfact>
</mgrwt>
</event>
<event>
 4    5  0.1112901E-007  0.7003888E+03  0.7818608E-02  0.9995592E-01
         -2   -1    0    0    0  501 -0.00000000000E+00  0.00000000000E+00  0.23807747091E+03  0.23807747093E+03  0.25500000000E-02 0.  1.
          2   -1    0    0  501    0  0.00000000000E+00 -0.00000000000E+00 -0.14730140817E+04  0.14730140818E+04  0.25500000000E-02 0. -1.
    8880023    1    1    2    0    0  0.15130150028E+03  0.18396234004E+03 -0.35195588590E+03  0.78384784137E+03  0.65864270000E+03 0.  1.
    8880022    1    1    2    0    0 -0.15130150028E+03 -0.18396234004E+03 -0.88298072494E+03  0.92724371131E+03  0.15294330000E+03 0.  0.
<mgrwt>
<rscale>  0 0.55843939E+03</rscale>
<asrwt>0</asrwt>
<pdfrwt beam="1">  1        2 0.22661755E+00 0.70038882E+03</pdfrwt>
<pdfrwt beam="2">  1       -2 0.36627304E-01 0.70038882E+03</pdfrwt>
<totfact> 0.94421420E+01</totfact>
</mgrwt>
</event>
<event>
 4    5  0.1112901E-007  0.8858046E+03  0.7818608E-02  0.9549215E-01
          2   -1    0    0  501    0  0.00000000000E+00  0.00000000000E+00  0.31841852857E+04  0.31841852857E+04  0.25500000000E-02 0. -1.
         -2   -1    0    0    0  501 -0.00000000000E+00 -0.00000000000E+00 -0.56263856087E+03  0.56263856087E+03  0.25500000000E-02 0.  1.
    8880023    1    1    2    0    0 -0.18559182242E+02 -0.59202636881E+03 -0.15884059385E+03  0.89993344483E+03  0.65864270000E+03 0.  1.
    8880022    1    1    2    0    0  0.18559182242E+02  0.59202636881E+03  0.27803873187E+04  0.28468904018E+04  0.15294330000E+03 0.  0.
<mgrwt>
<rscale>  0 0.80750642E+03</rscale>
<asrwt>0</asrwt>
<pdfrwt beam="1">  1        2 0.48987466E+00 0.88580465E+03</pdfrwt>
<pdfrwt beam="2">  1       -2 0.86559779E-01 0.88580465E+03</pdfrwt>
<totfact> 0.16051977E+00</totfact>
</mgrwt>
</event>
<event>
 4    5  0.1112901E-007  0.1902294E+04  0.7818608E-02  0.8667967E-01
          2   -1    0    0  501    0  0.00000000000E+00  0.00000000000E+00  0.36548331444E+04  0.36548331444E+04  0.25500000000E-02 0. -1.
         -2   -1    0    0    0  501 -0.00000000000E+00 -0.00000000000E+00 -0.14632179538E+04  0.14632179538E+04  0.25500000000E-02 0.  1.
    8880023    1    1    2    0    0  0.53436418012E+03 -0.17027523898E+04 -0.42298733314E+03  0.19487532599E+04  0.65864270000E+03 0.  0.
    8880022    1    1    2    0    0 -0.53436418012E+03  0.17027523898E+04  0.26146025237E+04  0.31692978383E+04  0.15294330000E+03 0.  0.
<mgrwt>
<rscale>  0 0.18738834E+04</rscale>
<asrwt>0</asrwt>
<pdfrwt beam="1">  1        2 0.56228202E+00 0.19022936E+04</pdfrwt>
<pdfrwt beam="2">  1       -2 0.22511046E+00 0.19022936E+04</pdfrwt>
<totfact> 0.52082925E-02</totfact>
</mgrwt>
</event>
<event>
 4    5  0.1112901E-007  0.1125674E+04  0.7818608E-02  0.9232996E-01
         -2   -1    0    0    0  501 -0.00000000000E+00  0.00000000000E+00  0.66379197190E+03  0.66379197190E+03  0.25500000000E-02 0.  1.
          2   -1    0    0  501    0  0.00000000000E+00 -0.00000000000E+00 -0.16658373940E+04  0.16658373940E+04  0.25500000000E-02 0. -1.
    8880023    1    1    2    0    0  0.66617187155E+03 -0.62413616376E+03 -0.80338650298E+03  0.13829573359E+04  0.65864270000E+03 0. -1.
    8880022    1    1    2    0    0 -0.66617187155E+03  0.62413616376E+03 -0.19865891915E+03  0.94667203008E+03  0.15294330000E+03 0.  1.
<mgrwt>
<rscale>  0 0.10719250E+04</rscale>
<asrwt>0</asrwt>
<pdfrwt beam="1">  1        2 0.25628268E+00 0.11256736E+04</pdfrwt>
<pdfrwt beam="2">  1       -2 0.10212184E+00 0.11256736E+04</pdfrwt>
<totfact> 0.79222744E+00</totfact>
</mgrwt>
</event>
<event>
 4    5  0.1112901E-007  0.8094209E+03  0.7818608E-02  0.9690784E-01
         -2   -1    0    0    0  501 -0.00000000000E+00  0.00000000000E+00  0.68241582935E+03  0.68241582935E+03  0.25500000000E-02 0.  1.
          2   -1    0    0  501    0  0.00000000000E+00 -0.00000000000E+00 -0.26210777697E+04  0.26210777697E+04  0.25500000000E-02 0. -1.
    8880023    1    1    2    0    0 -0.40857236876E+03 -0.23328219792E+03  0.40717057013E+03  0.90606293590E+03  0.65864270000E+03 0.  0.
    8880022    1    1    2    0    0  0.40857236876E+03  0.23328219792E+03 -0.23458325105E+04  0.23974306632E+04  0.15294330000E+03 0.  0.
<mgrwt>
<rscale>  0 0.71568139E+03</rscale>
<asrwt>0</asrwt>
<pdfrwt beam="1">  1        2 0.40324273E+00 0.80942089E+03</pdfrwt>
<pdfrwt beam="2">  1       -2 0.10498705E+00 0.80942089E+03</pdfrwt>
<totfact> 0.22672634E+00</totfact>
</mgrwt>
</event>
<event>
 4    5  0.1112901E-007  0.7238916E+03  0.7818608E-02  0.9909631E-01
         -2   -1    0    0    0  501 -0.00000000000E+00  0.00000000000E+00  0.27267905997E+03  0.27267905998E+03  0.25500000000E-02 0.  1.
          2   -1    0    0  501    0  0.00000000000E+00 -0.00000000000E+00 -0.25012354742E+04  0.25012354742E+04  0.25500000000E-02 0. -1.
    8880023    1    1    2    0    0  0.12257860302E+03  0.27419583059E+03 -0.24847007423E+03  0.76534727509E+03  0.65864270000E+03 0.  1.
    8880022    1    1    2    0    0 -0.12257860302E+03 -0.27419583059E+03 -0.19800863400E+04  0.20085672591E+04  0.15294330000E+03 0.  0.
<mgrwt>
<rscale>  0 0.59796767E+03</rscale>
<asrwt>0</asrwt>
<pdfrwt beam="1">  1        2 0.38480544E+00 0.72389162E+03</pdfrwt>
<pdfrwt beam="2">  1       -2 0.41950626E-01 0.72389162E+03</pdfrwt>
<totfact> 0.19652751E+01</totfact>
</mgrwt>
</event>
<event>
 4    5  0.1112901E-007  0.7807270E+03  0.7818608E-02  0.9754132E-01
          2   -1    0    0  501    0  0.00000000000E+00  0.00000000000E+00  0.21138467258E+04  0.21138467258E+04  0.25500000000E-02 0. -1.
         -2   -1    0    0    0  501 -0.00000000000E+00 -0.00000000000E+00 -0.38386182765E+03  0.38386182766E+03  0.25500000000E-02 0.  1.
    8880023    1    1    2    0    0 -0.13457626306E+03 -0.39700597375E+03  0.75803725640E+02  0.78439844776E+03  0.65864270000E+03 0.  1.
    8880022    1    1    2    0    0  0.13457626306E+03  0.39700597375E+03  0.16541811725E+04  0.17133101057E+04  0.15294330000E+03 0.  0.
<mgrwt>
<rscale>  0 0.67883267E+03</rscale>
<asrwt>0</asrwt>
<pdfrwt beam="1">  1        2 0.32520719E+00 0.78072705E+03</pdfrwt>
<pdfrwt beam="2">  1       -2 0.59055666E-01 0.78072705E+03</pdfrwt>
<totfact> 0.15964634E+01</totfact>
</mgrwt>
</event>
<event>
 4    5  0.1112901E-007  0.7156702E+03  0.7818608E-02  0.9937518E-01
          2   -1    0    0  501    0  0.00000000000E+00  0.00000000000E+00  0.22425841205E+04  0.22425841205E+04  0.25500000000E-02 0. -1.
         -2   -1    0    0    0  501 -0.00000000000E+00 -0.00000000000E+00 -0.42156543549E+03  0.42156543550E+03  0.25500000000E-02 0.  1.
    8880023    1    1    2    0    0  0.27939177749E+03  0.17716508729E+02 -0.94828251860E+02  0.72192537261E+03  0.65864270000E+03 0.  1.
    8880022    1    1    2    0    0 -0.27939177749E+03 -0.17716508729E+02  0.19158469369E+04  0.19422241834E+04  0.15294330000E+03 0.  0.
<mgrwt>
<rscale>  0 0.58476944E+03</rscale>
<asrwt>0</asrwt>
<pdfrwt beam="1">  1        2 0.34501294E+00 0.71567021E+03</pdfrwt>
<pdfrwt beam="2">  1       -2 0.64856221E-01 0.71567021E+03</pdfrwt>
<totfact> 0.11222019E+01</totfact>
</mgrwt>
</event>
<event>
 4    5  0.1112901E-007  0.1002497E+04  0.7818608E-02  0.9378299E-01
         -2   -1    0    0    0  501 -0.00000000000E+00  0.00000000000E+00  0.28053236483E+04  0.28053236483E+04  0.25500000000E-02 0.  1.
          2   -1    0    0  501    0  0.00000000000E+00 -0.00000000000E+00 -0.71566573842E+03  0.71566573843E+03  0.25500000000E-02 0. -1.
    8880023    1    1    2    0    0 -0.26118878573E+03  0.70920345217E+03  0.24667154411E+04  0.26626461259E+04  0.65864270000E+03 0.  0.
    8880022    1    1    2    0    0  0.26118878573E+03 -0.70920345217E+03 -0.37705753127E+03  0.85834326074E+03  0.15294330000E+03 0.  0.
<mgrwt>
<rscale>  0 0.93883338E+03</rscale>
<asrwt>0</asrwt>
<pdfrwt beam="1">  1        2 0.11010242E+00 0.10024965E+04</pdfrwt>
<pdfrwt beam="2">  1       -2 0.43158826E+00 0.10024965E+04</pdfrwt>
<totfact> 0.18654077E-01</totfact>
</mgrwt>
</event>
<event>
 4    5  0.1112901E-007  0.8833426E+03  0.7818608E-02  0.9553319E-01
          2   -1    0    0  501    0  0.00000000000E+00  0.00000000000E+00  0.23797993327E+04  0.23797993327E+04  0.25500000000E-02 0. -1.
         -2   -1    0    0    0  501 -0.00000000000E+00 -0.00000000000E+00 -0.34777413742E+03  0.34777413743E+03  0.25500000000E-02 0.  1.
    8880023    1    1    2    0    0  0.24446510425E+03  0.53546318083E+03  0.36987755657E+03  0.95765527114E+03  0.65864270000E+03 0.  1.
    8880022    1    1    2    0    0 -0.24446510425E+03 -0.53546318083E+03  0.16621476387E+04  0.17699181990E+04  0.15294330000E+03 0.  0.
<mgrwt>
<rscale>  0 0.80464416E+03</rscale>
<asrwt>0</asrwt>
<pdfrwt beam="1">  1        2 0.36612297E+00 0.88334264E+03</pdfrwt>
<pdfrwt beam="2">  1       -2 0.53503713E-01 0.88334264E+03</pdfrwt>
<totfact> 0.13770056E+01</totfact>
</mgrwt>
</event>
<event>
 4    5  0.1112901E-007  0.8832919E+03  0.7818608E-02  0.9553404E-01
          2   -1    0    0  501    0  0.00000000000E+00  0.00000000000E+00  0.58465864855E+03  0.58465864856E+03  0.25500000000E-02 0. -1.
         -2   -1    0    0    0  501 -0.00000000000E+00 -0.00000000000E+00 -0.14127969829E+04  0.14127969829E+04  0.25500000000E-02 0.  1.
    8880023    1    1    2    0    0 -0.49832674451E+02 -0.58643936916E+03 -0.10298632095E+04  0.13567692750E+04  0.65864270000E+03 0.  1.
    8880022    1    1    2    0    0  0.49832674451E+02  0.58643936916E+03  0.20172487508E+03  0.64068635648E+03  0.15294330000E+03 0.  0.
<mgrwt>
<rscale>  0 0.80458516E+03</rscale>
<asrwt>0</asrwt>
<pdfrwt beam="1">  1        2 0.89947485E-01 0.88329193E+03</pdfrwt>
<pdfrwt beam="2">  1       -2 0.21735338E+00 0.88329193E+03</pdfrwt>
<totfact> 0.52960861E+00</totfact>
</mgrwt>
</event>
<event>
 4    5  0.1112901E-007  0.6631923E+03  0.7818608E-02  0.1021101E+00
         -2   -1    0    0    0  501 -0.00000000000E+00  0.00000000000E+00  0.19077075614E+03  0.19077075616E+03  0.25500000000E-02 0.  1.
          2   -1    0    0  501    0  0.00000000000E+00 -0.00000000000E+00 -0.18813095858E+04  0.18813095858E+04  0.25500000000E-02 0. -1.
    8880023    1    1    2    0    0  0.54766588438E+02 -0.54904008469E+02 -0.40910674665E+03  0.77922549097E+03  0.65864270000E+03 0.  1.
    8880022    1    1    2    0    0 -0.54766588438E+02  0.54904008469E+02 -0.12814320830E+04  0.12928548510E+04  0.15294330000E+03 0.  0.
<mgrwt>
<rscale>  0 0.47291506E+03</rscale>
<asrwt>0</asrwt>
<pdfrwt beam="1">  1        2 0.28943223E+00 0.66319231E+03</pdfrwt>
<pdfrwt beam="2">  1       -2 0.29349348E-01 0.66319231E+03</pdfrwt>
<totfact> 0.85943259E+01</totfact>
</mgrwt>
</event>
<event>
 4    5  0.1112901E-007  0.7154731E+03  0.7818608E-02  0.9938212E-01
          2   -1    0    0  501    0  0.00000000000E+00  0.00000000000E+00  0.72239658055E+03  0.72239658055E+03  0.25500000000E-02 0. -1.
         -2   -1    0    0    0  501 -0.00000000000E+00 -0.00000000000E+00 -0.84801888438E+03  0.84801888439E+03  0.25500000000E-02 0.  1.
    8880023    1    1    2    0    0  0.21946629271E+03  0.17299146677E+03 -0.64357637468E+03  0.96233687320E+03  0.65864270000E+03 0.  0.
    8880022    1    1    2    0    0 -0.21946629271E+03 -0.17299146677E+03  0.51795407084E+03  0.60807859174E+03  0.15294330000E+03 0.  0.
<mgrwt>
<rscale>  0 0.58444576E+03</rscale>
<asrwt>0</asrwt>
<pdfrwt beam="1">  1        2 0.11113794E+00 0.71547307E+03</pdfrwt>
<pdfrwt beam="2">  1       -2 0.13046444E+00 0.71547307E+03</pdfrwt>
<totfact> 0.17242572E+01</totfact>
</mgrwt>
</event>
<event>
 4    5  0.1112901E-007  0.1772802E+04  0.7818608E-02  0.8737732E-01
         -2   -1    0    0    0  501 -0.00000000000E+00  0.00000000000E+00  0.15289390370E+04  0.15289390370E+04  0.25500000000E-02 0.  1.
          2   -1    0    0  501    0  0.00000000000E+00 -0.00000000000E+00 -0.23804292885E+04  0.23804292885E+04  0.25500000000E-02 0. -1.
    8880023    1    1    2    0    0  0.55058789993E+03 -0.15510871312E+04  0.42243019898E+03  0.18224367762E+04  0.65864270000E+03 0.  1.
    8880022    1    1    2    0    0 -0.55058789993E+03  0.15510871312E+04 -0.12739204505E+04  0.20869315493E+04  0.15294330000E+03 0.  0.
<mgrwt>
<rscale>  0 0.17420615E+04</rscale>
<asrwt>0</asrwt>
<pdfrwt beam="1">  1        2 0.36621989E+00 0.17728025E+04</pdfrwt>
<pdfrwt beam="2">  1       -2 0.23522139E+00 0.17728025E+04</pdfrwt>
<totfact> 0.29476349E-01</totfact>
</mgrwt>
</event>
<event>
 4    5  0.1112901E-007  0.1047871E+04  0.7818608E-02  0.9321445E-01
         -2   -1    0    0    0  501 -0.00000000000E+00  0.00000000000E+00  0.10795240117E+04  0.10795240117E+04  0.25500000000E-02 0.  1.
          2   -1    0    0  501    0  0.00000000000E+00 -0.00000000000E+00 -0.92773211274E+03  0.92773211274E+03  0.25500000000E-02 0. -1.
    8880023    1    1    2    0    0  0.71861239523E+03 -0.38447447449E+03  0.42991009507E+03  0.11326329027E+04  0.65864270000E+03 0.  0.
    8880022    1    1    2    0    0 -0.71861239523E+03  0.38447447449E+03 -0.27811819607E+03  0.87462322180E+03  0.15294330000E+03 0.  0.
<mgrwt>
<rscale>  0 0.98832382E+03</rscale>
<asrwt>0</asrwt>
<pdfrwt beam="1">  1        2 0.14272802E+00 0.10478715E+04</pdfrwt>
<pdfrwt beam="2">  1       -2 0.16608062E+00 0.10478715E+04</pdfrwt>
<totfact> 0.63032606E+00</totfact>
</mgrwt>
</event>
<event>
 4    5  0.1112901E-007  0.6695138E+03  0.7818608E-02  0.1016014E+00
          2   -1    0    0  501    0  0.00000000000E+00  0.00000000000E+00  0.86224481588E+03  0.86224481588E+03  0.25500000000E-02 0. -1.
         -2   -1    0    0    0  501 -0.00000000000E+00 -0.00000000000E+00 -0.25987766312E+03  0.25987766313E+03  0.25500000000E-02 0.  1.
    8880023    1    1    2    0    0 -0.33876511292E+02 -0.11528607624E+03  0.24068945095E+03  0.71146336199E+03  0.65864270000E+03 0.  1.
    8880022    1    1    2    0    0  0.33876511292E+02  0.11528607624E+03  0.36167770181E+03  0.41065911702E+03  0.15294330000E+03 0.  0.
<mgrwt>
<rscale>  0 0.49152929E+03</rscale>
<asrwt>0</asrwt>
<pdfrwt beam="1">  1        2 0.13265305E+00 0.66951378E+03</pdfrwt>
<pdfrwt beam="2">  1       -2 0.39981179E-01 0.66951378E+03</pdfrwt>
<totfact> 0.18695824E+02</totfact>
</mgrwt>
</event>
<event>
 4    5  0.1112901E-007  0.8080965E+03  0.7818608E-02  0.9693556E-01
         -2   -1    0    0    0  501 -0.00000000000E+00  0.00000000000E+00  0.59060278079E+03  0.59060278079E+03  0.25500000000E-02 0.  1.
          2   -1    0    0  501    0  0.00000000000E+00 -0.00000000000E+00 -0.12369992188E+04  0.12369992188E+04  0.25500000000E-02 0. -1.
    8880023    1    1    2    0    0 -0.27302151287E+03  0.38035380862E+03  0.21421804109E+03  0.83600797940E+03  0.65864270000E+03 0.  1.
    8880022    1    1    2    0    0  0.27302151287E+03 -0.38035380862E+03 -0.86061447908E+03  0.99159402018E+03  0.15294330000E+03 0.  0.
<mgrwt>
<rscale>  0 0.71401789E+03</rscale>
<asrwt>0</asrwt>
<pdfrwt beam="1">  1        2 0.19030757E+00 0.80809651E+03</pdfrwt>
<pdfrwt beam="2">  1       -2 0.90861966E-01 0.80809651E+03</pdfrwt>
<totfact> 0.18857843E+01</totfact>
</mgrwt>
</event>
<event>
 4    5  0.1112901E-007  0.8009046E+03  0.7818608E-02  0.9708843E-01
          2   -1    0    0  501    0  0.00000000000E+00  0.00000000000E+00  0.12646955958E+04  0.12646955958E+04  0.25500000000E-02 0. -1.
         -2   -1    0    0    0  501 -0.00000000000E+00 -0.00000000000E+00 -0.13495789970E+04  0.13495789970E+04  0.25500000000E-02 0.  1.
    8880023    1    1    2    0    0 -0.26432123494E+03  0.37117692113E+03 -0.11755164812E+04  0.14224230122E+04  0.65864270000E+03 0.  1.
    8880022    1    1    2    0    0  0.26432123494E+03 -0.37117692113E+03  0.10906330800E+04  0.11918515806E+04  0.15294330000E+03 0.  0.
<mgrwt>
<rscale>  0 0.70492689E+03</rscale>
<asrwt>0</asrwt>
<pdfrwt beam="1">  1        2 0.19456855E+00 0.80090463E+03</pdfrwt>
<pdfrwt beam="2">  1       -2 0.20762754E+00 0.80090463E+03</pdfrwt>
<totfact> 0.20995906E+00</totfact>
</mgrwt>
</event>
<event>
 4    5  0.1112901E-007  0.1167374E+04  0.7818608E-02  0.9189508E-01
         -2   -1    0    0    0  501 -0.00000000000E+00  0.00000000000E+00  0.76055168624E+03  0.76055168624E+03  0.25500000000E-02 0.  1.
          2   -1    0    0  501    0  0.00000000000E+00 -0.00000000000E+00 -0.26546048478E+04  0.26546048478E+04  0.25500000000E-02 0. -1.
    8880023    1    1    2    0    0  0.52290806384E+03 -0.80964166275E+03  0.12359233820E+03  0.11738985210E+04  0.65864270000E+03 0.  0.
    8880022    1    1    2    0    0 -0.52290806384E+03  0.80964166275E+03 -0.20176454998E+04  0.22412580131E+04  0.15294330000E+03 0.  0.
<mgrwt>
<rscale>  0 0.11162381E+04</rscale>
<asrwt>0</asrwt>
<pdfrwt beam="1">  1        2 0.40840074E+00 0.11673743E+04</pdfrwt>
<pdfrwt beam="2">  1       -2 0.11700795E+00 0.11673743E+04</pdfrwt>
<totfact> 0.15764827E+00</totfact>
</mgrwt>
</event>
<event>
 4    5  0.1112901E-007  0.7000315E+03  0.7818608E-02  0.9997070E-01
         -2   -1    0    0    0  501 -0.00000000000E+00  0.00000000000E+00  0.15144453037E+04  0.15144453037E+04  0.25500000000E-02 0.  1.
          2   -1    0    0  501    0  0.00000000000E+00 -0.00000000000E+00 -0.19670651347E+03  0.19670651349E+03  0.25500000000E-02 0. -1.
    8880023    1    1    2    0    0  0.87973373913E+01 -0.23697374511E+03  0.12306835594E+04  0.14158482188E+04  0.65864270000E+03 0.  0.
    8880022    1    1    2    0    0 -0.87973373913E+01  0.23697374511E+03  0.87055230880E+02  0.29530359844E+03  0.15294330000E+03 0.  0.
<mgrwt>
<rscale>  0 0.55778881E+03</rscale>
<asrwt>0</asrwt>
<pdfrwt beam="1">  1        2 0.30262540E-01 0.70003154E+03</pdfrwt>
<pdfrwt beam="2">  1       -2 0.23299159E+00 0.70003154E+03</pdfrwt>
<totfact> 0.14826235E+01</totfact>
</mgrwt>
</event>
<event>
 4    5  0.1112901E-007  0.1306803E+04  0.7818608E-02  0.9059707E-01
          2   -1    0    0  501    0  0.00000000000E+00  0.00000000000E+00  0.34624006970E+04  0.34624006970E+04  0.25500000000E-02 0. -1.
         -2   -1    0    0    0  501 -0.00000000000E+00 -0.00000000000E+00 -0.48117348695E+03  0.48117348696E+03  0.25500000000E-02 0.  1.
    8880023    1    1    2    0    0 -0.45475503117E+02 -0.11277664196E+04  0.95290935643E+03  0.16173347107E+04  0.65864270000E+03 0.  0.
    8880022    1    1    2    0    0  0.45475503117E+02  0.11277664196E+04  0.20283178536E+04  0.23262394733E+04  0.15294330000E+03 0.  0.
<mgrwt>
<rscale>  0 0.12626659E+04</rscale>
<asrwt>0</asrwt>
<pdfrwt beam="1">  1        2 0.53267705E+00 0.13068035E+04</pdfrwt>
<pdfrwt beam="2">  1       -2 0.74026688E-01 0.13068035E+04</pdfrwt>
<totfact> 0.14044947E+00</totfact>
</mgrwt>
</event>
<event>
 4    5  0.1112901E-007  0.1460763E+04  0.7818608E-02  0.8937851E-01
          2   -1    0    0  501    0  0.00000000000E+00  0.00000000000E+00  0.15729361449E+04  0.15729361449E+04  0.25500000000E-02 0. -1.
         -2   -1    0    0    0  501 -0.00000000000E+00 -0.00000000000E+00 -0.17572269399E+04  0.17572269399E+04  0.25500000000E-02 0.  1.
    8880023    1    1    2    0    0 -0.12444556270E+04  0.38903626526E+03 -0.10130476579E+04  0.17776655441E+04  0.65864270000E+03 0.  0.
    8880022    1    1    2    0    0  0.12444556270E+04 -0.38903626526E+03  0.82875686296E+03  0.15524975408E+04  0.15294330000E+03 0.  0.
<mgrwt>
<rscale>  0 0.14222747E+04</rscale>
<asrwt>0</asrwt>
<pdfrwt beam="1">  1        2 0.24199018E+00 0.14607632E+04</pdfrwt>
<pdfrwt beam="2">  1       -2 0.27034261E+00 0.14607632E+04</pdfrwt>
<totfact> 0.52565619E-01</totfact>
</mgrwt>
</event>
<event>
 4    5  0.1112901E-007  0.8597579E+03  0.7818608E-02  0.9593994E-01
         -2   -1    0    0    0  501 -0.00000000000E+00  0.00000000000E+00  0.61089768202E+03  0.61089768203E+03  0.25500000000E-02 0.  1.
          2   -1    0    0  501    0  0.00000000000E+00 -0.00000000000E+00 -0.30529516784E+04  0.30529516784E+04  0.25500000000E-02 0. -1.
    8880023    1    1    2    0    0  0.21583855793E+03  0.50871135355E+03  0.26269302770E+03  0.89899463702E+03  0.65864270000E+03 0.  1.
    8880022    1    1    2    0    0 -0.21583855793E+03 -0.50871135355E+03 -0.27047470240E+04  0.27648547234E+04  0.15294330000E+03 0.  0.
<mgrwt>
<rscale>  0 0.77694965E+03</rscale>
<asrwt>0</asrwt>
<pdfrwt beam="1">  1        2 0.46968486E+00 0.85975795E+03</pdfrwt>
<pdfrwt beam="2">  1       -2 0.93984261E-01 0.85975795E+03</pdfrwt>
<totfact> 0.16122459E+00</totfact>
</mgrwt>
</event>
<event>
 4    5  0.1112901E-007  0.7001384E+03  0.7818608E-02  0.9996628E-01
         -2   -1    0    0    0  501 -0.00000000000E+00  0.00000000000E+00  0.55357043720E+03  0.55357043720E+03  0.25500000000E-02 0.  1.
          2   -1    0    0  501    0  0.00000000000E+00 -0.00000000000E+00 -0.25491380754E+04  0.25491380754E+04  0.25500000000E-02 0. -1.
    8880023    1    1    2    0    0 -0.16406661535E+03 -0.17165562268E+03  0.32012606875E+03  0.76985350115E+03  0.65864270000E+03 0.  1.
    8880022    1    1    2    0    0  0.16406661535E+03  0.17165562268E+03 -0.23156937070E+04  0.23328550115E+04  0.15294330000E+03 0.  0.
<mgrwt>
<rscale>  0 0.55798351E+03</rscale>
<asrwt>0</asrwt>
<pdfrwt beam="1">  1        2 0.39217508E+00 0.70013835E+03</pdfrwt>
<pdfrwt beam="2">  1       -2 0.85164684E-01 0.70013835E+03</pdfrwt>
<totfact> 0.41508856E+00</totfact>
</mgrwt>
</event>
<event>
 4    5  0.1112901E-007  0.1032518E+04  0.7818608E-02  0.9340198E-01
          2   -1    0    0  501    0  0.00000000000E+00  0.00000000000E+00  0.20743284727E+04  0.20743284727E+04  0.25500000000E-02 0. -1.
         -2   -1    0    0    0  501 -0.00000000000E+00 -0.00000000000E+00 -0.16473475456E+04  0.16473475456E+04  0.25500000000E-02 0.  1.
    8880023    1    1    2    0    0 -0.27354911952E+03  0.74662858914E+03 -0.13905255679E+04  0.17319511922E+04  0.65864270000E+03 0.  1.
    8880022    1    1    2    0    0  0.27354911952E+03 -0.74662858914E+03  0.18175064950E+04  0.19897248260E+04  0.15294330000E+03 0.  0.
<mgrwt>
<rscale>  0 0.97164882E+03</rscale>
<asrwt>0</asrwt>
<pdfrwt beam="1">  1        2 0.31912746E+00 0.10325181E+04</pdfrwt>
<pdfrwt beam="2">  1       -2 0.25343809E+00 0.10325181E+04</pdfrwt>
<totfact> 0.37141286E-01</totfact>
</mgrwt>
</event>
<event>
 4    5  0.1112901E-007  0.6742745E+03  0.7818608E-02  0.1012768E+00
         -2   -1    0    0    0  501 -0.00000000000E+00  0.00000000000E+00  0.43528142780E+03  0.43528142780E+03  0.25500000000E-02 0.  1.
          2   -1    0    0  501    0  0.00000000000E+00 -0.00000000000E+00 -0.12414730803E+04  0.12414730803E+04  0.25500000000E-02 0. -1.
    8880023    1    1    2    0    0  0.21944525800E+01 -0.14432963421E+03  0.15580283949E+03  0.69204088751E+03  0.65864270000E+03 0.  1.
    8880022    1    1    2    0    0 -0.21944525800E+01  0.14432963421E+03 -0.96199449204E+03  0.98471362063E+03  0.15294330000E+03 0.  0.
<mgrwt>
<rscale>  0 0.50389390E+03</rscale>
<asrwt>0</asrwt>
<pdfrwt beam="1">  1        2 0.19099586E+00 0.67427447E+03</pdfrwt>
<pdfrwt beam="2">  1       -2 0.66966374E-01 0.67427447E+03</pdfrwt>
<totfact> 0.37626781E+01</totfact>
</mgrwt>
</event>
<event>
 4    5  0.1112901E-007  0.7197584E+03  0.7818608E-02  0.9923404E-01
         -2   -1    0    0    0  501 -0.00000000000E+00  0.00000000000E+00  0.35529286471E+03  0.35529286472E+03  0.25500000000E-02 0.  1.
          2   -1    0    0  501    0  0.00000000000E+00 -0.00000000000E+00 -0.13352489660E+04  0.13352489660E+04  0.25500000000E-02 0. -1.
    8880023    1    1    2    0    0 -0.27623913237E+03  0.89072218456E+02 -0.69886716531E+02  0.72314333141E+03  0.65864270000E+03 0.  1.
    8880022    1    1    2    0    0  0.27623913237E+03 -0.89072218456E+02 -0.91006938473E+03  0.96739849927E+03  0.15294330000E+03 0.  0.
<mgrwt>
<rscale>  0 0.59140299E+03</rscale>
<asrwt>0</asrwt>
<pdfrwt beam="1">  1        2 0.20542291E+00 0.71975838E+03</pdfrwt>
<pdfrwt beam="2">  1       -2 0.54660442E-01 0.71975838E+03</pdfrwt>
<totfact> 0.50777455E+01</totfact>
</mgrwt>
</event>
<event>
 4    5  0.1112901E-007  0.9499378E+03  0.7818608E-02  0.9450204E-01
         -2   -1    0    0    0  501 -0.00000000000E+00  0.00000000000E+00  0.51927468523E+03  0.51927468524E+03  0.25500000000E-02 0.  1.
          2   -1    0    0  501    0  0.00000000000E+00 -0.00000000000E+00 -0.43664081716E+04  0.43664081716E+04  0.25500000000E-02 0. -1.
    8880023    1    1    2    0    0 -0.25140256299E+03 -0.63668538627E+03  0.25266535468E+02  0.95027371523E+03  0.65864270000E+03 0.  1.
    8880022    1    1    2    0    0  0.25140256299E+03  0.63668538627E+03 -0.38724000218E+04  0.39354091416E+04  0.15294330000E+03 0.  0.
<mgrwt>
<rscale>  0 0.88056808E+03</rscale>
<asrwt>0</asrwt>
<pdfrwt beam="1">  1        2 0.67175508E+00 0.94993775E+03</pdfrwt>
<pdfrwt beam="2">  1       -2 0.79888416E-01 0.94993775E+03</pdfrwt>
<totfact> 0.24700106E-01</totfact>
</mgrwt>
</event>
<event>
 4    5  0.1112901E-007  0.7161126E+03  0.7818608E-02  0.9935966E-01
         -2   -1    0    0    0  501 -0.00000000000E+00  0.00000000000E+00  0.49104924803E+03  0.49104924804E+03  0.25500000000E-02 0.  1.
          2   -1    0    0  501    0  0.00000000000E+00 -0.00000000000E+00 -0.64621328265E+03  0.64621328265E+03  0.25500000000E-02 0. -1.
    8880023    1    1    2    0    0  0.22831475930E+03 -0.16394928189E+03  0.10638933361E+03  0.72397230121E+03  0.65864270000E+03 0.  1.
    8880022    1    1    2    0    0 -0.22831475930E+03  0.16394928189E+03 -0.26155336822E+03  0.41329022949E+03  0.15294330000E+03 0.  0.
<mgrwt>
<rscale>  0 0.58549440E+03</rscale>
<asrwt>0</asrwt>
<pdfrwt beam="1">  1        2 0.99417429E-01 0.71611256E+03</pdfrwt>
<pdfrwt beam="2">  1       -2 0.75546038E-01 0.71611256E+03</pdfrwt>
<totfact> 0.72192443E+01</totfact>
</mgrwt>
</event>
<event>
 4    5  0.1112901E-007  0.8127633E+03  0.7818608E-02  0.9683850E-01
          2   -1    0    0  501    0  0.00000000000E+00  0.00000000000E+00  0.10074078501E+04  0.10074078501E+04  0.25500000000E-02 0. -1.
         -2   -1    0    0    0  501 -0.00000000000E+00 -0.00000000000E+00 -0.81308494857E+03  0.81308494858E+03  0.25500000000E-02 0.  1.
    8880023    1    1    2    0    0 -0.18621411460E+03  0.43829017407E+03 -0.50785985736E+03  0.95838708993E+03  0.65864270000E+03 0.  1.
    8880022    1    1    2    0    0  0.18621411460E+03 -0.43829017407E+03  0.70218275883E+03  0.86210570871E+03  0.15294330000E+03 0.  0.
<mgrwt>
<rscale>  0 0.71986576E+03</rscale>
<asrwt>0</asrwt>
<pdfrwt beam="1">  1        2 0.15498582E+00 0.81276330E+03</pdfrwt>
<pdfrwt beam="2">  1       -2 0.12508999E+00 0.81276330E+03</pdfrwt>
<totfact> 0.12045564E+01</totfact>
</mgrwt>
</event>
<event>
 4    5  0.1112901E-007  0.7469048E+03  0.7818608E-02  0.9840272E-01
          2   -1    0    0  501    0  0.00000000000E+00  0.00000000000E+00  0.84936587721E+03  0.84936587721E+03  0.25500000000E-02 0. -1.
         -2   -1    0    0    0  501 -0.00000000000E+00 -0.00000000000E+00 -0.49340504606E+03  0.49340504607E+03  0.25500000000E-02 0.  1.
    8880023    1    1    2    0    0  0.11942713925E+03 -0.33135134029E+03 -0.92234672045E+02  0.75257823068E+03  0.65864270000E+03 0.  1.
    8880022    1    1    2    0    0 -0.11942713925E+03  0.33135134029E+03  0.44819550319E+03  0.59019269260E+03  0.15294330000E+03 0.  0.
<mgrwt>
<rscale>  0 0.63245389E+03</rscale>
<asrwt>0</asrwt>
<pdfrwt beam="1">  1        2 0.13067167E+00 0.74690479E+03</pdfrwt>
<pdfrwt beam="2">  1       -2 0.75908469E-01 0.74690479E+03</pdfrwt>
<totfact> 0.50100082E+01</totfact>
</mgrwt>
</event>
<event>
 4    5  0.1112901E-007  0.7640554E+03  0.7818608E-02  0.9794719E-01
          2   -1    0    0  501    0  0.00000000000E+00  0.00000000000E+00  0.10911327371E+04  0.10911327371E+04  0.25500000000E-02 0. -1.
         -2   -1    0    0    0  501 -0.00000000000E+00 -0.00000000000E+00 -0.52798239352E+03  0.52798239353E+03  0.25500000000E-02 0.  1.
    8880023    1    1    2    0    0 -0.28280526841E+03 -0.26455943694E+03 -0.16375604013E+03  0.78140691221E+03  0.65864270000E+03 0.  1.
    8880022    1    1    2    0    0  0.28280526841E+03  0.26455943694E+03  0.72690638369E+03  0.83770821840E+03  0.15294330000E+03 0.  0.
<mgrwt>
<rscale>  0 0.65646707E+03</rscale>
<asrwt>0</asrwt>
<pdfrwt beam="1">  1        2 0.16786657E+00 0.76405544E+03</pdfrwt>
<pdfrwt beam="2">  1       -2 0.81228061E-01 0.76405544E+03</pdfrwt>
<totfact> 0.29934190E+01</totfact>
</mgrwt>
</event>
<event>
 4    5  0.1112901E-007  0.1610869E+04  0.7818608E-02  0.8835071E-01
         -2   -1    0    0    0  501 -0.00000000000E+00  0.00000000000E+00  0.25344764453E+04  0.25344764453E+04  0.25500000000E-02 0.  1.
          2   -1    0    0  501    0  0.00000000000E+00 -0.00000000000E+00 -0.18430985289E+04  0.18430985289E+04  0.25500000000E-02 0. -1.
    8880023    1    1    2    0    0  0.75321826852E+03 -0.12624389095E+04  0.18837323591E+04  0.24785777307E+04  0.65864270000E+03 0.  1.
    8880022    1    1    2    0    0 -0.75321826852E+03  0.12624389095E+04 -0.11923544428E+04  0.18989972434E+04  0.15294330000E+03 0.  0.
<mgrwt>
<rscale>  0 0.15765719E+04</rscale>
<asrwt>0</asrwt>
<pdfrwt beam="1">  1        2 0.28355362E+00 0.16108693E+04</pdfrwt>
<pdfrwt beam="2">  1       -2 0.38991945E+00 0.16108693E+04</pdfrwt>
<totfact> 0.65388979E-02</totfact>
</mgrwt>
</event>
<event>
 4    5  0.1112901E-007  0.7581889E+03  0.7818608E-02  0.9809819E-01
          2   -1    0    0  501    0  0.00000000000E+00  0.00000000000E+00  0.10668257334E+04  0.10668257334E+04  0.25500000000E-02 0. -1.
         -2   -1    0    0    0  501 -0.00000000000E+00 -0.00000000000E+00 -0.43174180435E+03  0.43174180436E+03  0.25500000000E-02 0.  1.
    8880023    1    1    2    0    0 -0.37546856164E+03  0.79708048734E+01  0.15822837748E+02  0.75835396944E+03  0.65864270000E+03 0.  1.
    8880022    1    1    2    0    0  0.37546856164E+03 -0.79708048734E+01  0.61926109135E+03  0.74021356836E+03  0.15294330000E+03 0. -1.
<mgrwt>
<rscale>  0 0.64838251E+03</rscale>
<asrwt>0</asrwt>
<pdfrwt beam="1">  1        2 0.16412703E+00 0.75818888E+03</pdfrwt>
<pdfrwt beam="2">  1       -2 0.66421817E-01 0.75818888E+03</pdfrwt>
<totfact> 0.48338952E+01</totfact>
</mgrwt>
</event>
<event>
 4    5  0.1112901E-007  0.6955988E+03  0.7818608E-02  0.1001597E+00
         -2   -1    0    0    0  501 -0.00000000000E+00  0.00000000000E+00  0.37996657684E+03  0.37996657685E+03  0.25500000000E-02 0.  1.
          2   -1    0    0  501    0  0.00000000000E+00 -0.00000000000E+00 -0.28992629784E+04  0.28992629784E+04  0.25500000000E-02 0. -1.
    8880023    1    1    2    0    0 -0.13317652873E+03 -0.17975392455E+03  0.48392084015E+02  0.69728004507E+03  0.65864270000E+03 0.  1.
    8880022    1    1    2    0    0  0.13317652873E+03  0.17975392455E+03 -0.25676884855E+04  0.25819495101E+04  0.15294330000E+03 0.  0.
<mgrwt>
<rscale>  0 0.54955358E+03</rscale>
<asrwt>0</asrwt>
<pdfrwt beam="1">  1        2 0.44604044E+00 0.69559878E+03</pdfrwt>
<pdfrwt beam="2">  1       -2 0.58456398E-01 0.69559878E+03</pdfrwt>
<totfact> 0.59082094E+00</totfact>
</mgrwt>
</event>
<event>
 4    5  0.1112901E-007  0.1702838E+04  0.7818608E-02  0.8778277E-01
          2   -1    0    0  501    0  0.00000000000E+00  0.00000000000E+00  0.14276703916E+04  0.14276703916E+04  0.25500000000E-02 0. -1.
         -2   -1    0    0    0  501 -0.00000000000E+00 -0.00000000000E+00 -0.25216221629E+04  0.25216221629E+04  0.25500000000E-02 0.  1.
    8880023    1    1    2    0    0 -0.48159512464E+03  0.14946276975E+04 -0.15545459983E+04  0.23057036421E+04  0.65864270000E+03 0.  0.
    8880022    1    1    2    0    0  0.48159512464E+03 -0.14946276975E+04  0.46059422697E+03  0.16435889124E+04  0.15294330000E+03 0.  0.
<mgrwt>
<rscale>  0 0.16706606E+04</rscale>
<asrwt>0</asrwt>
<pdfrwt beam="1">  1        2 0.21964160E+00 0.17028376E+04</pdfrwt>
<pdfrwt beam="2">  1       -2 0.38794187E+00 0.17028376E+04</pdfrwt>
<totfact> 0.11444552E-01</totfact>
</mgrwt>
</event>
<event>
 4    5  0.1112901E-007  0.9057254E+03  0.7818608E-02  0.9516902E-01
         -2   -1    0    0    0  501 -0.00000000000E+00  0.00000000000E+00  0.14527361909E+04  0.14527361909E+04  0.25500000000E-02 0.  1.
          2   -1    0    0  501    0  0.00000000000E+00 -0.00000000000E+00 -0.14149958112E+04  0.14149958112E+04  0.25500000000E-02 0. -1.
    8880023    1    1    2    0    0 -0.28318977354E+02  0.62106867675E+03  0.12222505568E+04  0.15212609558E+04  0.65864270000E+03 0.  1.
    8880022    1    1    2    0    0  0.28318977354E+02 -0.62106867675E+03 -0.11845101771E+04  0.13464710463E+04  0.15294330000E+03 0.  0.
<mgrwt>
<rscale>  0 0.83049072E+03</rscale>
<asrwt>0</asrwt>
<pdfrwt beam="1">  1        2 0.21769166E+00 0.90572538E+03</pdfrwt>
<pdfrwt beam="2">  1       -2 0.22349788E+00 0.90572538E+03</pdfrwt>
<totfact> 0.13438163E+00</totfact>
</mgrwt>
</event>
<event>
 4    5  0.1112901E-007  0.7790024E+03  0.7818608E-02  0.9758186E-01
          2   -1    0    0  501    0  0.00000000000E+00  0.00000000000E+00  0.15996653101E+04  0.15996653101E+04  0.25500000000E-02 0. -1.
         -2   -1    0    0    0  501 -0.00000000000E+00 -0.00000000000E+00 -0.54483540144E+03  0.54483540145E+03  0.25500000000E-02 0.  1.
    8880023    1    1    2    0    0  0.34937089755E+03  0.22577535825E+03 -0.20788610841E+03  0.80626383819E+03  0.65864270000E+03 0.  0.
    8880022    1    1    2    0    0 -0.34937089755E+03 -0.22577535825E+03  0.12627160171E+04  0.13382368734E+04  0.15294330000E+03 0. -1.
<mgrwt>
<rscale>  0 0.67655642E+03</rscale>
<asrwt>0</asrwt>
<pdfrwt beam="1">  1        2 0.24610235E+00 0.77900240E+03</pdfrwt>
<pdfrwt beam="2">  1       -2 0.83820831E-01 0.77900240E+03</pdfrwt>
<totfact> 0.14187831E+01</totfact>
</mgrwt>
</event>
<event>
 4    5  0.1112901E-007  0.8141869E+03  0.7818608E-02  0.9680921E-01
          2   -1    0    0  501    0  0.00000000000E+00  0.00000000000E+00  0.16351510153E+04  0.16351510153E+04  0.25500000000E-02 0. -1.
         -2   -1    0    0    0  501 -0.00000000000E+00 -0.00000000000E+00 -0.34082559530E+03  0.34082559531E+03  0.25500000000E-02 0.  1.
    8880023    1    1    2    0    0 -0.49890185574E+02 -0.47602630941E+03  0.31072875756E+03  0.87146580249E+03  0.65864270000E+03 0.  0.
    8880022    1    1    2    0    0  0.49890185574E+02  0.47602630941E+03  0.98359666243E+03  0.11045108081E+04  0.15294330000E+03 0.  0.
<mgrwt>
<rscale>  0 0.72164203E+03</rscale>
<asrwt>0</asrwt>
<pdfrwt beam="1">  1        2 0.25156170E+00 0.81418689E+03</pdfrwt>
<pdfrwt beam="2">  1       -2 0.52434707E-01 0.81418689E+03</pdfrwt>
<totfact> 0.37231330E+01</totfact>
</mgrwt>
</event>
<event>
 4    5  0.1112901E-007  0.8421510E+03  0.7818608E-02  0.9626138E-01
         -2   -1    0    0    0  501 -0.00000000000E+00  0.00000000000E+00  0.27237707958E+03  0.27237707959E+03  0.25500000000E-02 0.  1.
          2   -1    0    0  501    0  0.00000000000E+00 -0.00000000000E+00 -0.17929533318E+04  0.17929533318E+04  0.25500000000E-02 0. -1.
    8880023    1    1    2    0    0 -0.52202738250E+03  0.53809401820E+02 -0.10336046801E+04  0.13332504944E+04  0.65864270000E+03 0.  0.
    8880022    1    1    2    0    0  0.52202738250E+03 -0.53809401820E+02 -0.48697157209E+03  0.73207991698E+03  0.15294330000E+03 0.  0.
<mgrwt>
<rscale>  0 0.75590111E+03</rscale>
<asrwt>0</asrwt>
<pdfrwt beam="1">  1        2 0.27583897E+00 0.84215096E+03</pdfrwt>
<pdfrwt beam="2">  1       -2 0.41904167E-01 0.84215096E+03</pdfrwt>
<totfact> 0.47755819E+01</totfact>
</mgrwt>
</event>
<event>
 4    5  0.1112901E-007  0.8111424E+03  0.7818608E-02  0.9687202E-01
         -2   -1    0    0    0  501 -0.00000000000E+00  0.00000000000E+00  0.66071173562E+03  0.66071173563E+03  0.25500000000E-02 0.  1.
          2   -1    0    0  501    0  0.00000000000E+00 -0.00000000000E+00 -0.75958213323E+03  0.75958213324E+03  0.25500000000E-02 0. -1.
    8880023    1    1    2    0    0 -0.41555040280E+03  0.22684728025E+03  0.20586443352E+03  0.83685852871E+03  0.65864270000E+03 0.  1.
    8880022    1    1    2    0    0  0.41555040280E+03 -0.22684728025E+03 -0.30473483113E+03  0.58343534016E+03  0.15294330000E+03 0. -1.
<mgrwt>
<rscale>  0 0.71783905E+03</rscale>
<asrwt>0</asrwt>
<pdfrwt beam="1">  1        2 0.11685879E+00 0.81114242E+03</pdfrwt>
<pdfrwt beam="2">  1       -2 0.10164796E+00 0.81114242E+03</pdfrwt>
<totfact> 0.29557138E+01</totfact>
</mgrwt>
</event>
<event>
 4    5  0.1112901E-007  0.6963840E+03  0.7818608E-02  0.1001255E+00
         -2   -1    0    0    0  501 -0.00000000000E+00  0.00000000000E+00  0.12546643066E+03  0.12546643068E+03  0.25500000000E-02 0.  1.
          2   -1    0    0  501    0  0.00000000000E+00 -0.00000000000E+00 -0.23726636827E+04  0.23726636827E+04  0.25500000000E-02 0. -1.
    8880023    1    1    2    0    0 -0.18634869763E+03  0.12811940011E+03 -0.98227808625E+03  0.12040850729E+04  0.65864270000E+03 0.  1.
    8880022    1    1    2    0    0  0.18634869763E+03 -0.12811940011E+03 -0.12649191657E+04  0.12940450404E+04  0.15294330000E+03 0. -1.
<mgrwt>
<rscale>  0 0.55103536E+03</rscale>
<asrwt>0</asrwt>
<pdfrwt beam="1">  1        2 0.36502515E+00 0.69638396E+03</pdfrwt>
<pdfrwt beam="2">  1       -2 0.19302529E-01 0.69638396E+03</pdfrwt>
<totfact> 0.97482795E+01</totfact>
</mgrwt>
</event>
<event>
 4    5  0.1112901E-007  0.9065703E+03  0.7818608E-02  0.9515565E-01
          2   -1    0    0  501    0  0.00000000000E+00  0.00000000000E+00  0.10264887155E+04  0.10264887155E+04  0.25500000000E-02 0. -1.
         -2   -1    0    0    0  501 -0.00000000000E+00 -0.00000000000E+00 -0.99233991126E+03  0.99233991126E+03  0.25500000000E-02 0.  1.
    8880023    1    1    2    0    0  0.59639478091E+03  0.17992450000E+03 -0.62340385361E+03  0.11002282179E+04  0.65864270000E+03 0.  1.
    8880022    1    1    2    0    0 -0.59639478091E+03 -0.17992450000E+03  0.65755265786E+03  0.91860040892E+03  0.15294330000E+03 0.  0.
<mgrwt>
<rscale>  0 0.83145916E+03</rscale>
<asrwt>0</asrwt>
<pdfrwt beam="1">  1        2 0.15792134E+00 0.90657033E+03</pdfrwt>
<pdfrwt beam="2">  1       -2 0.15266768E+00 0.90657033E+03</pdfrwt>
<totfact> 0.69293865E+00</totfact>
</mgrwt>
</event>
<event>
 4    5  0.1112901E-007  0.7267059E+03  0.7818608E-02  0.9900516E-01
         -2   -1    0    0    0  501 -0.00000000000E+00  0.00000000000E+00  0.17575401589E+04  0.17575401589E+04  0.25500000000E-02 0.  1.
          2   -1    0    0  501    0  0.00000000000E+00 -0.00000000000E+00 -0.17722812307E+03  0.17722812308E+03  0.25500000000E-02 0. -1.
    8880023    1    1    2    0    0 -0.19318126713E+03 -0.23868873236E+03  0.13098089661E+04  0.14978988774E+04  0.65864270000E+03 0.  1.
    8880022    1    1    2    0    0  0.19318126713E+03  0.23868873236E+03  0.27050306972E+03  0.43686940459E+03  0.15294330000E+03 0.  0.
<mgrwt>
<rscale>  0 0.60236292E+03</rscale>
<asrwt>0</asrwt>
<pdfrwt beam="1">  1        2 0.27265865E-01 0.72670594E+03</pdfrwt>
<pdfrwt beam="2">  1       -2 0.27039079E+00 0.72670594E+03</pdfrwt>
<totfact> 0.98840240E+00</totfact>
</mgrwt>
</event>
<event>
 4    5  0.1112901E-007  0.7709832E+03  0.7818608E-02  0.9777460E-01
         -2   -1    0    0    0  501 -0.00000000000E+00  0.00000000000E+00  0.66490108484E+03  0.66490108484E+03  0.25500000000E-02 0.  1.
          2   -1    0    0  501    0  0.00000000000E+00 -0.00000000000E+00 -0.66878026481E+03  0.66878026482E+03  0.25500000000E-02 0. -1.
    8880023    1    1    2    0    0  0.26511023636E+03 -0.30053540123E+03  0.27893597137E+03  0.81989050928E+03  0.65864270000E+03 0.  1.
    8880022    1    1    2    0    0 -0.26511023636E+03  0.30053540123E+03 -0.28281515135E+03  0.51379084038E+03  0.15294330000E+03 0.  0.
<mgrwt>
<rscale>  0 0.66586308E+03</rscale>
<asrwt>0</asrwt>
<pdfrwt beam="1">  1        2 0.10288927E+00 0.77098325E+03</pdfrwt>
<pdfrwt beam="2">  1       -2 0.10229247E+00 0.77098325E+03</pdfrwt>
<totfact> 0.34346526E+01</totfact>
</mgrwt>
</event>
<event>
 4    5  0.1112901E-007  0.8227219E+03  0.7818608E-02  0.9663663E-01
          2   -1    0    0  501    0  0.00000000000E+00  0.00000000000E+00  0.19660570509E+04  0.19660570509E+04  0.25500000000E-02 0. -1.
         -2   -1    0    0    0  501 -0.00000000000E+00 -0.00000000000E+00 -0.26725803893E+03  0.26725803894E+03  0.25500000000E-02 0.  1.
    8880023    1    1    2    0    0 -0.42219779463E+03 -0.25457832117E+03  0.59672182724E+03  0.10163406145E+04  0.65864270000E+03 0.  0.
    8880022    1    1    2    0    0  0.42219779463E+03  0.25457832117E+03  0.11020771847E+04  0.12169744753E+04  0.15294330000E+03 0.  0.
<mgrwt>
<rscale>  0 0.73222123E+03</rscale>
<asrwt>0</asrwt>
<pdfrwt beam="1">  1        2 0.30247031E+00 0.82272189E+03</pdfrwt>
<pdfrwt beam="2">  1       -2 0.41116623E-01 0.82272189E+03</pdfrwt>
<totfact> 0.39944711E+01</totfact>
</mgrwt>
</event>
<event>
 4    5  0.1224338E-007  0.1524988E+04  0.7818608E-02  0.8892190E-01
          2   -1    0    0  501    0  0.00000000000E+00  0.00000000000E+00  0.24693622438E+04  0.24693622438E+04  0.25500000000E-02 0. -1.
         -2   -1    0    0    0  501 -0.00000000000E+00 -0.00000000000E+00 -0.18439317873E+04  0.18439317873E+04  0.25500000000E-02 0.  1.
    8880023    1    1    2    0    0  0.63335102619E+03  0.12209193432E+04 -0.12574415293E+04  0.19765492584E+04  0.65864270000E+03 0.  0.
    8880022    1    1    2    0    0 -0.63335102619E+03 -0.12209193432E+04  0.18828719858E+04  0.23367447727E+04  0.15294330000E+03 0.  0.
<mgrwt>
<rscale>  0 0.14884206E+04</rscale>
<asrwt>0</asrwt>
<pdfrwt beam="1">  1        2 0.37990188E+00 0.15249878E+04</pdfrwt>
<pdfrwt beam="2">  1       -2 0.28368181E+00 0.15249878E+04</pdfrwt>
<totfact> 0.13556250E-01</totfact>
</mgrwt>
</event>
<event>
 4    5  0.1112901E-007  0.7062727E+03  0.7818608E-02  0.9972111E-01
         -2   -1    0    0    0  501 -0.00000000000E+00  0.00000000000E+00  0.36200836946E+03  0.36200836947E+03  0.25500000000E-02 0.  1.
          2   -1    0    0  501    0  0.00000000000E+00 -0.00000000000E+00 -0.13540368032E+04  0.13540368032E+04  0.25500000000E-02 0. -1.
    8880023    1    1    2    0    0  0.69027391609E+01 -0.25487887261E+03 -0.27585215924E+02  0.70681117557E+03  0.65864270000E+03 0.  1.
    8880022    1    1    2    0    0 -0.69027391609E+01  0.25487887261E+03 -0.96444321785E+03  0.10092339971E+04  0.15294330000E+03 0.  0.
<mgrwt>
<rscale>  0 0.56890192E+03</rscale>
<asrwt>0</asrwt>
<pdfrwt beam="1">  1        2 0.20831335E+00 0.70627268E+03</pdfrwt>
<pdfrwt beam="2">  1       -2 0.55693596E-01 0.70627268E+03</pdfrwt>
<totfact> 0.47720029E+01</totfact>
</mgrwt>
</event>
<event>
 4    5  0.1112901E-007  0.1034563E+04  0.7818608E-02  0.9337673E-01
          2   -1    0    0  501    0  0.00000000000E+00  0.00000000000E+00  0.95027898598E+03  0.95027898599E+03  0.25500000000E-02 0. -1.
         -2   -1    0    0    0  501 -0.00000000000E+00 -0.00000000000E+00 -0.10363934324E+04  0.10363934324E+04  0.25500000000E-02 0.  1.
    8880023    1    1    2    0    0  0.47094605865E+03  0.64398825987E+03  0.31396214271E+03  0.10811537829E+04  0.65864270000E+03 0.  0.
    8880022    1    1    2    0    0 -0.47094605865E+03 -0.64398825987E+03 -0.40007658914E+03  0.90551863548E+03  0.15294330000E+03 0.  0.
<mgrwt>
<rscale>  0 0.97387406E+03</rscale>
<asrwt>0</asrwt>
<pdfrwt beam="1">  1        2 0.14619677E+00 0.10345633E+04</pdfrwt>
<pdfrwt beam="2">  1       -2 0.15944514E+00 0.10345633E+04</pdfrwt>
<totfact> 0.68186401E+00</totfact>
</mgrwt>
</event>
<event>
 4    5  0.1112901E-007  0.7380095E+03  0.7818608E-02  0.9865784E-01
          2   -1    0    0  501    0  0.00000000000E+00  0.00000000000E+00  0.18043912741E+04  0.18043912741E+04  0.25500000000E-02 0. -1.
         -2   -1    0    0    0  501 -0.00000000000E+00 -0.00000000000E+00 -0.46798083777E+03  0.46798083778E+03  0.25500000000E-02 0.  1.
    8880023    1    1    2    0    0 -0.31896358152E+03  0.95446567395E+02 -0.14000718174E+03  0.75117243744E+03  0.65864270000E+03 0.  1.
    8880022    1    1    2    0    0  0.31896358152E+03 -0.95446567395E+02  0.14764176180E+04  0.15211996744E+04  0.15294330000E+03 0.  0.
<mgrwt>
<rscale>  0 0.61948599E+03</rscale>
<asrwt>0</asrwt>
<pdfrwt beam="1">  1        2 0.27759866E+00 0.73800950E+03</pdfrwt>
<pdfrwt beam="2">  1       -2 0.71997053E-01 0.73800950E+03</pdfrwt>
<totfact> 0.15476488E+01</totfact>
</mgrwt>
</event>
<event>
 4    5  0.1112901E-007  0.9291681E+03  0.7818608E-02  0.9480742E-01
          2   -1    0    0  501    0  0.00000000000E+00  0.00000000000E+00  0.27501077027E+04  0.27501077027E+04  0.25500000000E-02 0. -1.
         -2   -1    0    0    0  501 -0.00000000000E+00 -0.00000000000E+00 -0.42144240796E+03  0.42144240797E+03  0.25500000000E-02 0.  1.
    8880023    1    1    2    0    0 -0.30197242230E+03  0.58168366230E+03  0.21553865771E+03  0.95383979056E+03  0.65864270000E+03 0.  0.
    8880022    1    1    2    0    0  0.30197242230E+03 -0.58168366230E+03  0.21131266371E+04  0.22177103202E+04  0.15294330000E+03 0.  0.
<mgrwt>
<rscale>  0 0.85718626E+03</rscale>
<asrwt>0</asrwt>
<pdfrwt beam="1">  1        2 0.42309348E+00 0.92916814E+03</pdfrwt>
<pdfrwt beam="2">  1       -2 0.64837295E-01 0.92916814E+03</pdfrwt>
<totfact> 0.55857290E+00</totfact>
</mgrwt>
</event>
<event>
 4    5  0.1112901E-007  0.7362018E+03  0.7818608E-02  0.9871152E-01
          2   -1    0    0  501    0  0.00000000000E+00  0.00000000000E+00  0.14872335655E+04  0.14872335655E+04  0.25500000000E-02 0. -1.
         -2   -1    0    0    0  501 -0.00000000000E+00 -0.00000000000E+00 -0.54938269439E+03  0.54938269440E+03  0.25500000000E-02 0.  1.
    8880023    1    1    2    0    0  0.11261906422E+03  0.30903050895E+03 -0.26331579997E+03  0.78187487865E+03  0.65864270000E+03 0.  1.
    8880022    1    1    2    0    0 -0.11261906422E+03 -0.30903050895E+03  0.12011666711E+04  0.12547413812E+04  0.15294330000E+03 0.  0.
<mgrwt>
<rscale>  0 0.61679970E+03</rscale>
<asrwt>0</asrwt>
<pdfrwt beam="1">  1        2 0.22880516E+00 0.73620182E+03</pdfrwt>
<pdfrwt beam="2">  1       -2 0.84520417E-01 0.73620182E+03</pdfrwt>
<totfact> 0.16159090E+01</totfact>
</mgrwt>
</event>
<event>
 4    5  0.1112901E-007  0.1121106E+04  0.7818608E-02  0.9237913E-01
          2   -1    0    0  501    0  0.00000000000E+00  0.00000000000E+00  0.20937631770E+04  0.20937631770E+04  0.25500000000E-02 0. -1.
         -2   -1    0    0    0  501 -0.00000000000E+00 -0.00000000000E+00 -0.56635419205E+03  0.56635419206E+03  0.25500000000E-02 0.  1.
    8880023    1    1    2    0    0 -0.77304936685E+02 -0.90393177457E+03  0.36787129050E+03  0.11799187256E+04  0.65864270000E+03 0.  0.
    8880022    1    1    2    0    0  0.77304936685E+02  0.90393177457E+03  0.11595376945E+04  0.14801986435E+04  0.15294330000E+03 0.  0.
<mgrwt>
<rscale>  0 0.10670527E+04</rscale>
<asrwt>0</asrwt>
<pdfrwt beam="1">  1        2 0.32211741E+00 0.11211061E+04</pdfrwt>
<pdfrwt beam="2">  1       -2 0.87131414E-01 0.11211061E+04</pdfrwt>
<totfact> 0.66721247E+00</totfact>
</mgrwt>
</event>
<event>
 4    5  0.1112901E-007  0.8120371E+03  0.7818608E-02  0.9685349E-01
          2   -1    0    0  501    0  0.00000000000E+00  0.00000000000E+00  0.91320554723E+03  0.91320554723E+03  0.25500000000E-02 0. -1.
         -2   -1    0    0    0  501 -0.00000000000E+00 -0.00000000000E+00 -0.15010739804E+04  0.15010739804E+04  0.25500000000E-02 0.  1.
    8880023    1    1    2    0    0  0.76557572769E+02  0.46875691051E+03 -0.13071612897E+04  0.15388550765E+04  0.65864270000E+03 0.  0.
    8880022    1    1    2    0    0 -0.76557572769E+02 -0.46875691051E+03  0.71929285652E+03  0.87542445108E+03  0.15294330000E+03 0.  0.
<mgrwt>
<rscale>  0 0.71895835E+03</rscale>
<asrwt>0</asrwt>
<pdfrwt beam="1">  1        2 0.14049316E+00 0.81203714E+03</pdfrwt>
<pdfrwt beam="2">  1       -2 0.23093446E+00 0.81203714E+03</pdfrwt>
<totfact> 0.24698716E+00</totfact>
</mgrwt>
</event>
<event>
 4    5  0.1112901E-007  0.6799860E+03  0.7818608E-02  0.1009332E+00
         -2   -1    0    0    0  501 -0.00000000000E+00  0.00000000000E+00  0.23883725874E+03  0.23883725876E+03  0.25500000000E-02 0.  1.
          2   -1    0    0  501    0  0.00000000000E+00 -0.00000000000E+00 -0.46000551675E+04  0.46000551675E+04  0.25500000000E-02 0. -1.
    8880023    1    1    2    0    0 -0.31574793369E+02 -0.16605338571E+03 -0.25480702725E+03  0.72615943283E+03  0.65864270000E+03 0.  1.
    8880022    1    1    2    0    0  0.31574793369E+02  0.16605338571E+03 -0.41064108815E+04  0.41127329934E+04  0.15294330000E+03 0.  0.
<mgrwt>
<rscale>  0 0.51741147E+03</rscale>
<asrwt>0</asrwt>
<pdfrwt beam="1">  1        2 0.70770073E+00 0.67998596E+03</pdfrwt>
<pdfrwt beam="2">  1       -2 0.36744197E-01 0.67998596E+03</pdfrwt>
<totfact> 0.79703886E-01</totfact>
</mgrwt>
</event>
<event>
 4    5  0.1112901E-007  0.9200143E+03  0.7818608E-02  0.9494637E-01
          2   -1    0    0  501    0  0.00000000000E+00  0.00000000000E+00  0.11700938745E+04  0.11700938745E+04  0.25500000000E-02 0. -1.
         -2   -1    0    0    0  501 -0.00000000000E+00 -0.00000000000E+00 -0.97122803205E+03  0.97122803205E+03  0.25500000000E-02 0.  1.
    8880023    1    1    2    0    0 -0.36502132229E+03  0.52855990273E+03 -0.60493640433E+03  0.11010787420E+04  0.65864270000E+03 0.  0.
    8880022    1    1    2    0    0  0.36502132229E+03 -0.52855990273E+03  0.80380224678E+03  0.10402431646E+04  0.15294330000E+03 0.  0.
<mgrwt>
<rscale>  0 0.84680365E+03</rscale>
<asrwt>0</asrwt>
<pdfrwt beam="1">  1        2 0.18001444E+00 0.92001432E+03</pdfrwt>
<pdfrwt beam="2">  1       -2 0.14941970E+00 0.92001432E+03</pdfrwt>
<totfact> 0.59745749E+00</totfact>
</mgrwt>
</event>
<event>
 4    5  0.1112901E-007  0.8492685E+03  0.7818608E-02  0.9612945E-01
         -2   -1    0    0    0  501 -0.00000000000E+00  0.00000000000E+00  0.67871123604E+03  0.67871123604E+03  0.25500000000E-02 0.  1.
          2   -1    0    0  501    0  0.00000000000E+00 -0.00000000000E+00 -0.25258353353E+04  0.25258353353E+04  0.25500000000E-02 0. -1.
    8880023    1    1    2    0    0 -0.22683844564E+03  0.48578915841E+03  0.36416741138E+03  0.92405351394E+03  0.65864270000E+03 0.  1.
    8880022    1    1    2    0    0  0.22683844564E+03 -0.48578915841E+03 -0.22112915107E+04  0.22804930574E+04  0.15294330000E+03 0.  0.
<mgrwt>
<rscale>  0 0.76445267E+03</rscale>
<asrwt>0</asrwt>
<pdfrwt beam="1">  1        2 0.38859005E+00 0.84926850E+03</pdfrwt>
<pdfrwt beam="2">  1       -2 0.10441711E+00 0.84926850E+03</pdfrwt>
<totfact> 0.25868573E+00</totfact>
</mgrwt>
</event>
<event>
 4    5  0.1112901E-007  0.6959157E+03  0.7818608E-02  0.1001459E+00
         -2   -1    0    0    0  501 -0.00000000000E+00  0.00000000000E+00  0.50511829389E+03  0.50511829390E+03  0.25500000000E-02 0.  1.
          2   -1    0    0  501    0  0.00000000000E+00 -0.00000000000E+00 -0.87343137901E+03  0.87343137901E+03  0.25500000000E-02 0. -1.
    8880023    1    1    2    0    0  0.35494533822E+02 -0.22187529538E+03  0.22051199089E+03  0.73001661147E+03  0.65864270000E+03 0.  1.
    8880022    1    1    2    0    0 -0.35494533822E+02  0.22187529538E+03 -0.58882507601E+03  0.64853306144E+03  0.15294330000E+03 0.  0.
<mgrwt>
<rscale>  0 0.55015298E+03</rscale>
<asrwt>0</asrwt>
<pdfrwt beam="1">  1        2 0.13437406E+00 0.69591574E+03</pdfrwt>
<pdfrwt beam="2">  1       -2 0.77710507E-01 0.69591574E+03</pdfrwt>
<totfact> 0.45970271E+01</totfact>
</mgrwt>
</event>
<event>
 4    5  0.1112901E-007  0.9442461E+03  0.7818608E-02  0.9458442E-01
          2   -1    0    0  501    0  0.00000000000E+00  0.00000000000E+00  0.36031683138E+04  0.36031683138E+04  0.25500000000E-02 0. -1.
         -2   -1    0    0    0  501 -0.00000000000E+00 -0.00000000000E+00 -0.43200242511E+03  0.43200242512E+03  0.25500000000E-02 0.  1.
    8880023    1    1    2    0    0 -0.37757900789E+03  0.56144856925E+03  0.17572310021E+03  0.96045781652E+03  0.65864270000E+03 0.  1.
    8880022    1    1    2    0    0  0.37757900789E+03 -0.56144856925E+03  0.29954427885E+04  0.30747129224E+04  0.15294330000E+03 0.  0.
<mgrwt>
<rscale>  0 0.87418341E+03</rscale>
<asrwt>0</asrwt>
<pdfrwt beam="1">  1        2 0.55433360E+00 0.94424605E+03</pdfrwt>
<pdfrwt beam="2">  1       -2 0.66461910E-01 0.94424605E+03</pdfrwt>
<totfact> 0.15004275E+00</totfact>
</mgrwt>
</event>
<event>
 4    5  0.1112901E-007  0.1858759E+04  0.7818608E-02  0.8690711E-01
          2   -1    0    0  501    0  0.00000000000E+00  0.00000000000E+00  0.16066978966E+04  0.16066978966E+04  0.25500000000E-02 0. -1.
         -2   -1    0    0    0  501 -0.00000000000E+00 -0.00000000000E+00 -0.42632500085E+04  0.42632500085E+04  0.25500000000E-02 0.  1.
    8880023    1    1    2    0    0 -0.93942319090E+03  0.14624155521E+04 -0.34763577899E+04  0.39420868672E+04  0.65864270000E+03 0.  0.
    8880022    1    1    2    0    0  0.93942319090E+03 -0.14624155521E+04  0.81980567807E+03  0.19278610379E+04  0.15294330000E+03 0.  0.
<mgrwt>
<rscale>  0 0.18296079E+04</rscale>
<asrwt>0</asrwt>
<pdfrwt beam="1">  1        2 0.24718429E+00 0.18587591E+04</pdfrwt>
<pdfrwt beam="2">  1       -2 0.65588461E+00 0.18587591E+04</pdfrwt>
<totfact> 0.31121977E-03</totfact>
</mgrwt>
</event>
<event>
 4    5  0.1112901E-007  0.1102165E+04  0.7818608E-02  0.9258649E-01
          2   -1    0    0  501    0  0.00000000000E+00  0.00000000000E+00  0.24755943157E+04  0.24755943157E+04  0.25500000000E-02 0. -1.
         -2   -1    0    0    0  501 -0.00000000000E+00 -0.00000000000E+00 -0.53846120313E+03  0.53846120314E+03  0.25500000000E-02 0.  1.
    8880023    1    1    2    0    0 -0.27684030388E+03  0.83923621744E+03  0.17944789441E+04  0.21059256563E+04  0.65864270000E+03 0.  0.
    8880022    1    1    2    0    0  0.27684030388E+03 -0.83923621744E+03  0.14265416844E+03  0.90812986258E+03  0.15294330000E+03 0.  0.
<mgrwt>
<rscale>  0 0.10468046E+04</rscale>
<asrwt>0</asrwt>
<pdfrwt beam="1">  1        2 0.38086067E+00 0.11021652E+04</pdfrwt>
<pdfrwt beam="2">  1       -2 0.82840184E-01 0.11021652E+04</pdfrwt>
<totfact> 0.45789934E+00</totfact>
</mgrwt>
</event>
<event>
 4    5  0.1112901E-007  0.2086437E+04  0.7818608E-02  0.8578724E-01
          2   -1    0    0  501    0  0.00000000000E+00  0.00000000000E+00  0.32122645500E+04  0.32122645500E+04  0.25500000000E-02 0. -1.
         -2   -1    0    0    0  501 -0.00000000000E+00 -0.00000000000E+00 -0.13855590489E+04  0.13855590489E+04  0.25500000000E-02 0.  1.
    8880023    1    1    2    0    0 -0.19727495099E+04  0.16633502921E+03  0.33246903311E+03  0.21127597675E+04  0.65864270000E+03 0.  0.
    8880022    1    1    2    0    0  0.19727495099E+04 -0.16633502921E+03  0.14942364681E+04  0.24850638314E+04  0.15294330000E+03 0.  0.
<mgrwt>
<rscale>  0 0.20607699E+04</rscale>
<asrwt>0</asrwt>
<pdfrwt beam="1">  1        2 0.49419453E+00 0.20864367E+04</pdfrwt>
<pdfrwt beam="2">  1       -2 0.21316294E+00 0.20864367E+04</pdfrwt>
<totfact> 0.12305766E-01</totfact>
</mgrwt>
</event>
<event>
 4    5  0.1112901E-007  0.1405090E+04  0.7818608E-02  0.8979737E-01
         -2   -1    0    0    0  501 -0.00000000000E+00  0.00000000000E+00  0.18104107326E+04  0.18104107326E+04  0.25500000000E-02 0.  1.
          2   -1    0    0  501    0  0.00000000000E+00 -0.00000000000E+00 -0.20332448547E+04  0.20332448547E+04  0.25500000000E-02 0. -1.
    8880023    1    1    2    0    0  0.60007299473E+03  0.10864534278E+04  0.12715711449E+04  0.18950387945E+04  0.65864270000E+03 0.  1.
    8880022    1    1    2    0    0 -0.60007299473E+03 -0.10864534278E+04 -0.14944052671E+04  0.19486167928E+04  0.15294330000E+03 0.  0.
<mgrwt>
<rscale>  0 0.13647495E+04</rscale>
<asrwt>0</asrwt>
<pdfrwt beam="1">  1        2 0.31280690E+00 0.14050903E+04</pdfrwt>
<pdfrwt beam="2">  1       -2 0.27852473E+00 0.14050903E+04</pdfrwt>
<totfact> 0.26106963E-01</totfact>
</mgrwt>
</event>
<event>
 4    5  0.1112901E-007  0.1094499E+04  0.7818608E-02  0.9267206E-01
          2   -1    0    0  501    0  0.00000000000E+00  0.00000000000E+00  0.29790215873E+04  0.29790215873E+04  0.25500000000E-02 0. -1.
         -2   -1    0    0    0  501 -0.00000000000E+00 -0.00000000000E+00 -0.79028505729E+03  0.79028505729E+03  0.25500000000E-02 0.  1.
    8880023    1    1    2    0    0  0.87355453193E+03 -0.31941279708E+02 -0.29353446488E+03  0.11331771503E+04  0.65864270000E+03 0.  1.
    8880022    1    1    2    0    0 -0.87355453193E+03  0.31941279708E+02  0.24822709949E+04  0.26361294943E+04  0.15294330000E+03 0.  0.
<mgrwt>
<rscale>  0 0.10385884E+04</rscale>
<asrwt>0</asrwt>
<pdfrwt beam="1">  1        2 0.45831101E+00 0.10944990E+04</pdfrwt>
<pdfrwt beam="2">  1       -2 0.12158232E+00 0.10944990E+04</pdfrwt>
<totfact> 0.92453621E-01</totfact>
</mgrwt>
</event>
<event>
 4    5  0.1112901E-007  0.6910078E+03  0.7818608E-02  0.1003677E+00
          2   -1    0    0  501    0  0.00000000000E+00  0.00000000000E+00  0.12266648341E+04  0.12266648341E+04  0.25500000000E-02 0. -1.
         -2   -1    0    0    0  501 -0.00000000000E+00 -0.00000000000E+00 -0.93935888963E+03  0.93935888964E+03  0.25500000000E-02 0.  1.
    8880023    1    1    2    0    0 -0.20804757688E+03  0.19942827449E+02 -0.79489975901E+03  0.10532603400E+04  0.65864270000E+03 0.  1.
    8880022    1    1    2    0    0  0.20804757688E+03 -0.19942827449E+02  0.10822057034E+04  0.11127633837E+04  0.15294330000E+03 0.  0.
<mgrwt>
<rscale>  0 0.54066815E+03</rscale>
<asrwt>0</asrwt>
<pdfrwt beam="1">  1        2 0.18871766E+00 0.69100775E+03</pdfrwt>
<pdfrwt beam="2">  1       -2 0.14451675E+00 0.69100775E+03</pdfrwt>
<totfact> 0.62174490E+00</totfact>
</mgrwt>
</event>
<event>
 4    5  0.2286226E-007  0.1662638E+04  0.7818608E-02  0.8802586E-01
         -2   -1    0    0    0  501 -0.00000000000E+00  0.00000000000E+00  0.21343679554E+04  0.21343679554E+04  0.25500000000E-02 0.  1.
          2   -1    0    0  501    0  0.00000000000E+00 -0.00000000000E+00 -0.24628836079E+04  0.24628836079E+04  0.25500000000E-02 0. -1.
    8880023    1    1    2    0    0 -0.12162759978E+04  0.92261973883E+03  0.14797770502E+04  0.22257818424E+04  0.65864270000E+03 0.  0.
    8880022    1    1    2    0    0  0.12162759978E+04 -0.92261973883E+03 -0.18082927027E+04  0.23714697209E+04  0.15294330000E+03 0.  0.
<mgrwt>
<rscale>  0 0.16295692E+04</rscale>
<asrwt>0</asrwt>
<pdfrwt beam="1">  1        2 0.37890517E+00 0.16626379E+04</pdfrwt>
<pdfrwt beam="2">  1       -2 0.32836430E+00 0.16626379E+04</pdfrwt>
<totfact> 0.71453752E-02</totfact>
</mgrwt>
</event>
<event>
 4    5  0.1112901E-007  0.7531046E+03  0.7818608E-02  0.9823298E-01
          2   -1    0    0  501    0  0.00000000000E+00  0.00000000000E+00  0.71326532067E+03  0.71326532068E+03  0.25500000000E-02 0. -1.
         -2   -1    0    0    0  501 -0.00000000000E+00 -0.00000000000E+00 -0.11136239844E+04  0.11136239844E+04  0.25500000000E-02 0.  1.
    8880023    1    1    2    0    0 -0.36220123790E+03  0.46546195092E+02 -0.91020572421E+03  0.11813724864E+04  0.65864270000E+03 0.  1.
    8880022    1    1    2    0    0  0.36220123790E+03 -0.46546195092E+02  0.50984706051E+03  0.64551681863E+03  0.15294330000E+03 0.  0.
<mgrwt>
<rscale>  0 0.64127113E+03</rscale>
<asrwt>0</asrwt>
<pdfrwt beam="1">  1        2 0.10973313E+00 0.75310457E+03</pdfrwt>
<pdfrwt beam="2">  1       -2 0.17132677E+00 0.75310457E+03</pdfrwt>
<totfact> 0.84846512E+00</totfact>
</mgrwt>
</event>
<event>
 4    5  0.1112901E-007  0.1752436E+04  0.7818608E-02  0.8749314E-01
          2   -1    0    0  501    0  0.00000000000E+00  0.00000000000E+00  0.15622999163E+04  0.15622999163E+04  0.25500000000E-02 0. -1.
         -2   -1    0    0    0  501 -0.00000000000E+00 -0.00000000000E+00 -0.24498711903E+04  0.24498711903E+04  0.25500000000E-02 0.  1.
    8880023    1    1    2    0    0 -0.75137755382E+03  0.14396709038E+04 -0.14626508471E+04  0.22826252970E+04  0.65864270000E+03 0.  0.
    8880022    1    1    2    0    0  0.75137755382E+03 -0.14396709038E+04  0.57507957307E+03  0.17295458097E+04  0.15294330000E+03 0.  0.
<mgrwt>
<rscale>  0 0.17212908E+04</rscale>
<asrwt>0</asrwt>
<pdfrwt beam="1">  1        2 0.24035383E+00 0.17524357E+04</pdfrwt>
<pdfrwt beam="2">  1       -2 0.37690326E+00 0.17524357E+04</pdfrwt>
<totfact> 0.11238611E-01</totfact>
</mgrwt>
</event>
<event>
 4    5  0.1112901E-007  0.7623057E+03  0.7818608E-02  0.9799175E-01
          2   -1    0    0  501    0  0.00000000000E+00  0.00000000000E+00  0.11849666926E+04  0.11849666926E+04  0.25500000000E-02 0. -1.
         -2   -1    0    0    0  501 -0.00000000000E+00 -0.00000000000E+00 -0.62220303372E+03  0.62220303372E+03  0.25500000000E-02 0.  1.
    8880023    1    1    2    0    0 -0.28137262559E+03 -0.26101565741E+03 -0.32444832581E+03  0.82847851525E+03  0.65864270000E+03 0.  0.
    8880022    1    1    2    0    0  0.28137262559E+03  0.26101565741E+03  0.88721198468E+03  0.97869121107E+03  0.15294330000E+03 0.  0.
<mgrwt>
<rscale>  0 0.65406862E+03</rscale>
<asrwt>0</asrwt>
<pdfrwt beam="1">  1        2 0.18230257E+00 0.76230567E+03</pdfrwt>
<pdfrwt beam="2">  1       -2 0.95723544E-01 0.76230567E+03</pdfrwt>
<totfact> 0.18017395E+01</totfact>
</mgrwt>
</event>
<event>
 4    5  0.1112901E-007  0.1285285E+04  0.7818608E-02  0.9078373E-01
          2   -1    0    0  501    0  0.00000000000E+00  0.00000000000E+00  0.11678940045E+04  0.11678940045E+04  0.25500000000E-02 0. -1.
         -2   -1    0    0    0  501 -0.00000000000E+00 -0.00000000000E+00 -0.16812548116E+04  0.16812548116E+04  0.25500000000E-02 0.  1.
    8880023    1    1    2    0    0 -0.21245027255E+03  0.10830564384E+04 -0.10047101182E+04  0.16313794761E+04  0.65864270000E+03 0.  0.
    8880022    1    1    2    0    0  0.21245027255E+03 -0.10830564384E+04  0.49134931114E+03  0.12177693401E+04  0.15294330000E+03 0.  0.
<mgrwt>
<rscale>  0 0.12402079E+04</rscale>
<asrwt>0</asrwt>
<pdfrwt beam="1">  1        2 0.17967600E+00 0.12852846E+04</pdfrwt>
<pdfrwt beam="2">  1       -2 0.25865459E+00 0.12852846E+04</pdfrwt>
<totfact> 0.10858646E+00</totfact>
</mgrwt>
</event>
<event>
 4    5  0.1112901E-007  0.1876101E+04  0.7818608E-02  0.8681569E-01
         -2   -1    0    0    0  501 -0.00000000000E+00  0.00000000000E+00  0.22783654754E+04  0.22783654754E+04  0.25500000000E-02 0.  1.
          2   -1    0    0  501    0  0.00000000000E+00 -0.00000000000E+00 -0.21629421806E+04  0.21629421806E+04  0.25500000000E-02 0. -1.
    8880023    1    1    2    0    0  0.91503297552E+03 -0.14995528319E+04  0.13303911477E+04  0.22999336629E+04  0.65864270000E+03 0.  0.
    8880022    1    1    2    0    0 -0.91503297552E+03  0.14995528319E+04 -0.12149678528E+04  0.21413739931E+04  0.15294330000E+03 0.  0.
<mgrwt>
<rscale>  0 0.18472496E+04</rscale>
<asrwt>0</asrwt>
<pdfrwt beam="1">  1        2 0.33276034E+00 0.18761008E+04</pdfrwt>
<pdfrwt beam="2">  1       -2 0.35051776E+00 0.18761008E+04</pdfrwt>
<totfact> 0.75125553E-02</totfact>
</mgrwt>
</event>
<event>
 4    5  0.1112901E-007  0.1271588E+04  0.7818608E-02  0.9090492E-01
         -2   -1    0    0    0  501 -0.00000000000E+00  0.00000000000E+00  0.93481898757E+03  0.93481898758E+03  0.25500000000E-02 0.  1.
          2   -1    0    0  501    0  0.00000000000E+00 -0.00000000000E+00 -0.19935126187E+04  0.19935126187E+04  0.25500000000E-02 0. -1.
    8880023    1    1    2    0    0 -0.10701967348E+04  0.19443661177E+03  0.16696296479E+03  0.12825028207E+04  0.65864270000E+03 0. -1.
    8880022    1    1    2    0    0  0.10701967348E+04 -0.19443661177E+03 -0.12256565959E+04  0.16458287855E+04  0.15294330000E+03 0.  0.
<mgrwt>
<rscale>  0 0.12258904E+04</rscale>
<asrwt>0</asrwt>
<pdfrwt beam="1">  1        2 0.30669425E+00 0.12715883E+04</pdfrwt>
<pdfrwt beam="2">  1       -2 0.14381831E+00 0.12715883E+04</pdfrwt>
<totfact> 0.21795010E+00</totfact>
</mgrwt>
</event>
<event>
 4    5  0.1112901E-007  0.9133601E+03  0.7818608E-02  0.9504916E-01
         -2   -1    0    0    0  501 -0.00000000000E+00  0.00000000000E+00  0.46992272312E+03  0.46992272313E+03  0.25500000000E-02 0.  1.
          2   -1    0    0  501    0  0.00000000000E+00 -0.00000000000E+00 -0.17721405728E+04  0.17721405728E+04  0.25500000000E-02 0. -1.
    8880023    1    1    2    0    0  0.53736330817E+03  0.33415143246E+03 -0.15988213484E+03  0.92724808336E+03  0.65864270000E+03 0.  0.
    8880022    1    1    2    0    0 -0.53736330817E+03 -0.33415143246E+03 -0.11423357148E+04  0.13148152126E+04  0.15294330000E+03 0.  0.
<mgrwt>
<rscale>  0 0.83922362E+03</rscale>
<asrwt>0</asrwt>
<pdfrwt beam="1">  1        2 0.27263701E+00 0.91336012E+03</pdfrwt>
<pdfrwt beam="2">  1       -2 0.72295805E-01 0.91336012E+03</pdfrwt>
<totfact> 0.15628993E+01</totfact>
</mgrwt>
</event>
<event>
 4    5  0.1112901E-007  0.1724506E+04  0.7818608E-02  0.8765488E-01
          2   -1    0    0  501    0  0.00000000000E+00  0.00000000000E+00  0.15903415489E+04  0.15903415489E+04  0.25500000000E-02 0. -1.
         -2   -1    0    0    0  501 -0.00000000000E+00 -0.00000000000E+00 -0.19048064221E+04  0.19048064221E+04  0.25500000000E-02 0.  1.
    8880023    1    1    2    0    0 -0.16251374062E+03 -0.15854656425E+04 -0.67851355239E+03  0.18531872184E+04  0.65864270000E+03 0.  0.
    8880022    1    1    2    0    0  0.16251374062E+03  0.15854656425E+04  0.36404867914E+03  0.16419607526E+04  0.15294330000E+03 0.  0.
<mgrwt>
<rscale>  0 0.16927891E+04</rscale>
<asrwt>0</asrwt>
<pdfrwt beam="1">  1        2 0.24466793E+00 0.17245064E+04</pdfrwt>
<pdfrwt beam="2">  1       -2 0.29304714E+00 0.17245064E+04</pdfrwt>
<totfact> 0.36377946E-01</totfact>
</mgrwt>
</event>
<event>
 4    5  0.1112901E-007  0.1422355E+04  0.7818608E-02  0.8966504E-01
          2   -1    0    0  501    0  0.00000000000E+00  0.00000000000E+00  0.25090611791E+04  0.25090611791E+04  0.25500000000E-02 0. -1.
         -2   -1    0    0    0  501 -0.00000000000E+00 -0.00000000000E+00 -0.10521302463E+04  0.10521302464E+04  0.25500000000E-02 0.  1.
    8880023    1    1    2    0    0  0.35841046608E+03 -0.12086460204E+04  0.17527696445E+04  0.22572759906E+04  0.65864270000E+03 0.  1.
    8880022    1    1    2    0    0 -0.35841046608E+03  0.12086460204E+04 -0.29583871179E+03  0.13039154348E+04  0.15294330000E+03 0.  0.
<mgrwt>
<rscale>  0 0.13826089E+04</rscale>
<asrwt>0</asrwt>
<pdfrwt beam="1">  1        2 0.38600941E+00 0.14223549E+04</pdfrwt>
<pdfrwt beam="2">  1       -2 0.16186619E+00 0.14223549E+04</pdfrwt>
<totfact> 0.79839849E-01</totfact>
</mgrwt>
</event>
<event>
 4    5  0.1112901E-007  0.7698129E+03  0.7818608E-02  0.9780335E-01
          2   -1    0    0  501    0  0.00000000000E+00  0.00000000000E+00  0.26316882805E+04  0.26316882805E+04  0.25500000000E-02 0. -1.
         -2   -1    0    0    0  501 -0.00000000000E+00 -0.00000000000E+00 -0.25984806718E+03  0.25984806720E+03  0.25500000000E-02 0.  1.
    8880023    1    1    2    0    0 -0.46281391055E+02 -0.39580259017E+03  0.38756156756E+03  0.86186764208E+03  0.65864270000E+03 0.  1.
    8880022    1    1    2    0    0  0.46281391055E+02  0.39580259017E+03  0.19842786458E+04  0.20296687057E+04  0.15294330000E+03 0.  0.
<mgrwt>
<rscale>  0 0.66428651E+03</rscale>
<asrwt>0</asrwt>
<pdfrwt beam="1">  1        2 0.40487513E+00 0.76981288E+03</pdfrwt>
<pdfrwt beam="2">  1       -2 0.39976625E-01 0.76981288E+03</pdfrwt>
<totfact> 0.18062106E+01</totfact>
</mgrwt>
</event>
<event>
 4    5  0.1112901E-007  0.7512208E+03  0.7818608E-02  0.9828390E-01
         -2   -1    0    0    0  501 -0.00000000000E+00  0.00000000000E+00  0.92011926697E+03  0.92011926697E+03  0.25500000000E-02 0.  1.
          2   -1    0    0  501    0  0.00000000000E+00 -0.00000000000E+00 -0.73744065859E+03  0.73744065859E+03  0.25500000000E-02 0. -1.
    8880023    1    1    2    0    0  0.35901306949E+03  0.40399945373E+02  0.68742548601E+03  0.10182762615E+04  0.65864270000E+03 0.  1.
    8880022    1    1    2    0    0 -0.35901306949E+03 -0.40399945373E+02 -0.50474687763E+03  0.63928366407E+03  0.15294330000E+03 0.  0.
<mgrwt>
<rscale>  0 0.63860976E+03</rscale>
<asrwt>0</asrwt>
<pdfrwt beam="1">  1        2 0.11345241E+00 0.75122084E+03</pdfrwt>
<pdfrwt beam="2">  1       -2 0.14155681E+00 0.75122084E+03</pdfrwt>
<totfact> 0.13574821E+01</totfact>
</mgrwt>
</event>
<event>
 4    5  0.1112901E-007  0.7721999E+03  0.7818608E-02  0.9774489E-01
         -2   -1    0    0    0  501 -0.00000000000E+00  0.00000000000E+00  0.74647427456E+03  0.74647427456E+03  0.25500000000E-02 0.  1.
          2   -1    0    0  501    0  0.00000000000E+00 -0.00000000000E+00 -0.20799896398E+04  0.20799896398E+04  0.25500000000E-02 0. -1.
    8880023    1    1    2    0    0  0.35690011150E+03  0.18736260633E+03  0.51510331849E+03  0.92823707684E+03  0.65864270000E+03 0.  1.
    8880022    1    1    2    0    0 -0.35690011150E+03 -0.18736260633E+03 -0.18486186837E+04  0.18982268375E+04  0.15294330000E+03 0.  0.
<mgrwt>
<rscale>  0 0.66749751E+03</rscale>
<asrwt>0</asrwt>
<pdfrwt beam="1">  1        2 0.31999840E+00 0.77219987E+03</pdfrwt>
<pdfrwt beam="2">  1       -2 0.11484220E+00 0.77219987E+03</pdfrwt>
<totfact> 0.36900571E+00</totfact>
</mgrwt>
</event>
<event>
 4    5  0.1112901E-007  0.8217747E+03  0.7818608E-02  0.9665553E-01
          2   -1    0    0  501    0  0.00000000000E+00  0.00000000000E+00  0.22064795079E+04  0.22064795079E+04  0.25500000000E-02 0. -1.
         -2   -1    0    0    0  501 -0.00000000000E+00 -0.00000000000E+00 -0.30498945682E+03  0.30498945683E+03  0.25500000000E-02 0.  1.
    8880023    1    1    2    0    0 -0.45501982964E+03  0.18563521436E+03  0.38018098537E+03  0.90545638551E+03  0.65864270000E+03 0.  0.
    8880022    1    1    2    0    0  0.45501982964E+03 -0.18563521436E+03  0.15213090657E+04  0.16060125792E+04  0.15294330000E+03 0.  0.
<mgrwt>
<rscale>  0 0.73105294E+03</rscale>
<asrwt>0</asrwt>
<pdfrwt beam="1">  1        2 0.33945837E+00 0.82177472E+03</pdfrwt>
<pdfrwt beam="2">  1       -2 0.46921457E-01 0.82177472E+03</pdfrwt>
<totfact> 0.22667050E+01</totfact>
</mgrwt>
</event>
<event>
 4    5  0.1112901E-007  0.7065137E+03  0.7818608E-02  0.9971182E-01
          2   -1    0    0  501    0  0.00000000000E+00  0.00000000000E+00  0.13911436490E+04  0.13911436490E+04  0.25500000000E-02 0. -1.
         -2   -1    0    0    0  501 -0.00000000000E+00 -0.00000000000E+00 -0.46619625151E+03  0.46619625151E+03  0.25500000000E-02 0.  1.
    8880023    1    1    2    0    0  0.23320005261E+03  0.10473346034E+03 -0.16658476824E+03  0.72588708042E+03  0.65864270000E+03 0.  1.
    8880022    1    1    2    0    0 -0.23320005261E+03 -0.10473346034E+03  0.10915321657E+04  0.11314528201E+04  0.15294330000E+03 0.  0.
<mgrwt>
<rscale>  0 0.56932100E+03</rscale>
<asrwt>0</asrwt>
<pdfrwt beam="1">  1        2 0.21402210E+00 0.70651367E+03</pdfrwt>
<pdfrwt beam="2">  1       -2 0.71722501E-01 0.70651367E+03</pdfrwt>
<totfact> 0.26498180E+01</totfact>
</mgrwt>
</event>
<event>
 4    5  0.1112901E-007  0.9431696E+03  0.7818608E-02  0.9460010E-01
         -2   -1    0    0    0  501 -0.00000000000E+00  0.00000000000E+00  0.99737686250E+03  0.99737686250E+03  0.25500000000E-02 0.  1.
          2   -1    0    0  501    0  0.00000000000E+00 -0.00000000000E+00 -0.10312139229E+04  0.10312139229E+04  0.25500000000E-02 0. -1.
    8880023    1    1    2    0    0 -0.38110011212E+03 -0.55724440597E+03  0.57677915424E+03  0.11055510040E+04  0.65864270000E+03 0.  0.
    8880022    1    1    2    0    0  0.38110011212E+03  0.55724440597E+03 -0.61061621467E+03  0.92303978142E+03  0.15294330000E+03 0.  0.
<mgrwt>
<rscale>  0 0.87297398E+03</rscale>
<asrwt>0</asrwt>
<pdfrwt beam="1">  1        2 0.15864830E+00 0.94316957E+03</pdfrwt>
<pdfrwt beam="2">  1       -2 0.15344259E+00 0.94316957E+03</pdfrwt>
<totfact> 0.67636307E+00</totfact>
</mgrwt>
</event>
<event>
 4    5  0.1112901E-007  0.1187455E+04  0.7818608E-02  0.9169414E-01
         -2   -1    0    0    0  501 -0.00000000000E+00  0.00000000000E+00  0.82482478268E+03  0.82482478269E+03  0.25500000000E-02 0.  1.
          2   -1    0    0  501    0  0.00000000000E+00 -0.00000000000E+00 -0.17842797539E+04  0.17842797539E+04  0.25500000000E-02 0. -1.
    8880023    1    1    2    0    0  0.52076214856E+03 -0.83967029870E+03 -0.10760961030E+04  0.16025081763E+04  0.65864270000E+03 0. -1.
    8880022    1    1    2    0    0 -0.52076214856E+03  0.83967029870E+03  0.11664113180E+03  0.10065963603E+04  0.15294330000E+03 0.  0.
<mgrwt>
<rscale>  0 0.11374776E+04</rscale>
<asrwt>0</asrwt>
<pdfrwt beam="1">  1        2 0.27450458E+00 0.11874551E+04</pdfrwt>
<pdfrwt beam="2">  1       -2 0.12689612E+00 0.11874551E+04</pdfrwt>
<totfact> 0.39659837E+00</totfact>
</mgrwt>
</event>
<event>
 4    5  0.1112901E-007  0.7426707E+03  0.7818608E-02  0.9852235E-01
         -2   -1    0    0    0  501 -0.00000000000E+00  0.00000000000E+00  0.12337038010E+04  0.12337038010E+04  0.25500000000E-02 0.  1.
          2   -1    0    0  501    0  0.00000000000E+00 -0.00000000000E+00 -0.19629274249E+04  0.19629274249E+04  0.25500000000E-02 0. -1.
    8880023    1    1    2    0    0  0.16501597989E+03 -0.30086412183E+03  0.11010997788E+04  0.13281492471E+04  0.65864270000E+03 0.  1.
    8880022    1    1    2    0    0 -0.16501597989E+03  0.30086412183E+03 -0.18303234027E+04  0.18684819788E+04  0.15294330000E+03 0.  0.
<mgrwt>
<rscale>  0 0.62633099E+03</rscale>
<asrwt>0</asrwt>
<pdfrwt beam="1">  1        2 0.30198883E+00 0.74267065E+03</pdfrwt>
<pdfrwt beam="2">  1       -2 0.18980059E+00 0.74267065E+03</pdfrwt>
<totfact> 0.11359852E+00</totfact>
</mgrwt>
</event>
<event>
 4    5  0.1112901E-007  0.6943225E+03  0.7818608E-02  0.1002162E+00
          2   -1    0    0  501    0  0.00000000000E+00  0.00000000000E+00  0.16411328080E+04  0.16411328080E+04  0.25500000000E-02 0. -1.
         -2   -1    0    0    0  501 -0.00000000000E+00 -0.00000000000E+00 -0.14799034539E+03  0.14799034541E+03  0.25500000000E-02 0.  1.
    8880023    1    1    2    0    0 -0.23632047444E+02 -0.21843786522E+03  0.88650594990E+03  0.11260446617E+04  0.65864270000E+03 0.  1.
    8880022    1    1    2    0    0  0.23632047444E+02  0.21843786522E+03  0.60663651272E+03  0.66307849174E+03  0.15294330000E+03 0. -1.
<mgrwt>
<rscale>  0 0.54712241E+03</rscale>
<asrwt>0</asrwt>
<pdfrwt beam="1">  1        2 0.25248197E+00 0.69432253E+03</pdfrwt>
<pdfrwt beam="2">  1       -2 0.22767746E-01 0.69432253E+03</pdfrwt>
<totfact> 0.18335561E+02</totfact>
</mgrwt>
</event>
<event>
 4    5  0.1112901E-007  0.1461791E+04  0.7818608E-02  0.8937099E-01
          2   -1    0    0  501    0  0.00000000000E+00  0.00000000000E+00  0.15634456199E+04  0.15634456199E+04  0.25500000000E-02 0. -1.
         -2   -1    0    0    0  501 -0.00000000000E+00 -0.00000000000E+00 -0.15436277738E+04  0.15436277738E+04  0.25500000000E-02 0.  1.
    8880023    1    1    2    0    0 -0.70261505754E+03  0.10997066221E+04 -0.68690475739E+03  0.16151380516E+04  0.65864270000E+03 0.  0.
    8880022    1    1    2    0    0  0.70261505754E+03 -0.10997066221E+04  0.70672260354E+03  0.14919353421E+04  0.15294330000E+03 0.  0.
<mgrwt>
<rscale>  0 0.14233348E+04</rscale>
<asrwt>0</asrwt>
<pdfrwt beam="1">  1        2 0.24053010E+00 0.14617909E+04</pdfrwt>
<pdfrwt beam="2">  1       -2 0.23748120E+00 0.14617909E+04</pdfrwt>
<totfact> 0.84711590E-01</totfact>
</mgrwt>
</event>
<event>
 4    5  0.1112901E-007  0.6746807E+03  0.7818608E-02  0.1012508E+00
         -2   -1    0    0    0  501 -0.00000000000E+00  0.00000000000E+00  0.31035192994E+03  0.31035192995E+03  0.25500000000E-02 0.  1.
          2   -1    0    0  501    0  0.00000000000E+00 -0.00000000000E+00 -0.72345045626E+03  0.72345045626E+03  0.25500000000E-02 0. -1.
    8880023    1    1    2    0    0  0.13584888274E+03  0.54119126402E+02 -0.46062736327E+03  0.81692813199E+03  0.65864270000E+03 0. -1.
    8880022    1    1    2    0    0 -0.13584888274E+03 -0.54119126402E+02  0.47528836946E+02  0.21687425422E+03  0.15294330000E+03 0.  0.
<mgrwt>
<rscale>  0 0.50489805E+03</rscale>
<asrwt>0</asrwt>
<pdfrwt beam="1">  1        2 0.11130007E+00 0.67468067E+03</pdfrwt>
<pdfrwt beam="2">  1       -2 0.47746451E-01 0.67468067E+03</pdfrwt>
<totfact> 0.16566792E+02</totfact>
</mgrwt>
</event>
<event>
 4    5  0.1112901E-007  0.1035487E+04  0.7818608E-02  0.9336535E-01
         -2   -1    0    0    0  501 -0.00000000000E+00  0.00000000000E+00  0.37544440553E+03  0.37544440554E+03  0.25500000000E-02 0.  1.
          2   -1    0    0  501    0  0.00000000000E+00 -0.00000000000E+00 -0.23586910852E+04  0.23586910852E+04  0.25500000000E-02 0. -1.
    8880023    1    1    2    0    0  0.79856057262E+03 -0.26903316548E+02 -0.85313579138E+03  0.13416682382E+04  0.65864270000E+03 0.  0.
    8880022    1    1    2    0    0 -0.79856057262E+03  0.26903316548E+02 -0.11301108883E+04  0.13924672526E+04  0.15294330000E+03 0.  0.
<mgrwt>
<rscale>  0 0.97487844E+03</rscale>
<asrwt>0</asrwt>
<pdfrwt beam="1">  1        2 0.36287554E+00 0.10354868E+04</pdfrwt>
<pdfrwt beam="2">  1       -2 0.57760679E-01 0.10354868E+04</pdfrwt>
<totfact> 0.11840913E+01</totfact>
</mgrwt>
</event>
<event>
 4    5  0.1112901E-007  0.1338595E+04  0.7818608E-02  0.9032927E-01
          2   -1    0    0  501    0  0.00000000000E+00  0.00000000000E+00  0.10455952280E+04  0.10455952280E+04  0.25500000000E-02 0. -1.
         -2   -1    0    0    0  501 -0.00000000000E+00 -0.00000000000E+00 -0.16209942743E+04  0.16209942743E+04  0.25500000000E-02 0.  1.
    8880023    1    1    2    0    0  0.77565963172E+03 -0.86969974573E+03  0.41409460324E+02  0.13392350285E+04  0.65864270000E+03 0.  0.
    8880022    1    1    2    0    0 -0.77565963172E+03  0.86969974573E+03 -0.61680850660E+03  0.13273544737E+04  0.15294330000E+03 0.  0.
<mgrwt>
<rscale>  0 0.12957685E+04</rscale>
<asrwt>0</asrwt>
<pdfrwt beam="1">  1        2 0.16086080E+00 0.13385947E+04</pdfrwt>
<pdfrwt beam="2">  1       -2 0.24938374E+00 0.13385947E+04</pdfrwt>
<totfact> 0.14666820E+00</totfact>
</mgrwt>
</event>
<event>
 4    5  0.1112901E-007  0.7775187E+03  0.7818608E-02  0.9761698E-01
          2   -1    0    0  501    0  0.00000000000E+00  0.00000000000E+00  0.13163526094E+04  0.13163526094E+04  0.25500000000E-02 0. -1.
         -2   -1    0    0    0  501 -0.00000000000E+00 -0.00000000000E+00 -0.11572288679E+04  0.11572288679E+04  0.25500000000E-02 0.  1.
    8880023    1    1    2    0    0 -0.32020321032E+03 -0.26114173531E+03 -0.98072717099E+03  0.12515434839E+04  0.65864270000E+03 0.  1.
    8880022    1    1    2    0    0  0.32020321032E+03  0.26114173531E+03  0.11398509125E+04  0.12220379935E+04  0.15294330000E+03 0.  0.
<mgrwt>
<rscale>  0 0.67459172E+03</rscale>
<asrwt>0</asrwt>
<pdfrwt beam="1">  1        2 0.20251578E+00 0.77751869E+03</pdfrwt>
<pdfrwt beam="2">  1       -2 0.17803521E+00 0.77751869E+03</pdfrwt>
<totfact> 0.30912609E+00</totfact>
</mgrwt>
</event>
<event>
 4    5  0.1112901E-007  0.9597445E+03  0.7818608E-02  0.9436230E-01
          2   -1    0    0  501    0  0.00000000000E+00  0.00000000000E+00  0.15157391076E+04  0.15157391076E+04  0.25500000000E-02 0. -1.
         -2   -1    0    0    0  501 -0.00000000000E+00 -0.00000000000E+00 -0.70093100604E+03  0.70093100605E+03  0.25500000000E-02 0.  1.
    8880023    1    1    2    0    0 -0.91906572817E+02  0.69199173543E+03 -0.19521780924E+03  0.97939755939E+03  0.65864270000E+03 0.  0.
    8880022    1    1    2    0    0  0.91906572817E+02 -0.69199173543E+03  0.10100259108E+04  0.12372725543E+04  0.15294330000E+03 0.  0.
<mgrwt>
<rscale>  0 0.89153114E+03</rscale>
<asrwt>0</asrwt>
<pdfrwt beam="1">  1        2 0.23319063E+00 0.95974454E+03</pdfrwt>
<pdfrwt beam="2">  1       -2 0.10783554E+00 0.95974454E+03</pdfrwt>
<totfact> 0.85670029E+00</totfact>
</mgrwt>
</event>
<event>
 4    5  0.1112901E-007  0.1203968E+04  0.7818608E-02  0.9153275E-01
         -2   -1    0    0    0  501 -0.00000000000E+00  0.00000000000E+00  0.10494365119E+04  0.10494365119E+04  0.25500000000E-02 0.  1.
          2   -1    0    0  501    0  0.00000000000E+00 -0.00000000000E+00 -0.17710743494E+04  0.17710743494E+04  0.25500000000E-02 0. -1.
    8880023    1    1    2    0    0  0.64067835370E+03  0.77798469483E+03  0.43375027948E+03  0.12797181133E+04  0.65864270000E+03 0.  1.
    8880022    1    1    2    0    0 -0.64067835370E+03 -0.77798469483E+03 -0.11553881170E+04  0.15407927480E+04  0.15294330000E+03 0.  0.
<mgrwt>
<rscale>  0 0.11549002E+04</rscale>
<asrwt>0</asrwt>
<pdfrwt beam="1">  1        2 0.27247298E+00 0.12039681E+04</pdfrwt>
<pdfrwt beam="2">  1       -2 0.16145177E+00 0.12039681E+04</pdfrwt>
<totfact> 0.21369522E+00</totfact>
</mgrwt>
</event>
<event>
 4    5  0.1112901E-007  0.8025161E+03  0.7818608E-02  0.9705382E-01
          2   -1    0    0  501    0  0.00000000000E+00  0.00000000000E+00  0.66332875314E+03  0.66332875315E+03  0.25500000000E-02 0. -1.
         -2   -1    0    0    0  501 -0.00000000000E+00 -0.00000000000E+00 -0.17355006310E+04  0.17355006310E+04  0.25500000000E-02 0.  1.
    8880023    1    1    2    0    0 -0.32801715037E+02 -0.45732472234E+03 -0.15334200747E+04  0.17307250463E+04  0.65864270000E+03 0.  1.
    8880022    1    1    2    0    0  0.32801715037E+02  0.45732472234E+03  0.46124819683E+03  0.66810433786E+03  0.15294330000E+03 0.  0.
<mgrwt>
<rscale>  0 0.70697255E+03</rscale>
<asrwt>0</asrwt>
<pdfrwt beam="1">  1        2 0.10205058E+00 0.80251608E+03</pdfrwt>
<pdfrwt beam="2">  1       -2 0.26700010E+00 0.80251608E+03</pdfrwt>
<totfact> 0.22750191E+00</totfact>
</mgrwt>
</event>
<event>
 4    5  0.1112901E-007  0.9943640E+03  0.7818608E-02  0.9388969E-01
          2   -1    0    0  501    0  0.00000000000E+00  0.00000000000E+00  0.14229569100E+04  0.14229569100E+04  0.25500000000E-02 0. -1.
         -2   -1    0    0    0  501 -0.00000000000E+00 -0.00000000000E+00 -0.69312126371E+03  0.69312126372E+03  0.25500000000E-02 0.  1.
    8880023    1    1    2    0    0 -0.32784792856E+03 -0.66892845596E+03 -0.89276379523E+02  0.99836367204E+03  0.65864270000E+03 0.  1.
    8880022    1    1    2    0    0  0.32784792856E+03  0.66892845596E+03  0.81911202586E+03  0.11177145017E+04  0.15294330000E+03 0.  0.
<mgrwt>
<rscale>  0 0.92989103E+03</rscale>
<asrwt>0</asrwt>
<pdfrwt beam="1">  1        2 0.21891645E+00 0.99436399E+03</pdfrwt>
<pdfrwt beam="2">  1       -2 0.10663404E+00 0.99436399E+03</pdfrwt>
<totfact> 0.98947413E+00</totfact>
</mgrwt>
</event>
<event>
 4    5  0.1112901E-007  0.1106703E+04  0.7818608E-02  0.9253629E-01
          2   -1    0    0  501    0  0.00000000000E+00  0.00000000000E+00  0.77445013083E+03  0.77445013083E+03  0.25500000000E-02 0. -1.
         -2   -1    0    0    0  501 -0.00000000000E+00 -0.00000000000E+00 -0.20132775715E+04  0.20132775715E+04  0.25500000000E-02 0.  1.
    8880023    1    1    2    0    0  0.87424160232E+03  0.16335070547E+03 -0.14852783749E+04  0.18522537325E+04  0.65864270000E+03 0.  0.
    8880022    1    1    2    0    0 -0.87424160232E+03 -0.16335070547E+03  0.24645093428E+03  0.93547396983E+03  0.15294330000E+03 0.  0.
<mgrwt>
<rscale>  0 0.10516624E+04</rscale>
<asrwt>0</asrwt>
<pdfrwt beam="1">  1        2 0.11914618E+00 0.11067032E+04</pdfrwt>
<pdfrwt beam="2">  1       -2 0.30973501E+00 0.11067032E+04</pdfrwt>
<totfact> 0.98864541E-01</totfact>
</mgrwt>
</event>
<event>
 4    5  0.1112901E-007  0.8198573E+03  0.7818608E-02  0.9669399E-01
         -2   -1    0    0    0  501 -0.00000000000E+00  0.00000000000E+00  0.19448428286E+04  0.19448428286E+04  0.25500000000E-02 0.  1.
          2   -1    0    0  501    0  0.00000000000E+00 -0.00000000000E+00 -0.44625267687E+03  0.44625267687E+03  0.25500000000E-02 0. -1.
    8880023    1    1    2    0    0 -0.78663919945E+02  0.48183795055E+03  0.16626688345E+04  0.18538159785E+04  0.65864270000E+03 0.  1.
    8880022    1    1    2    0    0  0.78663919945E+02 -0.48183795055E+03 -0.16407868276E+03  0.53727952692E+03  0.15294330000E+03 0.  0.
<mgrwt>
<rscale>  0 0.72868365E+03</rscale>
<asrwt>0</asrwt>
<pdfrwt beam="1">  1        2 0.68654259E-01 0.81985732E+03</pdfrwt>
<pdfrwt beam="2">  1       -2 0.29920658E+00 0.81985732E+03</pdfrwt>
<totfact> 0.23255465E+00</totfact>
</mgrwt>
</event>
<event>
 4    5  0.1112901E-007  0.1191470E+04  0.7818608E-02  0.9165459E-01
         -2   -1    0    0    0  501 -0.00000000000E+00  0.00000000000E+00  0.86168577637E+03  0.86168577637E+03  0.25500000000E-02 0.  1.
          2   -1    0    0  501    0  0.00000000000E+00 -0.00000000000E+00 -0.27040019805E+04  0.27040019805E+04  0.25500000000E-02 0. -1.
    8880023    1    1    2    0    0  0.76549911288E+03  0.63229807967E+03  0.27442162761E+03  0.12226639724E+04  0.65864270000E+03 0.  0.
    8880022    1    1    2    0    0 -0.76549911288E+03 -0.63229807967E+03 -0.21167378317E+04  0.23430237845E+04  0.15294330000E+03 0.  0.
<mgrwt>
<rscale>  0 0.11417168E+04</rscale>
<asrwt>0</asrwt>
<pdfrwt beam="1">  1        2 0.41600030E+00 0.11914697E+04</pdfrwt>
<pdfrwt beam="2">  1       -2 0.13256704E+00 0.11914697E+04</pdfrwt>
<totfact> 0.10728947E+00</totfact>
</mgrwt>
</event>
<event>
 4    5  0.1112901E-007  0.9714468E+03  0.7818608E-02  0.9419906E-01
         -2   -1    0    0    0  501 -0.00000000000E+00  0.00000000000E+00  0.94710802497E+03  0.94710802497E+03  0.25500000000E-02 0.  1.
          2   -1    0    0  501    0  0.00000000000E+00 -0.00000000000E+00 -0.10467569215E+04  0.10467569215E+04  0.25500000000E-02 0. -1.
    8880023    1    1    2    0    0  0.25784671092E+03  0.66589320734E+03  0.45899484187E+03  0.10744231760E+04  0.65864270000E+03 0.  1.
    8880022    1    1    2    0    0 -0.25784671092E+03 -0.66589320734E+03 -0.55864373843E+03  0.91944177054E+03  0.15294330000E+03 0.  0.
<mgrwt>
<rscale>  0 0.90455449E+03</rscale>
<asrwt>0</asrwt>
<pdfrwt beam="1">  1        2 0.16103953E+00 0.97144681E+03</pdfrwt>
<pdfrwt beam="2">  1       -2 0.14570893E+00 0.97144681E+03</pdfrwt>
<totfact> 0.75633818E+00</totfact>
</mgrwt>
</event>
<event>
 4    5  0.1112901E-007  0.1636975E+04  0.7818608E-02  0.8818518E-01
          2   -1    0    0  501    0  0.00000000000E+00  0.00000000000E+00  0.23219768657E+04  0.23219768657E+04  0.25500000000E-02 0. -1.
         -2   -1    0    0    0  501 -0.00000000000E+00 -0.00000000000E+00 -0.13414492583E+04  0.13414492583E+04  0.25500000000E-02 0.  1.
    8880023    1    1    2    0    0 -0.10183835704E+03 -0.14951605538E+04 -0.32628703745E+03  0.16691763147E+04  0.65864270000E+03 0.  0.
    8880022    1    1    2    0    0  0.10183835704E+03  0.14951605538E+04  0.13068146449E+04  0.19942498092E+04  0.15294330000E+03 0.  0.
<mgrwt>
<rscale>  0 0.16033089E+04</rscale>
<asrwt>0</asrwt>
<pdfrwt beam="1">  1        2 0.35722721E+00 0.16369748E+04</pdfrwt>
<pdfrwt beam="2">  1       -2 0.20637681E+00 0.16369748E+04</pdfrwt>
<totfact> 0.49276483E-01</totfact>
</mgrwt>
</event>
<event>
 4    5  0.1112901E-007  0.1197133E+04  0.7818608E-02  0.9159914E-01
         -2   -1    0    0    0  501 -0.00000000000E+00  0.00000000000E+00  0.88778698792E+03  0.88778698792E+03  0.25500000000E-02 0.  1.
          2   -1    0    0  501    0  0.00000000000E+00 -0.00000000000E+00 -0.25437759209E+04  0.25437759209E+04  0.25500000000E-02 0. -1.
    8880023    1    1    2    0    0  0.99894737104E+03  0.37713657229E+02  0.29597910170E+03  0.12331796321E+04  0.65864270000E+03 0.  0.
    8880022    1    1    2    0    0 -0.99894737104E+03 -0.37713657229E+02 -0.19519680347E+04  0.21983832767E+04  0.15294330000E+03 0.  0.
<mgrwt>
<rscale>  0 0.11476936E+04</rscale>
<asrwt>0</asrwt>
<pdfrwt beam="1">  1        2 0.39135014E+00 0.11971334E+04</pdfrwt>
<pdfrwt beam="2">  1       -2 0.13658262E+00 0.11971334E+04</pdfrwt>
<totfact> 0.12316688E+00</totfact>
</mgrwt>
</event>
<event>
 4    5  0.1112901E-007  0.8694479E+03  0.7818608E-02  0.9576973E-01
         -2   -1    0    0    0  501 -0.00000000000E+00  0.00000000000E+00  0.23233602084E+03  0.23233602086E+03  0.25500000000E-02 0.  1.
          2   -1    0    0  501    0  0.00000000000E+00 -0.00000000000E+00 -0.28446954722E+04  0.28446954722E+04  0.25500000000E-02 0. -1.
    8880023    1    1    2    0    0 -0.35700242402E+03 -0.44122405857E+03 -0.21810409618E+04  0.23479521468E+04  0.65864270000E+03 0. -1.
    8880022    1    1    2    0    0  0.35700242402E+03  0.44122405857E+03 -0.43131848959E+03  0.72907934623E+03  0.15294330000E+03 0.  0.
<mgrwt>
<rscale>  0 0.78839158E+03</rscale>
<asrwt>0</asrwt>
<pdfrwt beam="1">  1        2 0.43764543E+00 0.86944787E+03</pdfrwt>
<pdfrwt beam="2">  1       -2 0.35744005E-01 0.86944787E+03</pdfrwt>
<totfact> 0.16567197E+01</totfact>
</mgrwt>
</event>
<event>
 4    5  0.1112901E-007  0.8508883E+03  0.7818608E-02  0.9609981E-01
         -2   -1    0    0    0  501 -0.00000000000E+00  0.00000000000E+00  0.93052005072E+03  0.93052005072E+03  0.25500000000E-02 0.  1.
          2   -1    0    0  501    0  0.00000000000E+00 -0.00000000000E+00 -0.24018915032E+04  0.24018915032E+04  0.25500000000E-02 0. -1.
    8880023    1    1    2    0    0 -0.36756681361E+03  0.39382151141E+03  0.69261334260E+03  0.10971436524E+04  0.65864270000E+03 0.  1.
    8880022    1    1    2    0    0  0.36756681361E+03 -0.39382151141E+03 -0.21639847951E+04  0.22352679015E+04  0.15294330000E+03 0.  0.
<mgrwt>
<rscale>  0 0.76639051E+03</rscale>
<asrwt>0</asrwt>
<pdfrwt beam="1">  1        2 0.36952177E+00 0.85088833E+03</pdfrwt>
<pdfrwt beam="2">  1       -2 0.14315693E+00 0.85088833E+03</pdfrwt>
<totfact> 0.13825840E+00</totfact>
</mgrwt>
</event>
<event>
 4    5  0.1112901E-007  0.1137126E+04  0.7818608E-02  0.9220805E-01
          2   -1    0    0  501    0  0.00000000000E+00  0.00000000000E+00  0.95039950587E+03  0.95039950588E+03  0.25500000000E-02 0. -1.
         -2   -1    0    0    0  501 -0.00000000000E+00 -0.00000000000E+00 -0.14715439418E+04  0.14715439418E+04  0.25500000000E-02 0.  1.
    8880023    1    1    2    0    0 -0.27603397519E+03 -0.88490113247E+03 -0.85734502672E+03  0.14241121693E+04  0.65864270000E+03 0.  0.
    8880022    1    1    2    0    0  0.27603397519E+03  0.88490113247E+03  0.33620059082E+03  0.99783127832E+03  0.15294330000E+03 0.  0.
<mgrwt>
<rscale>  0 0.10841244E+04</rscale>
<asrwt>0</asrwt>
<pdfrwt beam="1">  1        2 0.14621531E+00 0.11371258E+04</pdfrwt>
<pdfrwt beam="2">  1       -2 0.22639138E+00 0.11371258E+04</pdfrwt>
<totfact> 0.23942534E+00</totfact>
</mgrwt>
</event>
<event>
 4    5  0.1247863E-007  0.2034483E+04  0.7818608E-02  0.8602843E-01
         -2   -1    0    0    0  501 -0.00000000000E+00  0.00000000000E+00  0.19581525451E+04  0.19581525451E+04  0.25500000000E-02 0.  1.
          2   -1    0    0  501    0  0.00000000000E+00 -0.00000000000E+00 -0.31594579100E+04  0.31594579100E+04  0.25500000000E-02 0. -1.
    8880023    1    1    2    0    0 -0.48150690014E+03  0.18637230583E+04  0.93404146155E+03  0.22386505291E+04  0.65864270000E+03 0.  0.
    8880022    1    1    2    0    0  0.48150690014E+03 -0.18637230583E+04 -0.21353468265E+04  0.28789599260E+04  0.15294330000E+03 0.  0.
<mgrwt>
<rscale>  0 0.20081001E+04</rscale>
<asrwt>0</asrwt>
<pdfrwt beam="1">  1        2 0.48607045E+00 0.20344834E+04</pdfrwt>
<pdfrwt beam="2">  1       -2 0.30125424E+00 0.20344834E+04</pdfrwt>
<totfact> 0.37911146E-02</totfact>
</mgrwt>
</event>
<event>
 4    5  0.1112901E-007  0.9121293E+03  0.7818608E-02  0.9506834E-01
         -2   -1    0    0    0  501 -0.00000000000E+00  0.00000000000E+00  0.19708736536E+04  0.19708736536E+04  0.25500000000E-02 0.  1.
          2   -1    0    0  501    0  0.00000000000E+00 -0.00000000000E+00 -0.47665858501E+03  0.47665858501E+03  0.25500000000E-02 0. -1.
    8880023    1    1    2    0    0 -0.61774635073E+03 -0.12868209251E+03  0.15472456160E+04  0.17960926583E+04  0.65864270000E+03 0.  0.
    8880022    1    1    2    0    0  0.61774635073E+03  0.12868209251E+03 -0.53030547424E+02  0.65143958027E+03  0.15294330000E+03 0.  0.
<mgrwt>
<rscale>  0 0.83781840E+03</rscale>
<asrwt>0</asrwt>
<pdfrwt beam="1">  1        2 0.73332092E-01 0.91212929E+03</pdfrwt>
<pdfrwt beam="2">  1       -2 0.30321132E+00 0.91212929E+03</pdfrwt>
<totfact> 0.20141109E+00</totfact>
</mgrwt>
</event>
<event>
 4    5  0.1112901E-007  0.6635083E+03  0.7818608E-02  0.1020819E+00
          2   -1    0    0  501    0  0.00000000000E+00  0.00000000000E+00  0.16725030550E+04  0.16725030550E+04  0.25500000000E-02 0. -1.
         -2   -1    0    0    0  501 -0.00000000000E+00 -0.00000000000E+00 -0.57277953626E+03  0.57277953627E+03  0.25500000000E-02 0.  1.
    8880023    1    1    2    0    0  0.42226951196E+02  0.68190179298E+02 -0.37387816874E+03  0.76159576370E+03  0.65864270000E+03 0.  1.
    8880022    1    1    2    0    0 -0.42226951196E+02 -0.68190179298E+02  0.14736016875E+04  0.14836868276E+04  0.15294330000E+03 0.  0.
<mgrwt>
<rscale>  0 0.47392182E+03</rscale>
<asrwt>0</asrwt>
<pdfrwt beam="1">  1        2 0.25730816E+00 0.66350827E+03</pdfrwt>
<pdfrwt beam="2">  1       -2 0.88119929E-01 0.66350827E+03</pdfrwt>
<totfact> 0.11734641E+01</totfact>
</mgrwt>
</event>
<event>
 4    5  0.1112901E-007  0.1179156E+04  0.7818608E-02  0.9177655E-01
          2   -1    0    0  501    0  0.00000000000E+00  0.00000000000E+00  0.15723325019E+04  0.15723325019E+04  0.25500000000E-02 0. -1.
         -2   -1    0    0    0  501 -0.00000000000E+00 -0.00000000000E+00 -0.10756996084E+04  0.10756996084E+04  0.25500000000E-02 0.  1.
    8880023    1    1    2    0    0 -0.97750168736E+03  0.33002860206E+02 -0.46535960003E+03  0.12676626133E+04  0.65864270000E+03 0.  0.
    8880022    1    1    2    0    0  0.97750168736E+03 -0.33002860206E+02  0.96199249359E+03  0.13803694970E+04  0.15294330000E+03 0.  0.
<mgrwt>
<rscale>  0 0.11287069E+04</rscale>
<asrwt>0</asrwt>
<pdfrwt beam="1">  1        2 0.24189731E+00 0.11791560E+04</pdfrwt>
<pdfrwt beam="2">  1       -2 0.16549225E+00 0.11791560E+04</pdfrwt>
<totfact> 0.25824693E+00</totfact>
</mgrwt>
</event>
<event>
 4    5  0.1112901E-007  0.1118643E+04  0.7818608E-02  0.9240578E-01
          2   -1    0    0  501    0  0.00000000000E+00  0.00000000000E+00  0.19399619946E+04  0.19399619946E+04  0.25500000000E-02 0. -1.
         -2   -1    0    0    0  501 -0.00000000000E+00 -0.00000000000E+00 -0.73223759982E+03  0.73223759982E+03  0.25500000000E-02 0.  1.
    8880023    1    1    2    0    0 -0.85928670211E+03  0.28138506894E+03 -0.45177730961E+02  0.11195545664E+04  0.65864270000E+03 0.  0.
    8880022    1    1    2    0    0  0.85928670211E+03 -0.28138506894E+03  0.12529021257E+04  0.15526450280E+04  0.15294330000E+03 0. -1.
<mgrwt>
<rscale>  0 0.10644232E+04</rscale>
<asrwt>0</asrwt>
<pdfrwt beam="1">  1        2 0.29845569E+00 0.11186427E+04</pdfrwt>
<pdfrwt beam="2">  1       -2 0.11265194E+00 0.11186427E+04</pdfrwt>
<totfact> 0.44079737E+00</totfact>
</mgrwt>
</event>
<event>
 4    5  0.1112901E-007  0.7074460E+03  0.7818608E-02  0.9967610E-01
          2   -1    0    0  501    0  0.00000000000E+00  0.00000000000E+00  0.13687737484E+04  0.13687737484E+04  0.25500000000E-02 0. -1.
         -2   -1    0    0    0  501 -0.00000000000E+00 -0.00000000000E+00 -0.37828820992E+03  0.37828820993E+03  0.25500000000E-02 0.  1.
    8880023    1    1    2    0    0  0.25785493960E+03  0.13435062800E+02 -0.48562676444E+01  0.70746269187E+03  0.65864270000E+03 0.  1.
    8880022    1    1    2    0    0 -0.25785493960E+03 -0.13435062800E+02  0.99534180615E+03  0.10395992665E+04  0.15294330000E+03 0.  0.
<mgrwt>
<rscale>  0 0.57093580E+03</rscale>
<asrwt>0</asrwt>
<pdfrwt beam="1">  1        2 0.21058058E+00 0.70744602E+03</pdfrwt>
<pdfrwt beam="2">  1       -2 0.58198186E-01 0.70744602E+03</pdfrwt>
<totfact> 0.42695872E+01</totfact>
</mgrwt>
</event>
<event>
 4    5  0.1112901E-007  0.7414501E+03  0.7818608E-02  0.9855743E-01
         -2   -1    0    0    0  501 -0.00000000000E+00  0.00000000000E+00  0.26314143926E+03  0.26314143928E+03  0.25500000000E-02 0.  1.
          2   -1    0    0  501    0  0.00000000000E+00 -0.00000000000E+00 -0.17666830296E+04  0.17666830296E+04  0.25500000000E-02 0. -1.
    8880023    1    1    2    0    0  0.80973897220E+02 -0.33072835638E+03 -0.35481551994E+03  0.82197462078E+03  0.65864270000E+03 0.  0.
    8880022    1    1    2    0    0 -0.80973897220E+02  0.33072835638E+03 -0.11487260704E+04  0.12078498481E+04  0.15294330000E+03 0.  0.
<mgrwt>
<rscale>  0 0.62454954E+03</rscale>
<asrwt>0</asrwt>
<pdfrwt beam="1">  1        2 0.27179738E+00 0.74145008E+03</pdfrwt>
<pdfrwt beam="2">  1       -2 0.40483299E-01 0.74145008E+03</pdfrwt>
<totfact> 0.53391210E+01</totfact>
</mgrwt>
</event>
<event>
 4    5  0.1112901E-007  0.6882405E+03  0.7818608E-02  0.1005000E+00
          2   -1    0    0  501    0  0.00000000000E+00  0.00000000000E+00  0.99907215712E+03  0.99907215712E+03  0.25500000000E-02 0. -1.
         -2   -1    0    0    0  501 -0.00000000000E+00 -0.00000000000E+00 -0.12191149213E+04  0.12191149213E+04  0.25500000000E-02 0.  1.
    8880023    1    1    2    0    0 -0.60774945233E+02 -0.19018715042E+03 -0.11029991266E+04  0.13001084669E+04  0.65864270000E+03 0.  0.
    8880022    1    1    2    0    0  0.60774945233E+02  0.19018715042E+03  0.88295636237E+03  0.91807861157E+03  0.15294330000E+03 0. -1.
<mgrwt>
<rscale>  0 0.53511018E+03</rscale>
<asrwt>0</asrwt>
<pdfrwt beam="1">  1        2 0.15370341E+00 0.68824048E+03</pdfrwt>
<pdfrwt beam="2">  1       -2 0.18755614E+00 0.68824048E+03</pdfrwt>
<totfact> 0.41897429E+00</totfact>
</mgrwt>
</event>
<event>
 4    5  0.1112901E-007  0.8788232E+03  0.7818608E-02  0.9560920E-01
          2   -1    0    0  501    0  0.00000000000E+00  0.00000000000E+00  0.49414316923E+03  0.49414316924E+03  0.25500000000E-02 0. -1.
         -2   -1    0    0    0  501 -0.00000000000E+00 -0.00000000000E+00 -0.20529079972E+04  0.20529079972E+04  0.25500000000E-02 0.  1.
    8880023    1    1    2    0    0 -0.51474508193E+03 -0.27121495908E+03 -0.17136363055E+04  0.19258451773E+04  0.65864270000E+03 0.  1.
    8880022    1    1    2    0    0  0.51474508193E+03  0.27121495908E+03  0.15487147747E+03  0.62120598914E+03  0.15294330000E+03 0.  0.
<mgrwt>
<rscale>  0 0.79937668E+03</rscale>
<asrwt>0</asrwt>
<pdfrwt beam="1">  1        2 0.76022027E-01 0.87882322E+03</pdfrwt>
<pdfrwt beam="2">  1       -2 0.31583199E+00 0.87882322E+03</pdfrwt>
<totfact> 0.16264716E+00</totfact>
</mgrwt>
</event>
<event>
 4    5  0.1112901E-007  0.1003278E+04  0.7818608E-02  0.9377282E-01
         -2   -1    0    0    0  501 -0.00000000000E+00  0.00000000000E+00  0.50145844243E+03  0.50145844244E+03  0.25500000000E-02 0.  1.
          2   -1    0    0  501    0  0.00000000000E+00 -0.00000000000E+00 -0.27778414008E+04  0.27778414008E+04  0.25500000000E-02 0. -1.
    8880023    1    1    2    0    0  0.59148235373E+03  0.47212755493E+03 -0.14666388316E+03  0.10139409765E+04  0.65864270000E+03 0.  0.
    8880022    1    1    2    0    0 -0.59148235373E+03 -0.47212755493E+03 -0.21297190752E+04  0.22653588667E+04  0.15294330000E+03 0.  0.
<mgrwt>
<rscale>  0 0.93969098E+03</rscale>
<asrwt>0</asrwt>
<pdfrwt beam="1">  1        2 0.42736021E+00 0.10032776E+04</pdfrwt>
<pdfrwt beam="2">  1       -2 0.77147455E-01 0.10032776E+04</pdfrwt>
<totfact> 0.36325931E+00</totfact>
</mgrwt>
</event>
<event>
 4    5  0.1112901E-007  0.7074997E+03  0.7818608E-02  0.9967405E-01
          2   -1    0    0  501    0  0.00000000000E+00  0.00000000000E+00  0.57560397505E+03  0.57560397506E+03  0.25500000000E-02 0. -1.
         -2   -1    0    0    0  501 -0.00000000000E+00 -0.00000000000E+00 -0.27714619344E+04  0.27714619344E+04  0.25500000000E-02 0.  1.
    8880023    1    1    2    0    0  0.25496209010E+03  0.41713485370E+02 -0.26830675295E+04  0.27747805780E+04  0.65864270000E+03 0.  0.
    8880022    1    1    2    0    0 -0.25496209010E+03 -0.41713485370E+02  0.48720957016E+03  0.57228533139E+03  0.15294330000E+03 0. -1.
<mgrwt>
<rscale>  0 0.57102853E+03</rscale>
<asrwt>0</asrwt>
<pdfrwt beam="1">  1        2 0.88554459E-01 0.70749974E+03</pdfrwt>
<pdfrwt beam="2">  1       -2 0.42637875E+00 0.70749974E+03</pdfrwt>
<totfact> 0.27938252E-01</totfact>
</mgrwt>
</event>
<event>
 4    5  0.1112901E-007  0.9756258E+03  0.7818608E-02  0.9414165E-01
          2   -1    0    0  501    0  0.00000000000E+00  0.00000000000E+00  0.21163143067E+04  0.21163143067E+04  0.25500000000E-02 0. -1.
         -2   -1    0    0    0  501 -0.00000000000E+00 -0.00000000000E+00 -0.66721285840E+03  0.66721285840E+03  0.25500000000E-02 0.  1.
    8880023    1    1    2    0    0  0.18779844267E+03  0.69481451929E+03 -0.18353328448E+03  0.99273870886E+03  0.65864270000E+03 0.  0.
    8880022    1    1    2    0    0 -0.18779844267E+03 -0.69481451929E+03  0.16326347328E+04  0.17907884562E+04  0.15294330000E+03 0.  0.
<mgrwt>
<rscale>  0 0.90919064E+03</rscale>
<asrwt>0</asrwt>
<pdfrwt beam="1">  1        2 0.32558681E+00 0.97562579E+03</pdfrwt>
<pdfrwt beam="2">  1       -2 0.10264813E+00 0.97562579E+03</pdfrwt>
<totfact> 0.44879955E+00</totfact>
</mgrwt>
</event>
<event>
 4    5  0.1112901E-007  0.1644908E+04  0.7818608E-02  0.8813557E-01
          2   -1    0    0  501    0  0.00000000000E+00  0.00000000000E+00  0.39245306194E+04  0.39245306194E+04  0.25500000000E-02 0. -1.
         -2   -1    0    0    0  501 -0.00000000000E+00 -0.00000000000E+00 -0.65003549094E+03  0.65003549094E+03  0.25500000000E-02 0.  1.
    8880023    1    1    2    0    0  0.13332392820E+04 -0.70312551407E+03  0.13681774061E+04  0.21395401591E+04  0.65864270000E+03 0.  0.
    8880022    1    1    2    0    0 -0.13332392820E+04  0.70312551407E+03  0.19063177223E+04  0.24350259512E+04  0.15294330000E+03 0.  0.
<mgrwt>
<rscale>  0 0.16114293E+04</rscale>
<asrwt>0</asrwt>
<pdfrwt beam="1">  1        2 0.60377394E+00 0.16449081E+04</pdfrwt>
<pdfrwt beam="2">  1       -2 0.10000546E+00 0.16449081E+04</pdfrwt>
<totfact> 0.30908460E-01</totfact>
</mgrwt>
</event>
<event>
 4    5  0.1112901E-007  0.1519836E+04  0.7818608E-02  0.8895755E-01
          2   -1    0    0  501    0  0.00000000000E+00  0.00000000000E+00  0.37259642707E+04  0.37259642707E+04  0.25500000000E-02 0. -1.
         -2   -1    0    0    0  501 -0.00000000000E+00 -0.00000000000E+00 -0.70243614042E+03  0.70243614043E+03  0.25500000000E-02 0.  1.
    8880023    1    1    2    0    0  0.39199336746E+03 -0.13124147483E+04  0.25547326803E+04  0.29726352863E+04  0.65864270000E+03 0.  0.
    8880022    1    1    2    0    0 -0.39199336746E+03  0.13124147483E+04  0.46879544997E+03  0.14557651248E+04  0.15294330000E+03 0.  0.
<mgrwt>
<rscale>  0 0.14831223E+04</rscale>
<asrwt>0</asrwt>
<pdfrwt beam="1">  1        2 0.57322526E+00 0.15198360E+04</pdfrwt>
<pdfrwt beam="2">  1       -2 0.10806710E+00 0.15198360E+04</pdfrwt>
<totfact> 0.36809246E-01</totfact>
</mgrwt>
</event>
<event>
 4    5  0.1112901E-007  0.1140883E+04  0.7818608E-02  0.9216847E-01
          2   -1    0    0  501    0  0.00000000000E+00  0.00000000000E+00  0.19282100599E+04  0.19282100599E+04  0.25500000000E-02 0. -1.
         -2   -1    0    0    0  501 -0.00000000000E+00 -0.00000000000E+00 -0.12629214600E+04  0.12629214600E+04  0.25500000000E-02 0.  1.
    8880023    1    1    2    0    0  0.49365588608E+03 -0.79000451773E+03 -0.83829814210E+03  0.14157532459E+04  0.65864270000E+03 0.  1.
    8880022    1    1    2    0    0 -0.49365588608E+03  0.79000451773E+03  0.15035867420E+04  0.17753782740E+04  0.15294330000E+03 0.  0.
<mgrwt>
<rscale>  0 0.10881214E+04</rscale>
<asrwt>0</asrwt>
<pdfrwt beam="1">  1        2 0.29664770E+00 0.11408828E+04</pdfrwt>
<pdfrwt beam="2">  1       -2 0.19429561E+00 0.11408828E+04</pdfrwt>
<totfact> 0.10394873E+00</totfact>
</mgrwt>
</event>
<event>
 4    5  0.1112901E-007  0.6813366E+03  0.7818608E-02  0.1008577E+00
          2   -1    0    0  501    0  0.00000000000E+00  0.00000000000E+00  0.16919913299E+04  0.16919913299E+04  0.25500000000E-02 0. -1.
         -2   -1    0    0    0  501 -0.00000000000E+00 -0.00000000000E+00 -0.24415994959E+03  0.24415994960E+03  0.25500000000E-02 0.  1.
    8880023    1    1    2    0    0  0.16900400620E+03  0.42977201019E+02  0.26542879117E+03  0.73121272101E+03  0.65864270000E+03 0.  1.
    8880022    1    1    2    0    0 -0.16900400620E+03 -0.42977201019E+02  0.11824025892E+04  0.12049385585E+04  0.15294330000E+03 0.  0.
<mgrwt>
<rscale>  0 0.52043937E+03</rscale>
<asrwt>0</asrwt>
<pdfrwt beam="1">  1        2 0.26030636E+00 0.68133663E+03</pdfrwt>
<pdfrwt beam="2">  1       -2 0.37563069E-01 0.68133663E+03</pdfrwt>
<totfact> 0.68277018E+01</totfact>
</mgrwt>
</event>
<event>
 4    5  0.1112901E-007  0.7416255E+03  0.7818608E-02  0.9855237E-01
         -2   -1    0    0    0  501 -0.00000000000E+00  0.00000000000E+00  0.29097339721E+03  0.29097339722E+03  0.25500000000E-02 0.  1.
          2   -1    0    0  501    0  0.00000000000E+00 -0.00000000000E+00 -0.18509057264E+04  0.18509057264E+04  0.25500000000E-02 0. -1.
    8880023    1    1    2    0    0 -0.13725892961E+03  0.31202272907E+03 -0.25456946342E+03  0.78410076851E+03  0.65864270000E+03 0.  1.
    8880022    1    1    2    0    0  0.13725892961E+03 -0.31202272907E+03 -0.13053628658E+04  0.13577783551E+04  0.15294330000E+03 0.  0.
<mgrwt>
<rscale>  0 0.62480605E+03</rscale>
<asrwt>0</asrwt>
<pdfrwt beam="1">  1        2 0.28475472E+00 0.74162551E+03</pdfrwt>
<pdfrwt beam="2">  1       -2 0.44765139E-01 0.74162551E+03</pdfrwt>
<totfact> 0.39392059E+01</totfact>
</mgrwt>
</event>
<event>
 4    5  0.1112901E-007  0.6977301E+03  0.7818608E-02  0.1000675E+00
         -2   -1    0    0    0  501 -0.00000000000E+00  0.00000000000E+00  0.12059663261E+03  0.12059663263E+03  0.25500000000E-02 0.  1.
          2   -1    0    0  501    0  0.00000000000E+00 -0.00000000000E+00 -0.25509310841E+04  0.25509310841E+04  0.25500000000E-02 0. -1.
    8880023    1    1    2    0    0 -0.37700455829E+02 -0.22714691294E+03 -0.10293812856E+04  0.12435646673E+04  0.65864270000E+03 0.  0.
    8880022    1    1    2    0    0  0.37700455829E+02  0.22714691294E+03 -0.14009531659E+04  0.14279630494E+04  0.15294330000E+03 0.  0.
<mgrwt>
<rscale>  0 0.55355201E+03</rscale>
<asrwt>0</asrwt>
<pdfrwt beam="1">  1        2 0.39245089E+00 0.69773007E+03</pdfrwt>
<pdfrwt beam="2">  1       -2 0.18553330E-01 0.69773007E+03</pdfrwt>
<totfact> 0.82845288E+01</totfact>
</mgrwt>
</event>
<event>
 4    5  0.1112901E-007  0.8524337E+03  0.7818608E-02  0.9607167E-01
         -2   -1    0    0    0  501 -0.00000000000E+00  0.00000000000E+00  0.85193915370E+03  0.85193915371E+03  0.25500000000E-02 0.  1.
          2   -1    0    0  501    0  0.00000000000E+00 -0.00000000000E+00 -0.19947543609E+04  0.19947543609E+04  0.25500000000E-02 0. -1.
    8880023    1    1    2    0    0  0.41239756860E+03  0.35037293010E+03  0.58223599727E+03  0.10322993304E+04  0.65864270000E+03 0.  1.
    8880022    1    1    2    0    0 -0.41239756860E+03 -0.35037293010E+03 -0.17250512044E+04  0.18143941842E+04  0.15294330000E+03 0.  0.
<mgrwt>
<rscale>  0 0.76823643E+03</rscale>
<asrwt>0</asrwt>
<pdfrwt beam="1">  1        2 0.30688529E+00 0.85243366E+03</pdfrwt>
<pdfrwt beam="2">  1       -2 0.13106756E+00 0.85243366E+03</pdfrwt>
<totfact> 0.29166876E+00</totfact>
</mgrwt>
</event>
<event>
 4    5  0.1112901E-007  0.1450814E+04  0.7818608E-02  0.8945172E-01
         -2   -1    0    0    0  501 -0.00000000000E+00  0.00000000000E+00  0.27125747432E+04  0.27125747432E+04  0.25500000000E-02 0.  1.
          2   -1    0    0  501    0  0.00000000000E+00 -0.00000000000E+00 -0.73783275534E+03  0.73783275535E+03  0.25500000000E-02 0. -1.
    8880023    1    1    2    0    0 -0.71083667185E+03 -0.10797053690E+04  0.63902885507E+03  0.15853140199E+04  0.65864270000E+03 0. -1.
    8880022    1    1    2    0    0  0.71083667185E+03  0.10797053690E+04  0.13357131328E+04  0.18650934786E+04  0.15294330000E+03 0.  0.
<mgrwt>
<rscale>  0 0.14120085E+04</rscale>
<asrwt>0</asrwt>
<pdfrwt beam="1">  1        2 0.11351273E+00 0.14508145E+04</pdfrwt>
<pdfrwt beam="2">  1       -2 0.41731919E+00 0.14508145E+04</pdfrwt>
<totfact> 0.21011594E-01</totfact>
</mgrwt>
</event>
<event>
 4    5  0.1112901E-007  0.1319579E+04  0.7818608E-02  0.9048834E-01
          2   -1    0    0  501    0  0.00000000000E+00  0.00000000000E+00  0.18502065859E+04  0.18502065859E+04  0.25500000000E-02 0. -1.
         -2   -1    0    0    0  501 -0.00000000000E+00 -0.00000000000E+00 -0.20482525752E+04  0.20482525752E+04  0.25500000000E-02 0.  1.
    8880023    1    1    2    0    0  0.92296017601E+03  0.67499779374E+03 -0.16057745543E+04  0.20784127678E+04  0.65864270000E+03 0.  0.
    8880022    1    1    2    0    0 -0.92296017601E+03 -0.67499779374E+03  0.14077285650E+04  0.18200463933E+04  0.15294330000E+03 0.  0.
<mgrwt>
<rscale>  0 0.12759785E+04</rscale>
<asrwt>0</asrwt>
<pdfrwt beam="1">  1        2 0.28464716E+00 0.13195786E+04</pdfrwt>
<pdfrwt beam="2">  1       -2 0.31511578E+00 0.13195786E+04</pdfrwt>
<totfact> 0.19956142E-01</totfact>
</mgrwt>
</event>
<event>
 4    5  0.1112901E-007  0.7910458E+03  0.7818608E-02  0.9730502E-01
          2   -1    0    0  501    0  0.00000000000E+00  0.00000000000E+00  0.75483959719E+03  0.75483959719E+03  0.25500000000E-02 0. -1.
         -2   -1    0    0    0  501 -0.00000000000E+00 -0.00000000000E+00 -0.12387082222E+04  0.12387082222E+04  0.25500000000E-02 0.  1.
    8880023    1    1    2    0    0  0.16847559884E+03  0.40442453902E+03 -0.10159133130E+04  0.12875687558E+04  0.65864270000E+03 0.  1.
    8880022    1    1    2    0    0 -0.16847559884E+03 -0.40442453902E+03  0.53204468799E+03  0.70597906357E+03  0.15294330000E+03 0.  0.
<mgrwt>
<rscale>  0 0.69229392E+03</rscale>
<asrwt>0</asrwt>
<pdfrwt beam="1">  1        2 0.11612917E+00 0.79104579E+03</pdfrwt>
<pdfrwt beam="2">  1       -2 0.19057050E+00 0.79104579E+03</pdfrwt>
<totfact> 0.57986850E+00</totfact>
</mgrwt>
</event>
<event>
 4    5  0.1112901E-007  0.7074918E+03  0.7818608E-02  0.9967436E-01
         -2   -1    0    0    0  501 -0.00000000000E+00  0.00000000000E+00  0.44145186396E+03  0.44145186396E+03  0.25500000000E-02 0.  1.
          2   -1    0    0  501    0  0.00000000000E+00 -0.00000000000E+00 -0.13867096765E+04  0.13867096765E+04  0.25500000000E-02 0. -1.
    8880023    1    1    2    0    0  0.24402229871E+03 -0.84779415145E+02  0.12336798219E+03  0.71816731810E+03  0.65864270000E+03 0.  1.
    8880022    1    1    2    0    0 -0.24402229871E+03  0.84779415145E+02 -0.10686257947E+04  0.11099942223E+04  0.15294330000E+03 0.  0.
<mgrwt>
<rscale>  0 0.57101480E+03</rscale>
<asrwt>0</asrwt>
<pdfrwt beam="1">  1        2 0.21333995E+00 0.70749179E+03</pdfrwt>
<pdfrwt beam="2">  1       -2 0.67915672E-01 0.70749179E+03</pdfrwt>
<totfact> 0.30012402E+01</totfact>
</mgrwt>
</event>
<event>
 4    5  0.1112901E-007  0.8436452E+03  0.7818608E-02  0.9623345E-01
          2   -1    0    0  501    0  0.00000000000E+00  0.00000000000E+00  0.25487813424E+04  0.25487813424E+04  0.25500000000E-02 0. -1.
         -2   -1    0    0    0  501 -0.00000000000E+00 -0.00000000000E+00 -0.75337018523E+03  0.75337018524E+03  0.25500000000E-02 0.  1.
    8880023    1    1    2    0    0 -0.50898470481E+03  0.13733769179E+03 -0.47373489268E+03  0.96755466312E+03  0.65864270000E+03 0.  1.
    8880022    1    1    2    0    0  0.50898470481E+03 -0.13733769179E+03  0.22691460498E+04  0.23345968645E+04  0.15294330000E+03 0.  0.
<mgrwt>
<rscale>  0 0.75770152E+03</rscale>
<asrwt>0</asrwt>
<pdfrwt beam="1">  1        2 0.39212020E+00 0.84364523E+03</pdfrwt>
<pdfrwt beam="2">  1       -2 0.11590311E+00 0.84364523E+03</pdfrwt>
<totfact> 0.19504279E+00</totfact>
</mgrwt>
</event>
<event>
 4    5  0.1112901E-007  0.7358500E+03  0.7818608E-02  0.9872205E-01
         -2   -1    0    0    0  501 -0.00000000000E+00  0.00000000000E+00  0.17694935292E+04  0.17694935292E+04  0.25500000000E-02 0.  1.
          2   -1    0    0  501    0  0.00000000000E+00 -0.00000000000E+00 -0.12735295992E+04  0.12735295992E+04  0.25500000000E-02 0. -1.
    8880023    1    1    2    0    0 -0.96903457684E+02  0.31348795711E+03  0.16643901265E+04  0.18197993513E+04  0.65864270000E+03 0.  1.
    8880022    1    1    2    0    0  0.96903457684E+02 -0.31348795711E+03 -0.11684261965E+04  0.12232237772E+04  0.15294330000E+03 0.  0.
<mgrwt>
<rscale>  0 0.61627469E+03</rscale>
<asrwt>0</asrwt>
<pdfrwt beam="1">  1        2 0.19592763E+00 0.73584997E+03</pdfrwt>
<pdfrwt beam="2">  1       -2 0.27222977E+00 0.73584997E+03</pdfrwt>
<totfact> 0.84206690E-01</totfact>
</mgrwt>
</event>
<event>
 4    5  0.1112901E-007  0.7398072E+03  0.7818608E-02  0.9860509E-01
         -2   -1    0    0    0  501 -0.00000000000E+00  0.00000000000E+00  0.66618291380E+03  0.66618291380E+03  0.25500000000E-02 0.  1.
          2   -1    0    0  501    0  0.00000000000E+00 -0.00000000000E+00 -0.96752788341E+03  0.96752788341E+03  0.25500000000E-02 0. -1.
    8880023    1    1    2    0    0 -0.11615034445E+03 -0.31624934560E+03  0.39980412901E+03  0.84092692842E+03  0.65864270000E+03 0.  1.
    8880022    1    1    2    0    0  0.11615034445E+03  0.31624934560E+03 -0.70114909862E+03  0.79278386879E+03  0.15294330000E+03 0.  0.
<mgrwt>
<rscale>  0 0.62213962E+03</rscale>
<asrwt>0</asrwt>
<pdfrwt beam="1">  1        2 0.14885044E+00 0.73980724E+03</pdfrwt>
<pdfrwt beam="2">  1       -2 0.10248968E+00 0.73980724E+03</pdfrwt>
<totfact> 0.20950084E+01</totfact>
</mgrwt>
</event>
<event>
 4    5  0.1112901E-007  0.1008485E+04  0.7818608E-02  0.9370540E-01
          2   -1    0    0  501    0  0.00000000000E+00  0.00000000000E+00  0.13684810943E+04  0.13684810943E+04  0.25500000000E-02 0. -1.
         -2   -1    0    0    0  501 -0.00000000000E+00 -0.00000000000E+00 -0.13603050782E+04  0.13603050782E+04  0.25500000000E-02 0.  1.
    8880023    1    1    2    0    0 -0.63224617648E+03  0.42836458792E+03 -0.10230056179E+04  0.14365173679E+04  0.65864270000E+03 0.  1.
    8880022    1    1    2    0    0  0.63224617648E+03 -0.42836458792E+03  0.10311816340E+04  0.12922688045E+04  0.15294330000E+03 0.  0.
<mgrwt>
<rscale>  0 0.94540283E+03</rscale>
<asrwt>0</asrwt>
<pdfrwt beam="1">  1        2 0.21053555E+00 0.10084848E+04</pdfrwt>
<pdfrwt beam="2">  1       -2 0.20927771E+00 0.10084848E+04</pdfrwt>
<totfact> 0.17328492E+00</totfact>
</mgrwt>
</event>
<event>
 4    5  0.1112901E-007  0.7183790E+03  0.7818608E-02  0.9928109E-01
         -2   -1    0    0    0  501 -0.00000000000E+00  0.00000000000E+00  0.11261614132E+03  0.11261614135E+03  0.25500000000E-02 0.  1.
          2   -1    0    0  501    0  0.00000000000E+00 -0.00000000000E+00 -0.43369173706E+04  0.43369173706E+04  0.25500000000E-02 0. -1.
    8880023    1    1    2    0    0 -0.26891618358E+03  0.99711170965E+02 -0.11354005186E+04  0.13435783473E+04  0.65864270000E+03 0.  1.
    8880022    1    1    2    0    0  0.26891618358E+03 -0.99711170965E+02 -0.30889007106E+04  0.31059551646E+04  0.15294330000E+03 0.  0.
<mgrwt>
<rscale>  0 0.58918118E+03</rscale>
<asrwt>0</asrwt>
<pdfrwt beam="1">  1        2 0.66721793E+00 0.71837903E+03</pdfrwt>
<pdfrwt beam="2">  1       -2 0.17325564E-01 0.71837903E+03</pdfrwt>
<totfact> 0.54317021E+00</totfact>
</mgrwt>
</event>
<event>
 4    5  0.1112901E-007  0.1094954E+04  0.7818608E-02  0.9266695E-01
         -2   -1    0    0    0  501 -0.00000000000E+00  0.00000000000E+00  0.81422707906E+03  0.81422707906E+03  0.25500000000E-02 0.  1.
          2   -1    0    0  501    0  0.00000000000E+00 -0.00000000000E+00 -0.24705672207E+04  0.24705672207E+04  0.25500000000E-02 0. -1.
    8880023    1    1    2    0    0 -0.37606704284E+03  0.78973907499E+03  0.30089453986E+03  0.11355447845E+04  0.65864270000E+03 0.  0.
    8880022    1    1    2    0    0  0.37606704284E+03 -0.78973907499E+03 -0.19572346815E+04  0.21492495152E+04  0.15294330000E+03 0.  0.
<mgrwt>
<rscale>  0 0.10390766E+04</rscale>
<asrwt>0</asrwt>
<pdfrwt beam="1">  1        2 0.38008726E+00 0.10949541E+04</pdfrwt>
<pdfrwt beam="2">  1       -2 0.12526571E+00 0.10949541E+04</pdfrwt>
<totfact> 0.17145551E+00</totfact>
</mgrwt>
</event>
<event>
 4    5  0.1112901E-007  0.9262210E+03  0.7818608E-02  0.9485185E-01
          2   -1    0    0  501    0  0.00000000000E+00  0.00000000000E+00  0.13253474881E+04  0.13253474881E+04  0.25500000000E-02 0. -1.
         -2   -1    0    0    0  501 -0.00000000000E+00 -0.00000000000E+00 -0.14061581770E+04  0.14061581770E+04  0.25500000000E-02 0.  1.
    8880023    1    1    2    0    0  0.27945592789E+03  0.58820023473E+03 -0.11461184113E+04  0.14735917857E+04  0.65864270000E+03 0.  1.
    8880022    1    1    2    0    0 -0.27945592789E+03 -0.58820023473E+03  0.10653077224E+04  0.12579138795E+04  0.15294330000E+03 0.  0.
<mgrwt>
<rscale>  0 0.85384899E+03</rscale>
<asrwt>0</asrwt>
<pdfrwt beam="1">  1        2 0.20389961E+00 0.92622100E+03</pdfrwt>
<pdfrwt beam="2">  1       -2 0.21633203E+00 0.92622100E+03</pdfrwt>
<totfact> 0.16727390E+00</totfact>
</mgrwt>
</event>
<event>
 4    5  0.1112901E-007  0.6636648E+03  0.7818608E-02  0.1020681E+00
          2   -1    0    0  501    0  0.00000000000E+00  0.00000000000E+00  0.86867821938E+03  0.86867821938E+03  0.25500000000E-02 0. -1.
         -2   -1    0    0    0  501 -0.00000000000E+00 -0.00000000000E+00 -0.24668960902E+03  0.24668960903E+03  0.25500000000E-02 0.  1.
    8880023    1    1    2    0    0  0.81490222261E+02 -0.30333817907E+00  0.25766686147E+03  0.71192918616E+03  0.65864270000E+03 0.  1.
    8880022    1    1    2    0    0 -0.81490222261E+02  0.30333817907E+00  0.36432174889E+03  0.40343864226E+03  0.15294330000E+03 0.  0.
<mgrwt>
<rscale>  0 0.47441711E+03</rscale>
<asrwt>0</asrwt>
<pdfrwt beam="1">  1        2 0.13364280E+00 0.66366479E+03</pdfrwt>
<pdfrwt beam="2">  1       -2 0.37952248E-01 0.66366479E+03</pdfrwt>
<totfact> 0.20479127E+02</totfact>
</mgrwt>
</event>
<event>
 4    5  0.1112901E-007  0.1181327E+04  0.7818608E-02  0.9175491E-01
          2   -1    0    0  501    0  0.00000000000E+00  0.00000000000E+00  0.23764510456E+04  0.23764510456E+04  0.25500000000E-02 0. -1.
         -2   -1    0    0    0  501 -0.00000000000E+00 -0.00000000000E+00 -0.13916692965E+04  0.13916692965E+04  0.25500000000E-02 0.  1.
    8880023    1    1    2    0    0  0.58091662475E+03 -0.79010111720E+03 -0.10008135400E+04  0.15482770580E+04  0.65864270000E+03 0.  1.
    8880022    1    1    2    0    0 -0.58091662475E+03  0.79010111720E+03  0.19855952891E+04  0.22198432840E+04  0.15294330000E+03 0.  0.
<mgrwt>
<rscale>  0 0.11310025E+04</rscale>
<asrwt>0</asrwt>
<pdfrwt beam="1">  1        2 0.36560785E+00 0.11813273E+04</pdfrwt>
<pdfrwt beam="2">  1       -2 0.21410297E+00 0.11813273E+04</pdfrwt>
<totfact> 0.43185121E-01</totfact>
</mgrwt>
</event>
<event>
 4    5  0.1112901E-007  0.9806043E+03  0.7818608E-02  0.9407385E-01
         -2   -1    0    0    0  501 -0.00000000000E+00  0.00000000000E+00  0.68565653268E+03  0.68565653269E+03  0.25500000000E-02 0.  1.
          2   -1    0    0  501    0  0.00000000000E+00 -0.00000000000E+00 -0.21691217840E+04  0.21691217840E+04  0.25500000000E-02 0. -1.
    8880023    1    1    2    0    0 -0.56918079145E+03 -0.45145088959E+03  0.21256396790E+03  0.10033784559E+04  0.65864270000E+03 0.  1.
    8880022    1    1    2    0    0  0.56918079145E+03  0.45145088959E+03 -0.16960292192E+04  0.18513998607E+04  0.15294330000E+03 0.  0.
<mgrwt>
<rscale>  0 0.91470425E+03</rscale>
<asrwt>0</asrwt>
<pdfrwt beam="1">  1        2 0.33371104E+00 0.98060435E+03</pdfrwt>
<pdfrwt beam="2">  1       -2 0.10548562E+00 0.98060435E+03</pdfrwt>
<totfact> 0.39267900E+00</totfact>
</mgrwt>
</event>
<event>
 4    5  0.1112901E-007  0.7836806E+03  0.7818608E-02  0.9747261E-01
          2   -1    0    0  501    0  0.00000000000E+00  0.00000000000E+00  0.75240810190E+03  0.75240810191E+03  0.25500000000E-02 0. -1.
         -2   -1    0    0    0  501 -0.00000000000E+00 -0.00000000000E+00 -0.11866001917E+04  0.11866001917E+04  0.25500000000E-02 0.  1.
    8880023    1    1    2    0    0  0.18586139690E+02  0.42426367937E+03 -0.96441551109E+03  0.12426796041E+04  0.65864270000E+03 0.  1.
    8880022    1    1    2    0    0 -0.18586139690E+02 -0.42426367937E+03  0.53022342132E+03  0.69632868945E+03  0.15294330000E+03 0.  0.
<mgrwt>
<rscale>  0 0.68271274E+03</rscale>
<asrwt>0</asrwt>
<pdfrwt beam="1">  1        2 0.11575509E+00 0.78368062E+03</pdfrwt>
<pdfrwt beam="2">  1       -2 0.18255388E+00 0.78368062E+03</pdfrwt>
<totfact> 0.65992444E+00</totfact>
</mgrwt>
</event>
<event>
 4    5  0.1112901E-007  0.7082801E+03  0.7818608E-02  0.9964444E-01
         -2   -1    0    0    0  501 -0.00000000000E+00  0.00000000000E+00  0.44109082093E+03  0.44109082093E+03  0.25500000000E-02 0.  1.
          2   -1    0    0  501    0  0.00000000000E+00 -0.00000000000E+00 -0.12355763702E+04  0.12355763702E+04  0.25500000000E-02 0. -1.
    8880023    1    1    2    0    0 -0.11270763624E+03 -0.23483501874E+03  0.11569989867E+03  0.71766786894E+03  0.65864270000E+03 0.  1.
    8880022    1    1    2    0    0  0.11270763624E+03  0.23483501874E+03 -0.91018544793E+03  0.95899932217E+03  0.15294330000E+03 0.  0.
<mgrwt>
<rscale>  0 0.57237179E+03</rscale>
<asrwt>0</asrwt>
<pdfrwt beam="1">  1        2 0.19008867E+00 0.70828010E+03</pdfrwt>
<pdfrwt beam="2">  1       -2 0.67860127E-01 0.70828010E+03</pdfrwt>
<totfact> 0.36715980E+01</totfact>
</mgrwt>
</event>
<event>
 4    5  0.1112901E-007  0.1527350E+04  0.7818608E-02  0.8890561E-01
          2   -1    0    0  501    0  0.00000000000E+00  0.00000000000E+00  0.20732942528E+04  0.20732942528E+04  0.25500000000E-02 0. -1.
         -2   -1    0    0    0  501 -0.00000000000E+00 -0.00000000000E+00 -0.16663159569E+04  0.16663159569E+04  0.25500000000E-02 0.  1.
    8880023    1    1    2    0    0  0.10109223445E+04 -0.93649485744E+03  0.13697769309E+04  0.20516056276E+04  0.65864270000E+03 0.  0.
    8880022    1    1    2    0    0 -0.10109223445E+04  0.93649485744E+03 -0.96279863498E+03  0.16880045821E+04  0.15294330000E+03 0.  0.
<mgrwt>
<rscale>  0 0.14908491E+04</rscale>
<asrwt>0</asrwt>
<pdfrwt beam="1">  1        2 0.31896835E+00 0.15273496E+04</pdfrwt>
<pdfrwt beam="2">  1       -2 0.25635630E+00 0.15273496E+04</pdfrwt>
<totfact> 0.33377991E-01</totfact>
</mgrwt>
</event>
<event>
 4    5  0.1112901E-007  0.1694013E+04  0.7818608E-02  0.8783548E-01
          2   -1    0    0  501    0  0.00000000000E+00  0.00000000000E+00  0.17652822192E+04  0.17652822192E+04  0.25500000000E-02 0. -1.
         -2   -1    0    0    0  501 -0.00000000000E+00 -0.00000000000E+00 -0.19133130482E+04  0.19133130482E+04  0.25500000000E-02 0.  1.
    8880023    1    1    2    0    0  0.15431690927E+04  0.23344737778E+03 -0.92322709303E+03  0.19292555555E+04  0.65864270000E+03 0.  0.
    8880022    1    1    2    0    0 -0.15431690927E+04 -0.23344737778E+03  0.77519626407E+03  0.17493397119E+04  0.15294330000E+03 0.  0.
<mgrwt>
<rscale>  0 0.16616442E+04</rscale>
<asrwt>0</asrwt>
<pdfrwt beam="1">  1        2 0.27158188E+00 0.16940126E+04</pdfrwt>
<pdfrwt beam="2">  1       -2 0.29435585E+00 0.16940126E+04</pdfrwt>
<totfact> 0.28552325E-01</totfact>
</mgrwt>
</event>
<event>
 4    5  0.1112901E-007  0.9408369E+03  0.7818608E-02  0.9463422E-01
         -2   -1    0    0    0  501 -0.00000000000E+00  0.00000000000E+00  0.68435875691E+03  0.68435875692E+03  0.25500000000E-02 0.  1.
          2   -1    0    0  501    0  0.00000000000E+00 -0.00000000000E+00 -0.22557938192E+04  0.22557938192E+04  0.25500000000E-02 0. -1.
    8880023    1    1    2    0    0 -0.65040847699E+03  0.16832313607E+03  0.26604874509E+03  0.97773002721E+03  0.65864270000E+03 0.  1.
    8880022    1    1    2    0    0  0.65040847699E+03 -0.16832313607E+03 -0.18374838074E+04  0.19624225489E+04  0.15294330000E+03 0.  0.
<mgrwt>
<rscale>  0 0.87035115E+03</rscale>
<asrwt>0</asrwt>
<pdfrwt beam="1">  1        2 0.34704520E+00 0.94083690E+03</pdfrwt>
<pdfrwt beam="2">  1       -2 0.10528596E+00 0.94083690E+03</pdfrwt>
<totfact> 0.35496219E+00</totfact>
</mgrwt>
</event>
<event>
 4    5  0.1112901E-007  0.1188526E+04  0.7818608E-02  0.9168357E-01
         -2   -1    0    0    0  501 -0.00000000000E+00  0.00000000000E+00  0.90545460959E+03  0.90545460959E+03  0.25500000000E-02 0.  1.
          2   -1    0    0  501    0  0.00000000000E+00 -0.00000000000E+00 -0.25982814869E+04  0.25982814869E+04  0.25500000000E-02 0. -1.
    8880023    1    1    2    0    0  0.30363666902E+03  0.94158830389E+03  0.34134542879E+03  0.12365721446E+04  0.65864270000E+03 0. -1.
    8880022    1    1    2    0    0 -0.30363666902E+03 -0.94158830389E+03 -0.20341723061E+04  0.22671639519E+04  0.15294330000E+03 0.  0.
<mgrwt>
<rscale>  0 0.11386086E+04</rscale>
<asrwt>0</asrwt>
<pdfrwt beam="1">  1        2 0.39973561E+00 0.11885260E+04</pdfrwt>
<pdfrwt beam="2">  1       -2 0.13930071E+00 0.11885260E+04</pdfrwt>
<totfact> 0.10891992E+00</totfact>
</mgrwt>
</event>
<event>
 4    5  0.1112901E-007  0.9247379E+03  0.7818608E-02  0.9487432E-01
          2   -1    0    0  501    0  0.00000000000E+00  0.00000000000E+00  0.10133893513E+04  0.10133893513E+04  0.25500000000E-02 0. -1.
         -2   -1    0    0    0  501 -0.00000000000E+00 -0.00000000000E+00 -0.14424939445E+04  0.14424939445E+04  0.25500000000E-02 0.  1.
    8880023    1    1    2    0    0  0.27039660053E+03 -0.59009794311E+03 -0.11487809661E+04  0.14747331346E+04  0.65864270000E+03 0.  0.
    8880022    1    1    2    0    0 -0.27039660053E+03  0.59009794311E+03  0.71967637294E+03  0.98115016120E+03  0.15294330000E+03 0.  0.
<mgrwt>
<rscale>  0 0.85216757E+03</rscale>
<asrwt>0</asrwt>
<pdfrwt beam="1">  1        2 0.15590605E+00 0.92473786E+03</pdfrwt>
<pdfrwt beam="2">  1       -2 0.22192215E+00 0.92473786E+03</pdfrwt>
<totfact> 0.23804673E+00</totfact>
</mgrwt>
</event>
<event>
 4    5  0.1112901E-007  0.9034776E+03  0.7818608E-02  0.9520472E-01
         -2   -1    0    0    0  501 -0.00000000000E+00  0.00000000000E+00  0.64313197866E+03  0.64313197867E+03  0.25500000000E-02 0.  1.
          2   -1    0    0  501    0  0.00000000000E+00 -0.00000000000E+00 -0.13935485790E+04  0.13935485790E+04  0.25500000000E-02 0. -1.
    8880023    1    1    2    0    0 -0.61123978439E+03 -0.94060701681E+02  0.16797642332E+03  0.91896015946E+03  0.65864270000E+03 0.  0.
    8880022    1    1    2    0    0  0.61123978439E+03  0.94060701681E+02 -0.91839302364E+03  0.11177203982E+04  0.15294330000E+03 0.  0.
<mgrwt>
<rscale>  0 0.82791193E+03</rscale>
<asrwt>0</asrwt>
<pdfrwt beam="1">  1        2 0.21439209E+00 0.90347756E+03</pdfrwt>
<pdfrwt beam="2">  1       -2 0.98943382E-01 0.90347756E+03</pdfrwt>
<totfact> 0.12418351E+01</totfact>
</mgrwt>
</event>
<event>
 4    5  0.1112901E-007  0.1054072E+04  0.7818608E-02  0.9314002E-01
          2   -1    0    0  501    0  0.00000000000E+00  0.00000000000E+00  0.58593068859E+03  0.58593068859E+03  0.25500000000E-02 0. -1.
         -2   -1    0    0    0  501 -0.00000000000E+00 -0.00000000000E+00 -0.24587814796E+04  0.24587814796E+04  0.25500000000E-02 0.  1.
    8880023    1    1    2    0    0 -0.11409390118E+03 -0.81500904784E+03 -0.19369797291E+04  0.22052115190E+04  0.65864270000E+03 0.  0.
    8880022    1    1    2    0    0  0.11409390118E+03  0.81500904784E+03  0.64128938044E+02  0.83950064923E+03  0.15294330000E+03 0.  0.
<mgrwt>
<rscale>  0 0.99503922E+03</rscale>
<asrwt>0</asrwt>
<pdfrwt beam="1">  1        2 0.90143185E-01 0.10540718E+04</pdfrwt>
<pdfrwt beam="2">  1       -2 0.37827407E+00 0.10540718E+04</pdfrwt>
<totfact> 0.52928332E-01</totfact>
</mgrwt>
</event>
<event>
 4    5  0.1112901E-007  0.7252057E+03  0.7818608E-02  0.9905350E-01
          2   -1    0    0  501    0  0.00000000000E+00  0.00000000000E+00  0.36493462224E+03  0.36493462225E+03  0.25500000000E-02 0. -1.
         -2   -1    0    0    0  501 -0.00000000000E+00 -0.00000000000E+00 -0.17836653624E+04  0.17836653624E+04  0.25500000000E-02 0.  1.
    8880023    1    1    2    0    0  0.27083871398E+03 -0.13696548802E+03 -0.16048615390E+04  0.17611087188E+04  0.65864270000E+03 0.  1.
    8880022    1    1    2    0    0 -0.27083871398E+03  0.13696548802E+03  0.18613079875E+03  0.38749126591E+03  0.15294330000E+03 0.  0.
<mgrwt>
<rscale>  0 0.60002719E+03</rscale>
<asrwt>0</asrwt>
<pdfrwt beam="1">  1        2 0.56143789E-01 0.72520574E+03</pdfrwt>
<pdfrwt beam="2">  1       -2 0.27441005E+00 0.72520574E+03</pdfrwt>
<totfact> 0.41663825E+00</totfact>
</mgrwt>
</event>
<event>
 4    5  0.1112901E-007  0.1483576E+04  0.7818608E-02  0.8921321E-01
          2   -1    0    0  501    0  0.00000000000E+00  0.00000000000E+00  0.12105166728E+04  0.12105166728E+04  0.25500000000E-02 0. -1.
         -2   -1    0    0    0  501 -0.00000000000E+00 -0.00000000000E+00 -0.18292851793E+04  0.18292851793E+04  0.25500000000E-02 0.  1.
    8880023    1    1    2    0    0 -0.27708370006E+03  0.13001583262E+04  0.15898183974E+03  0.14920698649E+04  0.65864270000E+03 0.  0.
    8880022    1    1    2    0    0  0.27708370006E+03 -0.13001583262E+04 -0.77775034627E+03  0.15477319872E+04  0.15294330000E+03 0.  0.
<mgrwt>
<rscale>  0 0.14457942E+04</rscale>
<asrwt>0</asrwt>
<pdfrwt beam="1">  1        2 0.18623333E+00 0.14835758E+04</pdfrwt>
<pdfrwt beam="2">  1       -2 0.28142849E+00 0.14835758E+04</pdfrwt>
<totfact> 0.72860947E-01</totfact>
</mgrwt>
</event>
<event>
 4    5  0.1112901E-007  0.1069852E+04  0.7818608E-02  0.9295389E-01
         -2   -1    0    0    0  501 -0.00000000000E+00  0.00000000000E+00  0.10478195702E+04  0.10478195702E+04  0.25500000000E-02 0.  1.
          2   -1    0    0  501    0  0.00000000000E+00 -0.00000000000E+00 -0.19619127675E+04  0.19619127675E+04  0.25500000000E-02 0. -1.
    8880023    1    1    2    0    0  0.53420754971E+03  0.65222306193E+03  0.63164337403E+03  0.12423993669E+04  0.65864270000E+03 0.  1.
    8880022    1    1    2    0    0 -0.53420754971E+03 -0.65222306193E+03 -0.15457365714E+04  0.17673329708E+04  0.15294330000E+03 0.  0.
<mgrwt>
<rscale>  0 0.10120847E+04</rscale>
<asrwt>0</asrwt>
<pdfrwt beam="1">  1        2 0.30183273E+00 0.10698518E+04</pdfrwt>
<pdfrwt beam="2">  1       -2 0.16120301E+00 0.10698518E+04</pdfrwt>
<totfact> 0.17101934E+00</totfact>
</mgrwt>
</event>
<event>
 4    5  0.1112901E-007  0.1206543E+04  0.7818608E-02  0.9150789E-01
         -2   -1    0    0    0  501 -0.00000000000E+00  0.00000000000E+00  0.14042033011E+04  0.14042033011E+04  0.25500000000E-02 0.  1.
          2   -1    0    0  501    0  0.00000000000E+00 -0.00000000000E+00 -0.91155959344E+03  0.91155959344E+03  0.25500000000E-02 0. -1.
    8880023    1    1    2    0    0  0.42719793944E+02 -0.10100049464E+04  0.46479011846E+03  0.12929713968E+04  0.65864270000E+03 0. -1.
    8880022    1    1    2    0    0 -0.42719793944E+02  0.10100049464E+04  0.27853589235E+02  0.10227914978E+04  0.15294330000E+03 0.  1.
<mgrwt>
<rscale>  0 0.11576133E+04</rscale>
<asrwt>0</asrwt>
<pdfrwt beam="1">  1        2 0.14023994E+00 0.12065427E+04</pdfrwt>
<pdfrwt beam="2">  1       -2 0.21603128E+00 0.12065427E+04</pdfrwt>
<totfact> 0.29357364E+00</totfact>
</mgrwt>
</event>
<event>
 4    5  0.1112901E-007  0.6645679E+03  0.7818608E-02  0.1019899E+00
         -2   -1    0    0    0  501 -0.00000000000E+00  0.00000000000E+00  0.10471829720E+03  0.10471829723E+03  0.25500000000E-02 0.  1.
          2   -1    0    0  501    0  0.00000000000E+00 -0.00000000000E+00 -0.21478716235E+04  0.21478716235E+04  0.25500000000E-02 0. -1.
    8880023    1    1    2    0    0  0.80990294623E+02  0.35789220071E+02 -0.10414909724E+04  0.12354569794E+04  0.65864270000E+03 0.  1.
    8880022    1    1    2    0    0 -0.80990294623E+02 -0.35789220071E+02 -0.10016623539E+04  0.10171329413E+04  0.15294330000E+03 0.  0.
<mgrwt>
<rscale>  0 0.47723184E+03</rscale>
<asrwt>0</asrwt>
<pdfrwt beam="1">  1        2 0.33044176E+00 0.66456791E+03</pdfrwt>
<pdfrwt beam="2">  1       -2 0.16110509E-01 0.66456791E+03</pdfrwt>
<totfact> 0.17770323E+02</totfact>
</mgrwt>
</event>
<event>
 4    5  0.1112901E-007  0.7594639E+03  0.7818608E-02  0.9806497E-01
         -2   -1    0    0    0  501 -0.00000000000E+00  0.00000000000E+00  0.47278136528E+03  0.47278136528E+03  0.25500000000E-02 0.  1.
          2   -1    0    0  501    0  0.00000000000E+00 -0.00000000000E+00 -0.21450154866E+04  0.21450154866E+04  0.25500000000E-02 0. -1.
    8880023    1    1    2    0    0  0.17958609413E+03  0.33275222873E+03  0.12953969224E+03  0.77043231309E+03  0.65864270000E+03 0.  1.
    8880022    1    1    2    0    0 -0.17958609413E+03 -0.33275222873E+03 -0.18017738135E+04  0.18473645387E+04  0.15294330000E+03 0.  0.
<mgrwt>
<rscale>  0 0.65015021E+03</rscale>
<asrwt>0</asrwt>
<pdfrwt beam="1">  1        2 0.33000238E+00 0.75946390E+03</pdfrwt>
<pdfrwt beam="2">  1       -2 0.72735596E-01 0.75946390E+03</pdfrwt>
<totfact> 0.98301718E+00</totfact>
</mgrwt>
</event>
<event>
 4    5  0.1112901E-007  0.9909287E+03  0.7818608E-02  0.9393523E-01
          2   -1    0    0  501    0  0.00000000000E+00  0.00000000000E+00  0.14744047730E+04  0.14744047730E+04  0.25500000000E-02 0. -1.
         -2   -1    0    0    0  501 -0.00000000000E+00 -0.00000000000E+00 -0.13143217728E+04  0.13143217728E+04  0.25500000000E-02 0.  1.
    8880023    1    1    2    0    0 -0.61545336508E+02 -0.73779513752E+03 -0.99757131584E+03  0.14060896948E+04  0.65864270000E+03 0.  0.
    8880022    1    1    2    0    0  0.61545336508E+02  0.73779513752E+03  0.11576543160E+04  0.13826368510E+04  0.15294330000E+03 0.  0.
<mgrwt>
<rscale>  0 0.92610631E+03</rscale>
<asrwt>0</asrwt>
<pdfrwt beam="1">  1        2 0.22683150E+00 0.99092871E+03</pdfrwt>
<pdfrwt beam="2">  1       -2 0.20220335E+00 0.99092871E+03</pdfrwt>
<totfact> 0.16796300E+00</totfact>
</mgrwt>
</event>
<event>
 4    5  0.1112901E-007  0.1361435E+04  0.7818608E-02  0.9014243E-01
         -2   -1    0    0    0  501 -0.00000000000E+00  0.00000000000E+00  0.15461683181E+04  0.15461683181E+04  0.25500000000E-02 0.  1.
          2   -1    0    0  501    0  0.00000000000E+00 -0.00000000000E+00 -0.21423951246E+04  0.21423951246E+04  0.25500000000E-02 0. -1.
    8880023    1    1    2    0    0 -0.11286939274E+04 -0.38176724511E+03  0.10011321937E+04  0.16899029814E+04  0.65864270000E+03 0.  0.
    8880022    1    1    2    0    0  0.11286939274E+04  0.38176724511E+03 -0.15973590002E+04  0.19986604613E+04  0.15294330000E+03 0.  0.
<mgrwt>
<rscale>  0 0.13195000E+04</rscale>
<asrwt>0</asrwt>
<pdfrwt beam="1">  1        2 0.32959925E+00 0.13614354E+04</pdfrwt>
<pdfrwt beam="2">  1       -2 0.23787205E+00 0.13614354E+04</pdfrwt>
<totfact> 0.40479891E-01</totfact>
</mgrwt>
</event>
<event>
 4    5  0.1112901E-007  0.6897123E+03  0.7818608E-02  0.1004290E+00
          2   -1    0    0  501    0  0.00000000000E+00  0.00000000000E+00  0.10236923157E+04  0.10236923157E+04  0.25500000000E-02 0. -1.
         -2   -1    0    0    0  501 -0.00000000000E+00 -0.00000000000E+00 -0.78954854399E+03  0.78954854400E+03  0.25500000000E-02 0.  1.
    8880023    1    1    2    0    0  0.68884777110E+02  0.19273764696E+03 -0.61648199399E+03  0.92506927754E+03  0.65864270000E+03 0.  0.
    8880022    1    1    2    0    0 -0.68884777110E+02 -0.19273764696E+03  0.85062576570E+03  0.88817158216E+03  0.15294330000E+03 0.  0.
<mgrwt>
<rscale>  0 0.53808677E+03</rscale>
<asrwt>0</asrwt>
<pdfrwt beam="1">  1        2 0.15749113E+00 0.68971235E+03</pdfrwt>
<pdfrwt beam="2">  1       -2 0.12146901E+00 0.68971235E+03</pdfrwt>
<totfact> 0.12839536E+01</totfact>
</mgrwt>
</event>
<event>
 4    5  0.1112901E-007  0.1053027E+04  0.7818608E-02  0.9315251E-01
         -2   -1    0    0    0  501 -0.00000000000E+00  0.00000000000E+00  0.14561525043E+04  0.14561525043E+04  0.25500000000E-02 0.  1.
          2   -1    0    0  501    0  0.00000000000E+00 -0.00000000000E+00 -0.78532545397E+03  0.78532545397E+03  0.25500000000E-02 0. -1.
    8880023    1    1    2    0    0  0.82143151673E+03 -0.17507828233E+02  0.88858492432E+03  0.13778423838E+04  0.65864270000E+03 0.  0.
    8880022    1    1    2    0    0 -0.82143151673E+03  0.17507828233E+02 -0.21775787398E+03  0.86363557443E+03  0.15294330000E+03 0.  0.
<mgrwt>
<rscale>  0 0.99390865E+03</rscale>
<asrwt>0</asrwt>
<pdfrwt beam="1">  1        2 0.12081930E+00 0.10530273E+04</pdfrwt>
<pdfrwt beam="2">  1       -2 0.22402346E+00 0.10530273E+04</pdfrwt>
<totfact> 0.32554764E+00</totfact>
</mgrwt>
</event>
<event>
 4    5  0.1112901E-007  0.9706175E+03  0.7818608E-02  0.9421051E-01
         -2   -1    0    0    0  501 -0.00000000000E+00  0.00000000000E+00  0.21528226388E+03  0.21528226389E+03  0.25500000000E-02 0.  1.
          2   -1    0    0  501    0  0.00000000000E+00 -0.00000000000E+00 -0.42809007921E+04  0.42809007921E+04  0.25500000000E-02 0. -1.
    8880023    1    1    2    0    0  0.42064406270E+03 -0.57562730224E+03 -0.32962289387E+04  0.34361640882E+04  0.65864270000E+03 0.  0.
    8880022    1    1    2    0    0 -0.42064406270E+03  0.57562730224E+03 -0.76938958953E+03  0.10600189678E+04  0.15294330000E+03 0.  0.
<mgrwt>
<rscale>  0 0.90363362E+03</rscale>
<asrwt>0</asrwt>
<pdfrwt beam="1">  1        2 0.65860006E+00 0.97061755E+03</pdfrwt>
<pdfrwt beam="2">  1       -2 0.33120351E-01 0.97061755E+03</pdfrwt>
<totfact> 0.17996391E+00</totfact>
</mgrwt>
</event>
<event>
 4    5  0.1112901E-007  0.1457449E+04  0.7818608E-02  0.8940282E-01
         -2   -1    0    0    0  501 -0.00000000000E+00  0.00000000000E+00  0.16160901774E+04  0.16160901774E+04  0.25500000000E-02 0.  1.
          2   -1    0    0  501    0  0.00000000000E+00 -0.00000000000E+00 -0.12443463517E+04  0.12443463517E+04  0.25500000000E-02 0. -1.
    8880023    1    1    2    0    0  0.11218559742E+04 -0.65710522439E+03  0.50989163235E+03  0.15440685819E+04  0.65864270000E+03 0.  0.
    8880022    1    1    2    0    0 -0.11218559742E+04  0.65710522439E+03 -0.13814780671E+03  0.13163679471E+04  0.15294330000E+03 0.  0.
<mgrwt>
<rscale>  0 0.14188556E+04</rscale>
<asrwt>0</asrwt>
<pdfrwt beam="1">  1        2 0.19143790E+00 0.14574492E+04</pdfrwt>
<pdfrwt beam="2">  1       -2 0.24862926E+00 0.14574492E+04</pdfrwt>
<totfact> 0.11061892E+00</totfact>
</mgrwt>
</event>
<event>
 4    5  0.1112901E-007  0.8183463E+03  0.7818608E-02  0.9672447E-01
          2   -1    0    0  501    0  0.00000000000E+00  0.00000000000E+00  0.13694542526E+04  0.13694542526E+04  0.25500000000E-02 0. -1.
         -2   -1    0    0    0  501 -0.00000000000E+00 -0.00000000000E+00 -0.64376313974E+03  0.64376313975E+03  0.25500000000E-02 0.  1.
    8880023    1    1    2    0    0  0.21961427019E+03 -0.43318585060E+03 -0.29716424783E+03  0.87063034939E+03  0.65864270000E+03 0.  1.
    8880022    1    1    2    0    0 -0.21961427019E+03  0.43318585060E+03  0.10228553607E+04  0.11425870430E+04  0.15294330000E+03 0.  0.
<mgrwt>
<rscale>  0 0.72681234E+03</rscale>
<asrwt>0</asrwt>
<pdfrwt beam="1">  1        2 0.21068527E+00 0.81834627E+03</pdfrwt>
<pdfrwt beam="2">  1       -2 0.99040484E-01 0.81834627E+03</pdfrwt>
<totfact> 0.12908051E+01</totfact>
</mgrwt>
</event>
<event>
 4    5  0.1112901E-007  0.9497320E+03  0.7818608E-02  0.9450500E-01
          2   -1    0    0  501    0  0.00000000000E+00  0.00000000000E+00  0.30186164390E+04  0.30186164390E+04  0.25500000000E-02 0. -1.
         -2   -1    0    0    0  501 -0.00000000000E+00 -0.00000000000E+00 -0.66750554047E+03  0.66750554048E+03  0.25500000000E-02 0.  1.
    8880023    1    1    2    0    0  0.67908693332E+03 -0.83794574391E+02 -0.25824275051E+03  0.98421548360E+03  0.65864270000E+03 0.  1.
    8880022    1    1    2    0    0 -0.67908693332E+03  0.83794574391E+02  0.26093536490E+04  0.27019064959E+04  0.15294330000E+03 0.  0.
<mgrwt>
<rscale>  0 0.88033752E+03</rscale>
<asrwt>0</asrwt>
<pdfrwt beam="1">  1        2 0.46440252E+00 0.94973196E+03</pdfrwt>
<pdfrwt beam="2">  1       -2 0.10269316E+00 0.94973196E+03</pdfrwt>
<totfact> 0.13512704E+00</totfact>
</mgrwt>
</event>
<event>
 4    5  0.1112901E-007  0.7235751E+03  0.7818608E-02  0.9910669E-01
          2   -1    0    0  501    0  0.00000000000E+00  0.00000000000E+00  0.48952259221E+03  0.48952259222E+03  0.25500000000E-02 0. -1.
         -2   -1    0    0    0  501 -0.00000000000E+00 -0.00000000000E+00 -0.57517914998E+03  0.57517914999E+03  0.25500000000E-02 0.  1.
    8880023    1    1    2    0    0 -0.27117529676E+03 -0.12733711655E+03 -0.83044787524E+02  0.72832508252E+03  0.65864270000E+03 0.  0.
    8880022    1    1    2    0    0  0.27117529676E+03  0.12733711655E+03 -0.26117702491E+01  0.33637665969E+03  0.15294330000E+03 0.  1.
<mgrwt>
<rscale>  0 0.59746975E+03</rscale>
<asrwt>0</asrwt>
<pdfrwt beam="1">  1        2 0.75311168E-01 0.72357514E+03</pdfrwt>
<pdfrwt beam="2">  1       -2 0.88489100E-01 0.72357514E+03</pdfrwt>
<totfact> 0.70255590E+01</totfact>
</mgrwt>
</event>
<event>
 4    5  0.1112901E-007  0.1515250E+04  0.7818608E-02  0.8898942E-01
         -2   -1    0    0    0  501 -0.00000000000E+00  0.00000000000E+00  0.14754837839E+04  0.14754837839E+04  0.25500000000E-02 0.  1.
          2   -1    0    0  501    0  0.00000000000E+00 -0.00000000000E+00 -0.14636718204E+04  0.14636718204E+04  0.25500000000E-02 0. -1.
    8880023    1    1    2    0    0  0.45820388053E+03  0.12853875726E+04 -0.26534072916E+03  0.15383068344E+04  0.65864270000E+03 0.  0.
    8880022    1    1    2    0    0 -0.45820388053E+03 -0.12853875726E+04  0.27715269267E+03  0.14008487699E+04  0.15294330000E+03 0.  0.
<mgrwt>
<rscale>  0 0.14784047E+04</rscale>
<asrwt>0</asrwt>
<pdfrwt beam="1">  1        2 0.22518028E+00 0.15152499E+04</pdfrwt>
<pdfrwt beam="2">  1       -2 0.22699750E+00 0.15152499E+04</pdfrwt>
<totfact> 0.11170718E+00</totfact>
</mgrwt>
</event>
<event>
 4    5  0.1112901E-007  0.1083211E+04  0.7818608E-02  0.9279983E-01
          2   -1    0    0  501    0  0.00000000000E+00  0.00000000000E+00  0.21438979118E+04  0.21438979118E+04  0.25500000000E-02 0. -1.
         -2   -1    0    0    0  501 -0.00000000000E+00 -0.00000000000E+00 -0.82607159906E+03  0.82607159906E+03  0.25500000000E-02 0.  1.
    8880023    1    1    2    0    0 -0.14703999712E+03 -0.84729841962E+03 -0.30645860289E+03  0.11257275222E+04  0.65864270000E+03 0.  1.
    8880022    1    1    2    0    0  0.14703999712E+03  0.84729841962E+03  0.16242849156E+04  0.18442419887E+04  0.15294330000E+03 0.  0.
<mgrwt>
<rscale>  0 0.10264673E+04</rscale>
<asrwt>0</asrwt>
<pdfrwt beam="1">  1        2 0.32983045E+00 0.10832108E+04</pdfrwt>
<pdfrwt beam="2">  1       -2 0.12708794E+00 0.10832108E+04</pdfrwt>
<totfact> 0.25279142E+00</totfact>
</mgrwt>
</event>
<event>
 4    5  0.1112901E-007  0.1445551E+04  0.7818608E-02  0.8949073E-01
          2   -1    0    0  501    0  0.00000000000E+00  0.00000000000E+00  0.15877964224E+04  0.15877964224E+04  0.25500000000E-02 0. -1.
         -2   -1    0    0    0  501 -0.00000000000E+00 -0.00000000000E+00 -0.14543813652E+04  0.14543813653E+04  0.25500000000E-02 0.  1.
    8880023    1    1    2    0    0  0.69199279105E+03 -0.10848747282E+04  0.72559811850E+03  0.16174393449E+04  0.65864270000E+03 0.  0.
    8880022    1    1    2    0    0 -0.69199279105E+03  0.10848747282E+04 -0.59218306140E+03  0.14247384427E+04  0.15294330000E+03 0.  0.
<mgrwt>
<rscale>  0 0.14065747E+04</rscale>
<asrwt>0</asrwt>
<pdfrwt beam="1">  1        2 0.24427637E+00 0.14455509E+04</pdfrwt>
<pdfrwt beam="2">  1       -2 0.22375098E+00 0.14455509E+04</pdfrwt>
<totfact> 0.10021230E+00</totfact>
</mgrwt>
</event>
<event>
 4    5  0.1112901E-007  0.6743613E+03  0.7818608E-02  0.1012712E+00
          2   -1    0    0  501    0  0.00000000000E+00  0.00000000000E+00  0.12023662876E+04  0.12023662876E+04  0.25500000000E-02 0. -1.
         -2   -1    0    0    0  501 -0.00000000000E+00 -0.00000000000E+00 -0.12334703806E+04  0.12334703806E+04  0.25500000000E-02 0.  1.
    8880023    1    1    2    0    0 -0.44685411091E+02 -0.13768152839E+03 -0.11305535429E+04  0.13164021076E+04  0.65864270000E+03 0.  0.
    8880022    1    1    2    0    0  0.44685411091E+02  0.13768152839E+03  0.10994494500E+04  0.11194345605E+04  0.15294330000E+03 0.  0.
<mgrwt>
<rscale>  0 0.50410921E+03</rscale>
<asrwt>0</asrwt>
<pdfrwt beam="1">  1        2 0.18497943E+00 0.67436132E+03</pdfrwt>
<pdfrwt beam="2">  1       -2 0.18976467E+00 0.67436132E+03</pdfrwt>
<totfact> 0.30499288E+00</totfact>
</mgrwt>
</event>
<event>
 4    5  0.1112901E-007  0.7428137E+03  0.7818608E-02  0.9851825E-01
          2   -1    0    0  501    0  0.00000000000E+00  0.00000000000E+00  0.19775355321E+04  0.19775355321E+04  0.25500000000E-02 0. -1.
         -2   -1    0    0    0  501 -0.00000000000E+00 -0.00000000000E+00 -0.24648553634E+03  0.24648553635E+03  0.25500000000E-02 0.  1.
    8880023    1    1    2    0    0  0.15651844193E+03  0.30571888276E+03  0.40571549266E+03  0.84639076389E+03  0.65864270000E+03 0.  0.
    8880022    1    1    2    0    0 -0.15651844193E+03 -0.30571888276E+03  0.13253345031E+04  0.13776303045E+04  0.15294330000E+03 0. -1.
<mgrwt>
<rscale>  0 0.62653935E+03</rscale>
<asrwt>0</asrwt>
<pdfrwt beam="1">  1        2 0.30423624E+00 0.74281375E+03</pdfrwt>
<pdfrwt beam="2">  1       -2 0.37920851E-01 0.74281375E+03</pdfrwt>
<totfact> 0.46521597E+01</totfact>
</mgrwt>
</event>
<event>
 4    5  0.1112901E-007  0.6917756E+03  0.7818608E-02  0.1003320E+00
         -2   -1    0    0    0  501 -0.00000000000E+00  0.00000000000E+00  0.12756101330E+03  0.12756101332E+03  0.25500000000E-02 0.  1.
          2   -1    0    0  501    0  0.00000000000E+00 -0.00000000000E+00 -0.25065441947E+04  0.25065441947E+04  0.25500000000E-02 0. -1.
    8880023    1    1    2    0    0 -0.18026907569E+03 -0.11066314252E+03 -0.91521514252E+03  0.11472454986E+04  0.65864270000E+03 0.  1.
    8880022    1    1    2    0    0  0.18026907569E+03  0.11066314252E+03 -0.14637680389E+04  0.14868597094E+04  0.15294330000E+03 0.  0.
<mgrwt>
<rscale>  0 0.54218207E+03</rscale>
<asrwt>0</asrwt>
<pdfrwt beam="1">  1        2 0.38562215E+00 0.69177560E+03</pdfrwt>
<pdfrwt beam="2">  1       -2 0.19624773E-01 0.69177560E+03</pdfrwt>
<totfact> 0.79697338E+01</totfact>
</mgrwt>
</event>
<event>
 4    5  0.1112901E-007  0.1268025E+04  0.7818608E-02  0.9093676E-01
         -2   -1    0    0    0  501 -0.00000000000E+00  0.00000000000E+00  0.23602094101E+04  0.23602094101E+04  0.25500000000E-02 0.  1.
          2   -1    0    0  501    0  0.00000000000E+00 -0.00000000000E+00 -0.16872195020E+04  0.16872195020E+04  0.25500000000E-02 0. -1.
    8880023    1    1    2    0    0  0.29161500035E+03  0.10435693726E+04  0.19747595734E+04  0.23468195335E+04  0.65864270000E+03 0.  0.
    8880022    1    1    2    0    0 -0.29161500035E+03 -0.10435693726E+04 -0.13017696653E+04  0.17006093786E+04  0.15294330000E+03 0.  0.
<mgrwt>
<rscale>  0 0.12221620E+04</rscale>
<asrwt>0</asrwt>
<pdfrwt beam="1">  1        2 0.25957223E+00 0.12680247E+04</pdfrwt>
<pdfrwt beam="2">  1       -2 0.36310914E+00 0.12680247E+04</pdfrwt>
<totfact> 0.12437898E-01</totfact>
</mgrwt>
</event>
<event>
 4    5  0.1112901E-007  0.1746488E+04  0.7818608E-02  0.8752730E-01
          2   -1    0    0  501    0  0.00000000000E+00  0.00000000000E+00  0.39156872620E+04  0.39156872620E+04  0.25500000000E-02 0. -1.
         -2   -1    0    0    0  501 -0.00000000000E+00 -0.00000000000E+00 -0.14096126924E+04  0.14096126924E+04  0.25500000000E-02 0.  1.
    8880023    1    1    2    0    0  0.10021954989E+04  0.12696507097E+04 -0.57781534302E+03  0.18395894976E+04  0.65864270000E+03 0.  0.
    8880022    1    1    2    0    0 -0.10021954989E+04 -0.12696507097E+04  0.30838899126E+04  0.34857104568E+04  0.15294330000E+03 0.  0.
<mgrwt>
<rscale>  0 0.17152227E+04</rscale>
<asrwt>0</asrwt>
<pdfrwt beam="1">  1        2 0.60241343E+00 0.17464876E+04</pdfrwt>
<pdfrwt beam="2">  1       -2 0.21686349E+00 0.17464876E+04</pdfrwt>
<totfact> 0.38082510E-02</totfact>
</mgrwt>
</event>
<event>
 4    5  0.1112901E-007  0.8821716E+03  0.7818608E-02  0.9555280E-01
          2   -1    0    0  501    0  0.00000000000E+00  0.00000000000E+00  0.20715509551E+04  0.20715509551E+04  0.25500000000E-02 0. -1.
         -2   -1    0    0    0  501 -0.00000000000E+00 -0.00000000000E+00 -0.36161771176E+03  0.36161771177E+03  0.25500000000E-02 0.  1.
    8880023    1    1    2    0    0  0.38132836633E+03  0.44610008627E+03  0.35913778837E+03  0.95247402444E+03  0.65864270000E+03 0.  0.
    8880022    1    1    2    0    0 -0.38132836633E+03 -0.44610008627E+03  0.13507954550E+04  0.14806946424E+04  0.15294330000E+03 0.  0.
<mgrwt>
<rscale>  0 0.80328102E+03</rscale>
<asrwt>0</asrwt>
<pdfrwt beam="1">  1        2 0.31870014E+00 0.88217165E+03</pdfrwt>
<pdfrwt beam="2">  1       -2 0.55633495E-01 0.88217165E+03</pdfrwt>
<totfact> 0.18837302E+01</totfact>
</mgrwt>
</event>
<event>
 4    5  0.1112901E-007  0.1232173E+04  0.7818608E-02  0.9126465E-01
         -2   -1    0    0    0  501 -0.00000000000E+00  0.00000000000E+00  0.88256396034E+03  0.88256396034E+03  0.25500000000E-02 0.  1.
          2   -1    0    0  501    0  0.00000000000E+00 -0.00000000000E+00 -0.17104480666E+04  0.17104480666E+04  0.25500000000E-02 0. -1.
    8880023    1    1    2    0    0  0.96041596867E+03 -0.40254430657E+03  0.33960676182E+02  0.12326411828E+04  0.65864270000E+03 0.  0.
    8880022    1    1    2    0    0 -0.96041596867E+03  0.40254430657E+03 -0.86184478241E+03  0.13603708442E+04  0.15294330000E+03 0.  0.
<mgrwt>
<rscale>  0 0.11845765E+04</rscale>
<asrwt>0</asrwt>
<pdfrwt beam="1">  1        2 0.26314586E+00 0.12321733E+04</pdfrwt>
<pdfrwt beam="2">  1       -2 0.13577907E+00 0.12321733E+04</pdfrwt>
<totfact> 0.36501228E+00</totfact>
</mgrwt>
</event>
<event>
 4    5  0.1112901E-007  0.7793568E+03  0.7818608E-02  0.9757350E-01
          2   -1    0    0  501    0  0.00000000000E+00  0.00000000000E+00  0.20492546628E+04  0.20492546628E+04  0.25500000000E-02 0. -1.
         -2   -1    0    0    0  501 -0.00000000000E+00 -0.00000000000E+00 -0.29901161955E+03  0.29901161956E+03  0.25500000000E-02 0.  1.
    8880023    1    1    2    0    0  0.22038375199E+03 -0.35357855177E+03  0.30584768126E+03  0.83722147656E+03  0.65864270000E+03 0.  1.
    8880022    1    1    2    0    0 -0.22038375199E+03  0.35357855177E+03  0.14443953620E+04  0.15110448058E+04  0.15294330000E+03 0.  0.
<mgrwt>
<rscale>  0 0.67702480E+03</rscale>
<asrwt>0</asrwt>
<pdfrwt beam="1">  1        2 0.31526995E+00 0.77935678E+03</pdfrwt>
<pdfrwt beam="2">  1       -2 0.46001787E-01 0.77935678E+03</pdfrwt>
<totfact> 0.28940141E+01</totfact>
</mgrwt>
</event>
<event>
 4    5  0.1112901E-007  0.6943990E+03  0.7818608E-02  0.1002128E+00
         -2   -1    0    0    0  501 -0.00000000000E+00  0.00000000000E+00  0.15836564251E+03  0.15836564253E+03  0.25500000000E-02 0.  1.
          2   -1    0    0  501    0  0.00000000000E+00 -0.00000000000E+00 -0.21748759993E+04  0.21748759993E+04  0.25500000000E-02 0. -1.
    8880023    1    1    2    0    0  0.82774015604E+02 -0.20378459290E+03 -0.68628701654E+03  0.97630926109E+03  0.65864270000E+03 0.  0.
    8880022    1    1    2    0    0 -0.82774015604E+02  0.20378459290E+03 -0.13302233403E+04  0.13569323808E+04  0.15294330000E+03 0.  1.
<mgrwt>
<rscale>  0 0.54726879E+03</rscale>
<asrwt>0</asrwt>
<pdfrwt beam="1">  1        2 0.33459629E+00 0.69439895E+03</pdfrwt>
<pdfrwt beam="2">  1       -2 0.24363946E-01 0.69439895E+03</pdfrwt>
<totfact> 0.83124621E+01</totfact>
</mgrwt>
</event>
<event>
 4    5  0.1112901E-007  0.1531174E+04  0.7818608E-02  0.8887931E-01
         -2   -1    0    0    0  501 -0.00000000000E+00  0.00000000000E+00  0.85963025888E+03  0.85963025888E+03  0.25500000000E-02 0.  1.
          2   -1    0    0  501    0  0.00000000000E+00 -0.00000000000E+00 -0.31354831576E+04  0.31354831576E+04  0.25500000000E-02 0. -1.
    8880023    1    1    2    0    0  0.10597625617E+04  0.88746112276E+03 -0.20917362698E+04  0.25922682655E+04  0.65864270000E+03 0.  0.
    8880022    1    1    2    0    0 -0.10597625617E+04 -0.88746112276E+03 -0.18411662887E+03  0.14028451510E+04  0.15294330000E+03 0.  0.
<mgrwt>
<rscale>  0 0.14947811E+04</rscale>
<asrwt>0</asrwt>
<pdfrwt beam="1">  1        2 0.48238202E+00 0.15311741E+04</pdfrwt>
<pdfrwt beam="2">  1       -2 0.13225081E+00 0.15311741E+04</pdfrwt>
<totfact> 0.56303662E-01</totfact>
</mgrwt>
</event>
<event>
 4    5  0.1112901E-007  0.7487448E+03  0.7818608E-02  0.9835169E-01
         -2   -1    0    0    0  501 -0.00000000000E+00  0.00000000000E+00  0.38721529621E+03  0.38721529622E+03  0.25500000000E-02 0.  1.
          2   -1    0    0  501    0  0.00000000000E+00 -0.00000000000E+00 -0.14825642794E+04  0.14825642794E+04  0.25500000000E-02 0. -1.
    8880023    1    1    2    0    0  0.34463430104E+03  0.89642200201E+02 -0.44868530374E+02  0.75008793937E+03  0.65864270000E+03 0.  1.
    8880022    1    1    2    0    0 -0.34463430104E+03 -0.89642200201E+02 -0.10504804528E+04  0.11196916362E+04  0.15294330000E+03 0. -1.
<mgrwt>
<rscale>  0 0.63508837E+03</rscale>
<asrwt>0</asrwt>
<pdfrwt beam="1">  1        2 0.22808681E+00 0.74874477E+03</pdfrwt>
<pdfrwt beam="2">  1       -2 0.59571585E-01 0.74874477E+03</pdfrwt>
<totfact> 0.34922394E+01</totfact>
</mgrwt>
</event>
<event>
 4    5  0.1112901E-007  0.7479745E+03  0.7818608E-02  0.9837299E-01
          2   -1    0    0  501    0  0.00000000000E+00  0.00000000000E+00  0.61203396595E+03  0.61203396595E+03  0.25500000000E-02 0. -1.
         -2   -1    0    0    0  501 -0.00000000000E+00 -0.00000000000E+00 -0.66874098760E+03  0.66874098761E+03  0.25500000000E-02 0.  1.
    8880023    1    1    2    0    0 -0.26197964933E+03 -0.23879333411E+03 -0.31991885854E+03  0.81351943762E+03  0.65864270000E+03 0.  1.
    8880022    1    1    2    0    0  0.26197964933E+03  0.23879333411E+03  0.26321183689E+03  0.46725551593E+03  0.15294330000E+03 0.  0.
<mgrwt>
<rscale>  0 0.63398732E+03</rscale>
<asrwt>0</asrwt>
<pdfrwt beam="1">  1        2 0.94159072E-01 0.74797446E+03</pdfrwt>
<pdfrwt beam="2">  1       -2 0.10288323E+00 0.74797446E+03</pdfrwt>
<totfact> 0.37846480E+01</totfact>
</mgrwt>
</event>
<event>
 4    5  0.1112901E-007  0.8257666E+03  0.7818608E-02  0.9657626E-01
          2   -1    0    0  501    0  0.00000000000E+00  0.00000000000E+00  0.18785204899E+04  0.18785204899E+04  0.25500000000E-02 0. -1.
         -2   -1    0    0    0  501 -0.00000000000E+00 -0.00000000000E+00 -0.58168038142E+03  0.58168038142E+03  0.25500000000E-02 0.  1.
    8880023    1    1    2    0    0 -0.26452340406E+03  0.42202795015E+03 -0.22149407027E+03  0.85495616930E+03  0.65864270000E+03 0.  1.
    8880022    1    1    2    0    0  0.26452340406E+03 -0.42202795015E+03  0.15183341788E+04  0.16052447020E+04  0.15294330000E+03 0.  0.
<mgrwt>
<rscale>  0 0.73596740E+03</rscale>
<asrwt>0</asrwt>
<pdfrwt beam="1">  1        2 0.28900315E+00 0.82576657E+03</pdfrwt>
<pdfrwt beam="2">  1       -2 0.89489290E-01 0.82576657E+03</pdfrwt>
<totfact> 0.85372558E+00</totfact>
</mgrwt>
</event>
<event>
 4    5  0.1112901E-007  0.8262260E+03  0.7818608E-02  0.9656721E-01
         -2   -1    0    0    0  501 -0.00000000000E+00  0.00000000000E+00  0.11253059900E+04  0.11253059900E+04  0.25500000000E-02 0.  1.
          2   -1    0    0  501    0  0.00000000000E+00 -0.00000000000E+00 -0.68872541784E+03  0.68872541785E+03  0.25500000000E-02 0. -1.
    8880023    1    1    2    0    0 -0.26279144889E+03 -0.42400447615E+03 -0.32752965481E+03  0.88877726256E+03  0.65864270000E+03 0.  0.
    8880022    1    1    2    0    0  0.26279144889E+03  0.42400447615E+03  0.76411022696E+03  0.92525414528E+03  0.15294330000E+03 0.  0.
<mgrwt>
<rscale>  0 0.73653143E+03</rscale>
<asrwt>0</asrwt>
<pdfrwt beam="1">  1        2 0.10595776E+00 0.82622597E+03</pdfrwt>
<pdfrwt beam="2">  1       -2 0.17312400E+00 0.82622597E+03</pdfrwt>
<totfact> 0.85465144E+00</totfact>
</mgrwt>
</event>
<event>
 4    5  0.1112901E-007  0.9494611E+03  0.7818608E-02  0.9450890E-01
          2   -1    0    0  501    0  0.00000000000E+00  0.00000000000E+00  0.19079793759E+04  0.19079793759E+04  0.25500000000E-02 0. -1.
         -2   -1    0    0    0  501 -0.00000000000E+00 -0.00000000000E+00 -0.86895229790E+03  0.86895229791E+03  0.25500000000E-02 0.  1.
    8880023    1    1    2    0    0  0.39592203780E+03 -0.55759467670E+03 -0.50928295447E+03  0.10774253652E+04  0.65864270000E+03 0.  1.
    8880022    1    1    2    0    0 -0.39592203780E+03  0.55759467670E+03  0.15483100324E+04  0.16995063086E+04  0.15294330000E+03 0.  0.
<mgrwt>
<rscale>  0 0.88003397E+03</rscale>
<asrwt>0</asrwt>
<pdfrwt beam="1">  1        2 0.29353529E+00 0.94946105E+03</pdfrwt>
<pdfrwt beam="2">  1       -2 0.13368497E+00 0.94946105E+03</pdfrwt>
<totfact> 0.30518497E+00</totfact>
</mgrwt>
</event>
<event>
 4    5  0.1112901E-007  0.6622315E+03  0.7818608E-02  0.1021978E+00
          2   -1    0    0  501    0  0.00000000000E+00  0.00000000000E+00  0.94916554426E+03  0.94916554426E+03  0.25500000000E-02 0. -1.
         -2   -1    0    0    0  501 -0.00000000000E+00 -0.00000000000E+00 -0.47250093633E+03  0.47250093634E+03  0.25500000000E-02 0.  1.
    8880023    1    1    2    0    0 -0.11222313992E+02 -0.67929219382E+02 -0.22563557834E+03  0.69961556562E+03  0.65864270000E+03 0.  1.
    8880022    1    1    2    0    0  0.11222313992E+02  0.67929219382E+02  0.70230018627E+03  0.72205091498E+03  0.15294330000E+03 0.  0.
<mgrwt>
<rscale>  0 0.46979391E+03</rscale>
<asrwt>0</asrwt>
<pdfrwt beam="1">  1        2 0.14602546E+00 0.66223147E+03</pdfrwt>
<pdfrwt beam="2">  1       -2 0.72692454E-01 0.66223147E+03</pdfrwt>
<totfact> 0.47596122E+01</totfact>
</mgrwt>
</event>
<event>
 4    5  0.1112901E-007  0.6780621E+03  0.7818608E-02  0.1010442E+00
         -2   -1    0    0    0  501 -0.00000000000E+00  0.00000000000E+00  0.22852310103E+03  0.22852310104E+03  0.25500000000E-02 0.  1.
          2   -1    0    0  501    0  0.00000000000E+00 -0.00000000000E+00 -0.21709958240E+04  0.21709958240E+04  0.25500000000E-02 0. -1.
    8880023    1    1    2    0    0 -0.86577278334E+02 -0.13587633421E+03 -0.29893054492E+03  0.74103149749E+03  0.65864270000E+03 0.  1.
    8880022    1    1    2    0    0  0.86577278334E+02  0.13587633421E+03 -0.16435421780E+04  0.16584874275E+04  0.15294330000E+03 0.  0.
<mgrwt>
<rscale>  0 0.51299439E+03</rscale>
<asrwt>0</asrwt>
<pdfrwt beam="1">  1        2 0.33399934E+00 0.67806210E+03</pdfrwt>
<pdfrwt beam="2">  1       -2 0.35157402E-01 0.67806210E+03</pdfrwt>
<totfact> 0.42523476E+01</totfact>
</mgrwt>
</event>
<event>
 4    5  0.1112901E-007  0.1300122E+04  0.7818608E-02  0.9065455E-01
          2   -1    0    0  501    0  0.00000000000E+00  0.00000000000E+00  0.19890171524E+04  0.19890171524E+04  0.25500000000E-02 0. -1.
         -2   -1    0    0    0  501 -0.00000000000E+00 -0.00000000000E+00 -0.10981537091E+04  0.10981537091E+04  0.25500000000E-02 0.  1.
    8880023    1    1    2    0    0  0.39885728226E+03 -0.10475776112E+04 -0.40994593207E+03  0.13632211327E+04  0.65864270000E+03 0.  0.
    8880022    1    1    2    0    0 -0.39885728226E+03  0.10475776112E+04  0.13008093754E+04  0.17239497287E+04  0.15294330000E+03 0.  0.
<mgrwt>
<rscale>  0 0.12556971E+04</rscale>
<asrwt>0</asrwt>
<pdfrwt beam="1">  1        2 0.30600264E+00 0.13001216E+04</pdfrwt>
<pdfrwt beam="2">  1       -2 0.16894672E+00 0.13001216E+04</pdfrwt>
<totfact> 0.14123748E+00</totfact>
</mgrwt>
</event>
<event>
 4    5  0.1112901E-007  0.1259139E+04  0.7818608E-02  0.9101674E-01
         -2   -1    0    0    0  501 -0.00000000000E+00  0.00000000000E+00  0.10725744141E+04  0.10725744141E+04  0.25500000000E-02 0.  1.
          2   -1    0    0  501    0  0.00000000000E+00 -0.00000000000E+00 -0.21386094229E+04  0.21386094229E+04  0.25500000000E-02 0. -1.
    8880023    1    1    2    0    0 -0.96072467355E+03 -0.47815217795E+03 -0.15726893805E+04  0.20146422753E+04  0.65864270000E+03 0.  0.
    8880022    1    1    2    0    0  0.96072467355E+03  0.47815217795E+03  0.50665437172E+03  0.11965415618E+04  0.15294330000E+03 0.  0.
<mgrwt>
<rscale>  0 0.12128599E+04</rscale>
<asrwt>0</asrwt>
<pdfrwt beam="1">  1        2 0.32901683E+00 0.12591392E+04</pdfrwt>
<pdfrwt beam="2">  1       -2 0.16501145E+00 0.12591392E+04</pdfrwt>
<totfact> 0.12506737E+00</totfact>
</mgrwt>
</event>
<event>
 4    5  0.1112901E-007  0.6626836E+03  0.7818608E-02  0.1021561E+00
         -2   -1    0    0    0  501 -0.00000000000E+00  0.00000000000E+00  0.64324563634E+02  0.64324563684E+02  0.25500000000E-02 0.  1.
          2   -1    0    0  501    0  0.00000000000E+00 -0.00000000000E+00 -0.33938342910E+04  0.33938342910E+04  0.25500000000E-02 0. -1.
    8880023    1    1    2    0    0  0.37288478139E+02  0.62840477894E+02 -0.17791103330E+04  0.18985213034E+04  0.65864270000E+03 0.  1.
    8880022    1    1    2    0    0 -0.37288478139E+02 -0.62840477894E+02 -0.15503993944E+04  0.15596375513E+04  0.15294330000E+03 0.  0.
<mgrwt>
<rscale>  0 0.47127405E+03</rscale>
<asrwt>0</asrwt>
<pdfrwt beam="1">  1        2 0.52212821E+00 0.66268361E+03</pdfrwt>
<pdfrwt beam="2">  1       -2 0.98960894E-02 0.66268361E+03</pdfrwt>
<totfact> 0.72961951E+01</totfact>
</mgrwt>
</event>
<event>
 4    5  0.1112901E-007  0.1126032E+04  0.7818608E-02  0.9232612E-01
         -2   -1    0    0    0  501 -0.00000000000E+00  0.00000000000E+00  0.13602902437E+04  0.13602902437E+04  0.25500000000E-02 0.  1.
          2   -1    0    0  501    0  0.00000000000E+00 -0.00000000000E+00 -0.85259861061E+03  0.85259861061E+03  0.25500000000E-02 0. -1.
    8880023    1    1    2    0    0  0.90948263371E+03  0.83541823677E+02  0.61099137895E+03  0.12811161418E+04  0.65864270000E+03 0.  1.
    8880022    1    1    2    0    0 -0.90948263371E+03 -0.83541823677E+02 -0.10329974585E+03  0.93177271254E+03  0.15294330000E+03 0.  0.
<mgrwt>
<rscale>  0 0.10723071E+04</rscale>
<asrwt>0</asrwt>
<pdfrwt beam="1">  1        2 0.13116902E+00 0.11260320E+04</pdfrwt>
<pdfrwt beam="2">  1       -2 0.20927542E+00 0.11260320E+04</pdfrwt>
<totfact> 0.35884084E+00</totfact>
</mgrwt>
</event>
<event>
 4    5  0.1112901E-007  0.1250206E+04  0.7818608E-02  0.9109799E-01
          2   -1    0    0  501    0  0.00000000000E+00  0.00000000000E+00  0.35004416893E+04  0.35004416893E+04  0.25500000000E-02 0. -1.
         -2   -1    0    0    0  501 -0.00000000000E+00 -0.00000000000E+00 -0.51783545589E+03  0.51783545589E+03  0.25500000000E-02 0.  1.
    8880023    1    1    2    0    0 -0.45508374662E+03 -0.96026242583E+03  0.56287911465E+03  0.13710755803E+04  0.65864270000E+03 0.  0.
    8880022    1    1    2    0    0  0.45508374662E+03  0.96026242583E+03  0.24197271187E+04  0.26472015649E+04  0.15294330000E+03 0.  0.
<mgrwt>
<rscale>  0 0.12034994E+04</rscale>
<asrwt>0</asrwt>
<pdfrwt beam="1">  1        2 0.53852950E+00 0.12502061E+04</pdfrwt>
<pdfrwt beam="2">  1       -2 0.79666992E-01 0.12502061E+04</pdfrwt>
<totfact> 0.11296035E+00</totfact>
</mgrwt>
</event>
<event>
 4    5  0.1112901E-007  0.1024514E+04  0.7818608E-02  0.9350166E-01
         -2   -1    0    0    0  501 -0.00000000000E+00  0.00000000000E+00  0.17702023136E+04  0.17702023136E+04  0.25500000000E-02 0.  1.
          2   -1    0    0  501    0  0.00000000000E+00 -0.00000000000E+00 -0.80831225667E+03  0.80831225667E+03  0.25500000000E-02 0. -1.
    8880023    1    1    2    0    0  0.61796089169E+03 -0.48367612440E+03  0.13459789819E+04  0.16915341802E+04  0.65864270000E+03 0.  1.
    8880022    1    1    2    0    0 -0.61796089169E+03  0.48367612440E+03 -0.38408892497E+03  0.88698039002E+03  0.15294330000E+03 0.  0.
<mgrwt>
<rscale>  0 0.96292794E+03</rscale>
<asrwt>0</asrwt>
<pdfrwt beam="1">  1        2 0.12435573E+00 0.10245138E+04</pdfrwt>
<pdfrwt beam="2">  1       -2 0.27233882E+00 0.10245138E+04</pdfrwt>
<totfact> 0.15891785E+00</totfact>
</mgrwt>
</event>
<event>
 4    5  0.1112901E-007  0.8849205E+03  0.7818608E-02  0.9550686E-01
         -2   -1    0    0    0  501 -0.00000000000E+00  0.00000000000E+00  0.42107070272E+03  0.42107070272E+03  0.25500000000E-02 0.  1.
          2   -1    0    0  501    0  0.00000000000E+00 -0.00000000000E+00 -0.18220360123E+04  0.18220360123E+04  0.25500000000E-02 0. -1.
    8880023    1    1    2    0    0  0.28752696782E+03  0.51633539794E+03 -0.21717307298E+03  0.91117964764E+03  0.65864270000E+03 0.  0.
    8880022    1    1    2    0    0 -0.28752696782E+03 -0.51633539794E+03 -0.11837922366E+04  0.13319270674E+04  0.15294330000E+03 0.  0.
<mgrwt>
<rscale>  0 0.80647906E+03</rscale>
<asrwt>0</asrwt>
<pdfrwt beam="1">  1        2 0.28031323E+00 0.88492045E+03</pdfrwt>
<pdfrwt beam="2">  1       -2 0.64780109E-01 0.88492045E+03</pdfrwt>
<totfact> 0.18696002E+01</totfact>
</mgrwt>
</event>
<event>
 4    5  0.1112901E-007  0.1110273E+04  0.7818608E-02  0.9249703E-01
          2   -1    0    0  501    0  0.00000000000E+00  0.00000000000E+00  0.85733646955E+03  0.85733646955E+03  0.25500000000E-02 0. -1.
         -2   -1    0    0    0  501 -0.00000000000E+00 -0.00000000000E+00 -0.13520408837E+04  0.13520408837E+04  0.25500000000E-02 0.  1.
    8880023    1    1    2    0    0 -0.12813564606E+02 -0.89371849045E+03  0.11567745556E+03  0.11162833008E+04  0.65864270000E+03 0.  0.
    8880022    1    1    2    0    0  0.12813564606E+02  0.89371849045E+03 -0.61038186968E+03  0.10930940524E+04  0.15294330000E+03 0.  0.
<mgrwt>
<rscale>  0 0.10554812E+04</rscale>
<asrwt>0</asrwt>
<pdfrwt beam="1">  1        2 0.13189792E+00 0.11102735E+04</pdfrwt>
<pdfrwt beam="2">  1       -2 0.20800629E+00 0.11102735E+04</pdfrwt>
<totfact> 0.36340446E+00</totfact>
</mgrwt>
</event>
<event>
 4    5  0.1112901E-007  0.7640237E+03  0.7818608E-02  0.9794800E-01
          2   -1    0    0  501    0  0.00000000000E+00  0.00000000000E+00  0.42070379023E+03  0.42070379024E+03  0.25500000000E-02 0. -1.
         -2   -1    0    0    0  501 -0.00000000000E+00 -0.00000000000E+00 -0.25180508728E+04  0.25180508728E+04  0.25500000000E-02 0.  1.
    8880023    1    1    2    0    0  0.16785702653E+03  0.34892122009E+03 -0.23367748690E+04  0.24585054391E+04  0.65864270000E+03 0.  0.
    8880022    1    1    2    0    0 -0.16785702653E+03 -0.34892122009E+03  0.23942778645E+03  0.48024922397E+03  0.15294330000E+03 0.  0.
<mgrwt>
<rscale>  0 0.65642365E+03</rscale>
<asrwt>0</asrwt>
<pdfrwt beam="1">  1        2 0.64723662E-01 0.76402369E+03</pdfrwt>
<pdfrwt beam="2">  1       -2 0.38739243E+00 0.76402369E+03</pdfrwt>
<totfact> 0.71285149E-01</totfact>
</mgrwt>
</event>
<event>
 4    5  0.1112901E-007  0.7547873E+03  0.7818608E-02  0.9818794E-01
          2   -1    0    0  501    0  0.00000000000E+00  0.00000000000E+00  0.10160988038E+04  0.10160988038E+04  0.25500000000E-02 0. -1.
         -2   -1    0    0    0  501 -0.00000000000E+00 -0.00000000000E+00 -0.96895653707E+03  0.96895653708E+03  0.25500000000E-02 0.  1.
    8880023    1    1    2    0    0 -0.21421261910E+03  0.30001105069E+03 -0.76839659689E+03  0.10770966591E+04  0.65864270000E+03 0.  1.
    8880022    1    1    2    0    0  0.21421261910E+03 -0.30001105069E+03  0.81553886360E+03  0.90795868176E+03  0.15294330000E+03 0.  0.
<mgrwt>
<rscale>  0 0.64363613E+03</rscale>
<asrwt>0</asrwt>
<pdfrwt beam="1">  1        2 0.15632289E+00 0.75478731E+03</pdfrwt>
<pdfrwt beam="2">  1       -2 0.14907024E+00 0.75478731E+03</pdfrwt>
<totfact> 0.76268469E+00</totfact>
</mgrwt>
</event>
<event>
 4    5  0.1112901E-007  0.7237325E+03  0.7818608E-02  0.9910153E-01
          2   -1    0    0  501    0  0.00000000000E+00  0.00000000000E+00  0.34035409812E+04  0.34035409812E+04  0.25500000000E-02 0. -1.
         -2   -1    0    0    0  501 -0.00000000000E+00 -0.00000000000E+00 -0.34728797759E+03  0.34728797760E+03  0.25500000000E-02 0.  1.
    8880023    1    1    2    0    0 -0.18609290448E+03  0.23526154335E+03  0.49652623990E+02  0.72543376831E+03  0.65864270000E+03 0.  1.
    8880022    1    1    2    0    0  0.18609290448E+03 -0.23526154335E+03  0.30066003796E+04  0.30253951905E+04  0.15294330000E+03 0.  0.
<mgrwt>
<rscale>  0 0.59771746E+03</rscale>
<asrwt>0</asrwt>
<pdfrwt beam="1">  1        2 0.52362168E+00 0.72373253E+03</pdfrwt>
<pdfrwt beam="2">  1       -2 0.53428920E-01 0.72373253E+03</pdfrwt>
<totfact> 0.34058864E+00</totfact>
</mgrwt>
</event>
<event>
 4    5  0.1112901E-007  0.7614779E+03  0.7818608E-02  0.9801296E-01
         -2   -1    0    0    0  501 -0.00000000000E+00  0.00000000000E+00  0.13103965176E+04  0.13103965176E+04  0.25500000000E-02 0.  1.
          2   -1    0    0  501    0  0.00000000000E+00 -0.00000000000E+00 -0.76259626155E+03  0.76259626156E+03  0.25500000000E-02 0. -1.
    8880023    1    1    2    0    0 -0.39290639493E+02  0.38012451654E+03  0.11283922309E+04  0.13612926340E+04  0.65864270000E+03 0.  0.
    8880022    1    1    2    0    0  0.39290639493E+02 -0.38012451654E+03 -0.58059197480E+03  0.71170014518E+03  0.15294330000E+03 0.  0.
<mgrwt>
<rscale>  0 0.65293025E+03</rscale>
<asrwt>0</asrwt>
<pdfrwt beam="1">  1        2 0.11732250E+00 0.76147791E+03</pdfrwt>
<pdfrwt beam="2">  1       -2 0.20159946E+00 0.76147791E+03</pdfrwt>
<totfact> 0.48603890E+00</totfact>
</mgrwt>
</event>
<event>
 4    5  0.1112901E-007  0.1966005E+04  0.7818608E-02  0.8635872E-01
          2   -1    0    0  501    0  0.00000000000E+00  0.00000000000E+00  0.13362836631E+04  0.13362836631E+04  0.25500000000E-02 0. -1.
         -2   -1    0    0    0  501 -0.00000000000E+00 -0.00000000000E+00 -0.33322033628E+04  0.33322033628E+04  0.25500000000E-02 0.  1.
    8880023    1    1    2    0    0  0.13201605225E+04  0.12994391388E+04 -0.20073716947E+04  0.28097539408E+04  0.65864270000E+03 0.  0.
    8880022    1    1    2    0    0 -0.13201605225E+04 -0.12994391388E+04  0.11451995020E+02  0.18587330852E+04  0.15294330000E+03 0.  0.
<mgrwt>
<rscale>  0 0.19386110E+04</rscale>
<asrwt>0</asrwt>
<pdfrwt beam="1">  1        2 0.20558210E+00 0.19660051E+04</pdfrwt>
<pdfrwt beam="2">  1       -2 0.51264667E+00 0.19660051E+04</pdfrwt>
<totfact> 0.19306297E-02</totfact>
</mgrwt>
</event>
<event>
 4    5  0.1112901E-007  0.9352218E+03  0.7818608E-02  0.9471703E-01
          2   -1    0    0  501    0  0.00000000000E+00  0.00000000000E+00  0.94888515852E+03  0.94888515852E+03  0.25500000000E-02 0. -1.
         -2   -1    0    0    0  501 -0.00000000000E+00 -0.00000000000E+00 -0.20234927588E+04  0.20234927588E+04  0.25500000000E-02 0.  1.
    8880023    1    1    2    0    0 -0.63435928515E+03  0.19600482363E+03 -0.17680898591E+04  0.20001953779E+04  0.65864270000E+03 0.  1.
    8880022    1    1    2    0    0  0.63435928515E+03 -0.19600482363E+03  0.69348225888E+03  0.97218253941E+03  0.15294330000E+03 0.  0.
<mgrwt>
<rscale>  0 0.86402556E+03</rscale>
<asrwt>0</asrwt>
<pdfrwt beam="1">  1        2 0.14598233E+00 0.93522179E+03</pdfrwt>
<pdfrwt beam="2">  1       -2 0.31130658E+00 0.93522179E+03</pdfrwt>
<totfact> 0.74814123E-01</totfact>
</mgrwt>
</event>
<event>
 4    5  0.1112901E-007  0.1472416E+04  0.7818608E-02  0.8929363E-01
          2   -1    0    0  501    0  0.00000000000E+00  0.00000000000E+00  0.35277788952E+04  0.35277788952E+04  0.25500000000E-02 0. -1.
         -2   -1    0    0    0  501 -0.00000000000E+00 -0.00000000000E+00 -0.10550745219E+04  0.10550745219E+04  0.25500000000E-02 0.  1.
    8880023    1    1    2    0    0 -0.22421732621E+03  0.12976618114E+04  0.28470602167E+04  0.32052709199E+04  0.65864270000E+03 0.  0.
    8880022    1    1    2    0    0  0.22421732621E+03 -0.12976618114E+04 -0.37435584345E+03  0.13775824972E+04  0.15294330000E+03 0.  0.
<mgrwt>
<rscale>  0 0.14342924E+04</rscale>
<asrwt>0</asrwt>
<pdfrwt beam="1">  1        2 0.54273522E+00 0.14724163E+04</pdfrwt>
<pdfrwt beam="2">  1       -2 0.16231915E+00 0.14724163E+04</pdfrwt>
<totfact> 0.17982080E-01</totfact>
</mgrwt>
</event>
<event>
 4    5  0.1112901E-007  0.6587778E+03  0.7818608E-02  0.1025445E+00
         -2   -1    0    0    0  501 -0.00000000000E+00  0.00000000000E+00  0.52003244283E+03  0.52003244284E+03  0.25500000000E-02 0.  1.
          2   -1    0    0  501    0  0.00000000000E+00 -0.00000000000E+00 -0.46503333080E+03  0.46503333080E+03  0.25500000000E-02 0. -1.
    8880023    1    1    2    0    0  0.12905691782E+02  0.33844445370E+01  0.27741801527E+03  0.71480694793E+03  0.65864270000E+03 0.  1.
    8880022    1    1    2    0    0 -0.12905691782E+02 -0.33844445370E+01 -0.22241890324E+03  0.27025882572E+03  0.15294330000E+03 0.  0.
<mgrwt>
<rscale>  0 0.45771843E+03</rscale>
<asrwt>0</asrwt>
<pdfrwt beam="1">  1        2 0.71543590E-01 0.65877782E+03</pdfrwt>
<pdfrwt beam="2">  1       -2 0.80004991E-01 0.65877782E+03</pdfrwt>
<totfact> 0.94055629E+01</totfact>
</mgrwt>
</event>
<event>
 4    5  0.1112901E-007  0.1133923E+04  0.7818608E-02  0.9224195E-01
         -2   -1    0    0    0  501 -0.00000000000E+00  0.00000000000E+00  0.17231766268E+04  0.17231766268E+04  0.25500000000E-02 0.  1.
          2   -1    0    0  501    0  0.00000000000E+00 -0.00000000000E+00 -0.10458419659E+04  0.10458419659E+04  0.25500000000E-02 0. -1.
    8880023    1    1    2    0    0  0.85913832781E+03  0.33742042220E+03  0.12375718948E+04  0.16785010005E+04  0.65864270000E+03 0.  1.
    8880022    1    1    2    0    0 -0.85913832781E+03 -0.33742042220E+03 -0.56023723389E+03  0.10905175922E+04  0.15294330000E+03 0.  0.
<mgrwt>
<rscale>  0 0.10807150E+04</rscale>
<asrwt>0</asrwt>
<pdfrwt beam="1">  1        2 0.16089877E+00 0.11339230E+04</pdfrwt>
<pdfrwt beam="2">  1       -2 0.26510409E+00 0.11339230E+04</pdfrwt>
<totfact> 0.12010276E+00</totfact>
</mgrwt>
</event>
<event>
 4    5  0.1112901E-007  0.9178339E+03  0.7818608E-02  0.9497988E-01
         -2   -1    0    0    0  501 -0.00000000000E+00  0.00000000000E+00  0.88932253609E+03  0.88932253610E+03  0.25500000000E-02 0.  1.
          2   -1    0    0  501    0  0.00000000000E+00 -0.00000000000E+00 -0.12380408142E+04  0.12380408142E+04  0.25500000000E-02 0. -1.
    8880023    1    1    2    0    0  0.49734093623E+02  0.63728749366E+03  0.50684488443E+03  0.10484802205E+04  0.65864270000E+03 0.  0.
    8880022    1    1    2    0    0 -0.49734093623E+02 -0.63728749366E+03 -0.85556316250E+03  0.10788831298E+04  0.15294330000E+03 0.  0.
<mgrwt>
<rscale>  0 0.84432295E+03</rscale>
<asrwt>0</asrwt>
<pdfrwt beam="1">  1        2 0.19046782E+00 0.91783388E+03</pdfrwt>
<pdfrwt beam="2">  1       -2 0.13681885E+00 0.91783388E+03</pdfrwt>
<totfact> 0.68566964E+00</totfact>
</mgrwt>
</event>
<event>
 4    5  0.1112901E-007  0.8091275E+03  0.7818608E-02  0.9691397E-01
         -2   -1    0    0    0  501 -0.00000000000E+00  0.00000000000E+00  0.79388937350E+03  0.79388937351E+03  0.25500000000E-02 0.  1.
          2   -1    0    0  501    0  0.00000000000E+00 -0.00000000000E+00 -0.14435740437E+04  0.14435740437E+04  0.25500000000E-02 0. -1.
    8880023    1    1    2    0    0  0.32429146345E+03 -0.34016495540E+03  0.52398598277E+03  0.96397544915E+03  0.65864270000E+03 0.  1.
    8880022    1    1    2    0    0 -0.32429146345E+03  0.34016495540E+03 -0.11736706530E+04  0.12734879681E+04  0.15294330000E+03 0.  0.
<mgrwt>
<rscale>  0 0.71531319E+03</rscale>
<asrwt>0</asrwt>
<pdfrwt beam="1">  1        2 0.22208831E+00 0.80912753E+03</pdfrwt>
<pdfrwt beam="2">  1       -2 0.12213683E+00 0.80912753E+03</pdfrwt>
<totfact> 0.70540048E+00</totfact>
</mgrwt>
</event>
<event>
 4    5  0.1112901E-007  0.7540177E+03  0.7818608E-02  0.9820849E-01
         -2   -1    0    0    0  501 -0.00000000000E+00  0.00000000000E+00  0.18151763310E+04  0.18151763310E+04  0.25500000000E-02 0.  1.
          2   -1    0    0  501    0  0.00000000000E+00 -0.00000000000E+00 -0.21560433841E+03  0.21560433842E+03  0.25500000000E-02 0. -1.
    8880023    1    1    2    0    0  0.88964228541E+02 -0.35611484008E+03  0.13898668299E+04  0.15812249759E+04  0.65864270000E+03 0.  0.
    8880022    1    1    2    0    0 -0.88964228541E+02  0.35611484008E+03  0.20970516264E+03  0.44955569348E+03  0.15294330000E+03 0.  0.
<mgrwt>
<rscale>  0 0.64255585E+03</rscale>
<asrwt>0</asrwt>
<pdfrwt beam="1">  1        2 0.33169897E-01 0.75401765E+03</pdfrwt>
<pdfrwt beam="2">  1       -2 0.27925790E+00 0.75401765E+03</pdfrwt>
<totfact> 0.69835763E+00</totfact>
</mgrwt>
</event>
<event>
 4    5  0.1112901E-007  0.6715715E+03  0.7818608E-02  0.1014560E+00
         -2   -1    0    0    0  501 -0.00000000000E+00  0.00000000000E+00  0.11326586141E+04  0.11326586141E+04  0.25500000000E-02 0.  1.
          2   -1    0    0  501    0  0.00000000000E+00 -0.00000000000E+00 -0.14791462569E+04  0.14791462569E+04  0.25500000000E-02 0. -1.
    8880023    1    1    2    0    0 -0.12937904932E+03 -0.21426670888E+02  0.10251024508E+04  0.12254971568E+04  0.65864270000E+03 0.  1.
    8880022    1    1    2    0    0  0.12937904932E+03  0.21426670888E+02 -0.13715900935E+04  0.13863077142E+04  0.15294330000E+03 0.  0.
<mgrwt>
<rscale>  0 0.49701690E+03</rscale>
<asrwt>0</asrwt>
<pdfrwt beam="1">  1        2 0.22756096E+00 0.67157148E+03</pdfrwt>
<pdfrwt beam="2">  1       -2 0.17425517E+00 0.67157148E+03</pdfrwt>
<totfact> 0.27047706E+00</totfact>
</mgrwt>
</event>
<event>
 4    5  0.1112901E-007  0.1050698E+04  0.7818608E-02  0.9318043E-01
          2   -1    0    0  501    0  0.00000000000E+00  0.00000000000E+00  0.21919153474E+04  0.21919153474E+04  0.25500000000E-02 0. -1.
         -2   -1    0    0    0  501 -0.00000000000E+00 -0.00000000000E+00 -0.69933750818E+03  0.69933750819E+03  0.25500000000E-02 0.  1.
    8880023    1    1    2    0    0  0.81805083714E+03 -0.30800781182E+02 -0.13858153844E+03  0.10597975794E+04  0.65864270000E+03 0.  0.
    8880022    1    1    2    0    0 -0.81805083714E+03  0.30800781182E+02  0.16311593777E+04  0.18314552762E+04  0.15294330000E+03 0.  0.
<mgrwt>
<rscale>  0 0.99138632E+03</rscale>
<asrwt>0</asrwt>
<pdfrwt beam="1">  1        2 0.33721775E+00 0.10506979E+04</pdfrwt>
<pdfrwt beam="2">  1       -2 0.10759039E+00 0.10506979E+04</pdfrwt>
<totfact> 0.36034033E+00</totfact>
</mgrwt>
</event>
<event>
 4    5  0.1112901E-007  0.8781665E+03  0.7818608E-02  0.9562032E-01
         -2   -1    0    0    0  501 -0.00000000000E+00  0.00000000000E+00  0.79872227225E+03  0.79872227225E+03  0.25500000000E-02 0.  1.
          2   -1    0    0  501    0  0.00000000000E+00 -0.00000000000E+00 -0.10750270375E+04  0.10750270375E+04  0.25500000000E-02 0. -1.
    8880023    1    1    2    0    0 -0.36276523954E+03  0.45361619551E+03 -0.71297979435E+03  0.11311572239E+04  0.65864270000E+03 0. -1.
    8880022    1    1    2    0    0  0.36276523954E+03 -0.45361619551E+03  0.43667502910E+03  0.74259208581E+03  0.15294330000E+03 0.  1.
<mgrwt>
<rscale>  0 0.79860983E+03</rscale>
<asrwt>0</asrwt>
<pdfrwt beam="1">  1        2 0.16538877E+00 0.87816654E+03</pdfrwt>
<pdfrwt beam="2">  1       -2 0.12288035E+00 0.87816654E+03</pdfrwt>
<totfact> 0.11343480E+01</totfact>
</mgrwt>
</event>
<event>
 4    5  0.1112901E-007  0.1094732E+04  0.7818608E-02  0.9266944E-01
         -2   -1    0    0    0  501 -0.00000000000E+00  0.00000000000E+00  0.95755197522E+03  0.95755197522E+03  0.25500000000E-02 0.  1.
          2   -1    0    0  501    0  0.00000000000E+00 -0.00000000000E+00 -0.17641151447E+04  0.17641151447E+04  0.25500000000E-02 0. -1.
    8880023    1    1    2    0    0 -0.81672882811E+03  0.31238038981E+03  0.44963143880E+03  0.11834720629E+04  0.65864270000E+03 0.  1.
    8880022    1    1    2    0    0  0.81672882811E+03 -0.31238038981E+03 -0.12561946083E+04  0.15381950570E+04  0.15294330000E+03 0.  0.
<mgrwt>
<rscale>  0 0.10388382E+04</rscale>
<asrwt>0</asrwt>
<pdfrwt beam="1">  1        2 0.27140233E+00 0.10947318E+04</pdfrwt>
<pdfrwt beam="2">  1       -2 0.14731569E+00 0.10947318E+04</pdfrwt>
<totfact> 0.27931431E+00</totfact>
</mgrwt>
</event>
<event>
 4    5  0.1112901E-007  0.7020159E+03  0.7818608E-02  0.9988939E-01
         -2   -1    0    0    0  501 -0.00000000000E+00  0.00000000000E+00  0.30967194856E+03  0.30967194857E+03  0.25500000000E-02 0.  1.
          2   -1    0    0  501    0  0.00000000000E+00 -0.00000000000E+00 -0.34038945435E+04  0.34038945435E+04  0.25500000000E-02 0. -1.
    8880023    1    1    2    0    0 -0.15833383828E+03  0.18424570741E+03 -0.10409616744E+03  0.70969169601E+03  0.65864270000E+03 0.  1.
    8880022    1    1    2    0    0  0.15833383828E+03 -0.18424570741E+03 -0.29901264275E+04  0.30038747961E+04  0.15294330000E+03 0.  0.
<mgrwt>
<rscale>  0 0.56137905E+03</rscale>
<asrwt>0</asrwt>
<pdfrwt beam="1">  1        2 0.52367606E+00 0.70201588E+03</pdfrwt>
<pdfrwt beam="2">  1       -2 0.47641841E-01 0.70201588E+03</pdfrwt>
<totfact> 0.43207368E+00</totfact>
</mgrwt>
</event>
<event>
 4    5  0.1112901E-007  0.7854193E+03  0.7818608E-02  0.9743258E-01
         -2   -1    0    0    0  501 -0.00000000000E+00  0.00000000000E+00  0.60875797967E+03  0.60875797968E+03  0.25500000000E-02 0.  1.
          2   -1    0    0  501    0  0.00000000000E+00 -0.00000000000E+00 -0.81214425637E+03  0.81214425637E+03  0.25500000000E-02 0. -1.
    8880023    1    1    2    0    0  0.34399173978E+03  0.25444639000E+03  0.20307756057E+03  0.81124841096E+03  0.65864270000E+03 0.  1.
    8880022    1    1    2    0    0 -0.34399173978E+03 -0.25444639000E+03 -0.40646383727E+03  0.60965382509E+03  0.15294330000E+03 0.  0.
<mgrwt>
<rscale>  0 0.68498643E+03</rscale>
<asrwt>0</asrwt>
<pdfrwt beam="1">  1        2 0.12494527E+00 0.78541931E+03</pdfrwt>
<pdfrwt beam="2">  1       -2 0.93655074E-01 0.78541931E+03</pdfrwt>
<totfact> 0.32890434E+01</totfact>
</mgrwt>
</event>
<event>
 4    5  0.1112901E-007  0.9961939E+03  0.7818608E-02  0.9386554E-01
         -2   -1    0    0    0  501 -0.00000000000E+00  0.00000000000E+00  0.79557343938E+03  0.79557343939E+03  0.25500000000E-02 0.  1.
          2   -1    0    0  501    0  0.00000000000E+00 -0.00000000000E+00 -0.24281260151E+04  0.24281260151E+04  0.25500000000E-02 0. -1.
    8880023    1    1    2    0    0 -0.43447497585E+03 -0.60813115569E+03  0.38402118040E+03  0.10676490437E+04  0.65864270000E+03 0.  1.
    8880022    1    1    2    0    0  0.43447497585E+03  0.60813115569E+03 -0.20165737562E+04  0.21560504109E+04  0.15294330000E+03 0.  0.
<mgrwt>
<rscale>  0 0.93190522E+03</rscale>
<asrwt>0</asrwt>
<pdfrwt beam="1">  1        2 0.37355784E+00 0.99619386E+03</pdfrwt>
<pdfrwt beam="2">  1       -2 0.12239592E+00 0.99619386E+03</pdfrwt>
<totfact> 0.19480677E+00</totfact>
</mgrwt>
</event>
<event>
 4    5  0.1112901E-007  0.8476986E+03  0.7818608E-02  0.9615831E-01
         -2   -1    0    0    0  501 -0.00000000000E+00  0.00000000000E+00  0.40681982322E+03  0.40681982323E+03  0.25500000000E-02 0.  1.
          2   -1    0    0  501    0  0.00000000000E+00 -0.00000000000E+00 -0.20588714975E+04  0.20588714975E+04  0.25500000000E-02 0. -1.
    8880023    1    1    2    0    0  0.47515251575E+03  0.24292559477E+03 -0.14547265090E+03  0.86009026052E+03  0.65864270000E+03 0.  0.
    8880022    1    1    2    0    0 -0.47515251575E+03 -0.24292559477E+03 -0.15065790233E+04  0.16056010602E+04  0.15294330000E+03 0.  0.
<mgrwt>
<rscale>  0 0.76257170E+03</rscale>
<asrwt>0</asrwt>
<pdfrwt beam="1">  1        2 0.31674945E+00 0.84769863E+03</pdfrwt>
<pdfrwt beam="2">  1       -2 0.62587666E-01 0.84769863E+03</pdfrwt>
<totfact> 0.14995091E+01</totfact>
</mgrwt>
</event>
<event>
 4    5  0.1112901E-007  0.9296176E+03  0.7818608E-02  0.9480067E-01
         -2   -1    0    0    0  501 -0.00000000000E+00  0.00000000000E+00  0.28085434795E+03  0.28085434797E+03  0.25500000000E-02 0.  1.
          2   -1    0    0  501    0  0.00000000000E+00 -0.00000000000E+00 -0.29128994906E+04  0.29128994906E+04  0.25500000000E-02 0. -1.
    8880023    1    1    2    0    0  0.23848626621E+02 -0.65559894289E+03 -0.74889401317E+03  0.11937466985E+04  0.65864270000E+03 0.  0.
    8880022    1    1    2    0    0 -0.23848626621E+02  0.65559894289E+03 -0.18831511295E+04  0.20000071401E+04  0.15294330000E+03 0.  0.
<mgrwt>
<rscale>  0 0.85769481E+03</rscale>
<asrwt>0</asrwt>
<pdfrwt beam="1">  1        2 0.44813836E+00 0.92961763E+03</pdfrwt>
<pdfrwt beam="2">  1       -2 0.43208363E-01 0.92961763E+03</pdfrwt>
<totfact> 0.10326725E+01</totfact>
</mgrwt>
</event>
<event>
 4    5  0.1112901E-007  0.1090670E+04  0.7818608E-02  0.9271515E-01
          2   -1    0    0  501    0  0.00000000000E+00  0.00000000000E+00  0.11192695334E+04  0.11192695334E+04  0.25500000000E-02 0. -1.
         -2   -1    0    0    0  501 -0.00000000000E+00 -0.00000000000E+00 -0.12557770323E+04  0.12557770323E+04  0.25500000000E-02 0.  1.
    8880023    1    1    2    0    0  0.56271238946E+03  0.66265064470E+03 -0.72906538853E+03  0.13119061160E+04  0.65864270000E+03 0.  1.
    8880022    1    1    2    0    0 -0.56271238946E+03 -0.66265064470E+03  0.59255788970E+03  0.10631404497E+04  0.15294330000E+03 0.  0.
<mgrwt>
<rscale>  0 0.10344802E+04</rscale>
<asrwt>0</asrwt>
<pdfrwt beam="1">  1        2 0.17219531E+00 0.10906701E+04</pdfrwt>
<pdfrwt beam="2">  1       -2 0.19319647E+00 0.10906701E+04</pdfrwt>
<totfact> 0.30719218E+00</totfact>
</mgrwt>
</event>
<event>
 4    5  0.1112901E-007  0.9823978E+03  0.7818608E-02  0.9404958E-01
          2   -1    0    0  501    0  0.00000000000E+00  0.00000000000E+00  0.22067163947E+04  0.22067163947E+04  0.25500000000E-02 0. -1.
         -2   -1    0    0    0  501 -0.00000000000E+00 -0.00000000000E+00 -0.57253007428E+03  0.57253007428E+03  0.25500000000E-02 0.  1.
    8880023    1    1    2    0    0 -0.69974728268E+03 -0.20408062962E+03 -0.10434666176E+01  0.98239831946E+03  0.65864270000E+03 0.  0.
    8880022    1    1    2    0    0  0.69974728268E+03  0.20408062962E+03  0.16352297871E+04  0.17968481496E+04  0.15294330000E+03 0.  0.
<mgrwt>
<rscale>  0 0.91668791E+03</rscale>
<asrwt>0</asrwt>
<pdfrwt beam="1">  1        2 0.33949483E+00 0.98239777E+03</pdfrwt>
<pdfrwt beam="2">  1       -2 0.88081551E-01 0.98239777E+03</pdfrwt>
<totfact> 0.57232808E+00</totfact>
</mgrwt>
</event>
<event>
 4    5  0.1112901E-007  0.8210376E+03  0.7818608E-02  0.9667029E-01
          2   -1    0    0  501    0  0.00000000000E+00  0.00000000000E+00  0.11523729984E+04  0.11523729984E+04  0.25500000000E-02 0. -1.
         -2   -1    0    0    0  501 -0.00000000000E+00 -0.00000000000E+00 -0.14130175302E+04  0.14130175302E+04  0.25500000000E-02 0.  1.
    8880023    1    1    2    0    0  0.48530177208E+03  0.69099738921E+02 -0.12239169509E+04  0.14737962861E+04  0.65864270000E+03 0.  0.
    8880022    1    1    2    0    0 -0.48530177208E+03 -0.69099738921E+02  0.96327241915E+03  0.10915942426E+04  0.15294330000E+03 0.  0.
<mgrwt>
<rscale>  0 0.73014282E+03</rscale>
<asrwt>0</asrwt>
<pdfrwt beam="1">  1        2 0.17728815E+00 0.82103763E+03</pdfrwt>
<pdfrwt beam="2">  1       -2 0.21738731E+00 0.82103763E+03</pdfrwt>
<totfact> 0.21149711E+00</totfact>
</mgrwt>
</event>
<event>
 4    5  0.1112901E-007  0.7591415E+03  0.7818608E-02  0.9807335E-01
          2   -1    0    0  501    0  0.00000000000E+00  0.00000000000E+00  0.83811878296E+03  0.83811878297E+03  0.25500000000E-02 0. -1.
         -2   -1    0    0    0  501 -0.00000000000E+00 -0.00000000000E+00 -0.10211291317E+04  0.10211291317E+04  0.25500000000E-02 0.  1.
    8880023    1    1    2    0    0 -0.19806384603E+03  0.32133516638E+03 -0.81092831204E+03  0.11108107444E+04  0.65864270000E+03 0.  0.
    8880022    1    1    2    0    0  0.19806384603E+03 -0.32133516638E+03  0.62791796330E+03  0.74843717031E+03  0.15294330000E+03 0.  0.
<mgrwt>
<rscale>  0 0.64970377E+03</rscale>
<asrwt>0</asrwt>
<pdfrwt beam="1">  1        2 0.12894135E+00 0.75914148E+03</pdfrwt>
<pdfrwt beam="2">  1       -2 0.15709679E+00 0.75914148E+03</pdfrwt>
<totfact> 0.87026752E+00</totfact>
</mgrwt>
</event>
<event>
 4    5  0.1112901E-007  0.1316594E+04  0.7818608E-02  0.9051361E-01
          2   -1    0    0  501    0  0.00000000000E+00  0.00000000000E+00  0.22576259505E+04  0.22576259505E+04  0.25500000000E-02 0. -1.
         -2   -1    0    0    0  501 -0.00000000000E+00 -0.00000000000E+00 -0.12737660498E+04  0.12737660498E+04  0.25500000000E-02 0.  1.
    8880023    1    1    2    0    0 -0.11338336058E+04 -0.11845280311E+03 -0.70082314861E+03  0.14915002528E+04  0.65864270000E+03 0.  0.
    8880022    1    1    2    0    0  0.11338336058E+04  0.11845280311E+03  0.16846830493E+04  0.20398917475E+04  0.15294330000E+03 0.  0.
<mgrwt>
<rscale>  0 0.12728697E+04</rscale>
<asrwt>0</asrwt>
<pdfrwt beam="1">  1        2 0.34732707E+00 0.13165941E+04</pdfrwt>
<pdfrwt beam="2">  1       -2 0.19596401E+00 0.13165941E+04</pdfrwt>
<totfact> 0.64982715E-01</totfact>
</mgrwt>
</event>
<event>
 4    5  0.1112901E-007  0.7369230E+03  0.7818608E-02  0.9869002E-01
         -2   -1    0    0    0  501 -0.00000000000E+00  0.00000000000E+00  0.23708827169E+03  0.23708827170E+03  0.25500000000E-02 0.  1.
          2   -1    0    0  501    0  0.00000000000E+00 -0.00000000000E+00 -0.15059965851E+04  0.15059965851E+04  0.25500000000E-02 0. -1.
    8880023    1    1    2    0    0  0.12502578273E+03  0.30596385990E+03 -0.49492345636E+03  0.88769632411E+03  0.65864270000E+03 0.  0.
    8880022    1    1    2    0    0 -0.12502578273E+03 -0.30596385990E+03 -0.77398485707E+03  0.85538853271E+03  0.15294330000E+03 0.  0.
<mgrwt>
<rscale>  0 0.61787365E+03</rscale>
<asrwt>0</asrwt>
<pdfrwt beam="1">  1        2 0.23169178E+00 0.73692302E+03</pdfrwt>
<pdfrwt beam="2">  1       -2 0.36475120E-01 0.73692302E+03</pdfrwt>
<totfact> 0.90918221E+01</totfact>
</mgrwt>
</event>
<event>
 4    5  0.1112901E-007  0.9512447E+03  0.7818608E-02  0.9448326E-01
         -2   -1    0    0    0  501 -0.00000000000E+00  0.00000000000E+00  0.33200687318E+04  0.33200687318E+04  0.25500000000E-02 0.  1.
          2   -1    0    0  501    0  0.00000000000E+00 -0.00000000000E+00 -0.92632958130E+03  0.92632958130E+03  0.25500000000E-02 0. -1.
    8880023    1    1    2    0    0 -0.21839231990E+03  0.65066196934E+03  0.31042709282E+04  0.32467467419E+04  0.65864270000E+03 0.  1.
    8880022    1    1    2    0    0  0.21839231990E+03 -0.65066196934E+03 -0.71053177772E+03  0.99965157124E+03  0.15294330000E+03 0.  0.
<mgrwt>
<rscale>  0 0.88203179E+03</rscale>
<asrwt>0</asrwt>
<pdfrwt beam="1">  1        2 0.14251225E+00 0.95124466E+03</pdfrwt>
<pdfrwt beam="2">  1       -2 0.51077980E+00 0.95124466E+03</pdfrwt>
<totfact> 0.40505241E-02</totfact>
</mgrwt>
</event>
<event>
 4    5  0.1112901E-007  0.1229297E+04  0.7818608E-02  0.9129157E-01
          2   -1    0    0  501    0  0.00000000000E+00  0.00000000000E+00  0.22908541998E+04  0.22908541998E+04  0.25500000000E-02 0. -1.
         -2   -1    0    0    0  501 -0.00000000000E+00 -0.00000000000E+00 -0.57494994144E+03  0.57494994145E+03  0.25500000000E-02 0.  1.
    8880023    1    1    2    0    0 -0.35299530015E+03 -0.97609126019E+03  0.75197033166E+03  0.14410514967E+04  0.65864270000E+03 0.  0.
    8880022    1    1    2    0    0  0.35299530015E+03  0.97609126019E+03  0.96393392671E+03  0.14247526446E+04  0.15294330000E+03 0.  0.
<mgrwt>
<rscale>  0 0.11815542E+04</rscale>
<asrwt>0</asrwt>
<pdfrwt beam="1">  1        2 0.35243910E+00 0.12292966E+04</pdfrwt>
<pdfrwt beam="2">  1       -2 0.88453839E-01 0.12292966E+04</pdfrwt>
<totfact> 0.49444573E+00</totfact>
</mgrwt>
</event>
<event>
 4    5  0.1112901E-007  0.9761751E+03  0.7818608E-02  0.9413414E-01
         -2   -1    0    0    0  501 -0.00000000000E+00  0.00000000000E+00  0.17880613724E+04  0.17880613724E+04  0.25500000000E-02 0.  1.
          2   -1    0    0  501    0  0.00000000000E+00 -0.00000000000E+00 -0.18169430266E+04  0.18169430266E+04  0.25500000000E-02 0. -1.
    8880023    1    1    2    0    0 -0.71880105089E+03 -0.49322358448E+02  0.15676637782E+04  0.18467505445E+04  0.65864270000E+03 0.  0.
    8880022    1    1    2    0    0  0.71880105089E+03  0.49322358448E+02 -0.15965454324E+04  0.17582538544E+04  0.15294330000E+03 0.  0.
<mgrwt>
<rscale>  0 0.90979951E+03</rscale>
<asrwt>0</asrwt>
<pdfrwt beam="1">  1        2 0.27952970E+00 0.97617511E+03</pdfrwt>
<pdfrwt beam="2">  1       -2 0.27508636E+00 0.97617511E+03</pdfrwt>
<totfact> 0.38428454E-01</totfact>
</mgrwt>
</event>
<event>
 4    5  0.1112901E-007  0.7160050E+03  0.7818608E-02  0.9936343E-01
         -2   -1    0    0    0  501 -0.00000000000E+00  0.00000000000E+00  0.74001352515E+03  0.74001352515E+03  0.25500000000E-02 0.  1.
          2   -1    0    0  501    0  0.00000000000E+00 -0.00000000000E+00 -0.36259217225E+03  0.36259217226E+03  0.25500000000E-02 0. -1.
    8880023    1    1    2    0    0 -0.25369250114E+03 -0.12038688089E+03  0.24999244475E+03  0.75839258628E+03  0.65864270000E+03 0.  1.
    8880022    1    1    2    0    0  0.25369250114E+03  0.12038688089E+03  0.12742890816E+03  0.34421311113E+03  0.15294330000E+03 0. -1.
<mgrwt>
<rscale>  0 0.58531821E+03</rscale>
<asrwt>0</asrwt>
<pdfrwt beam="1">  1        2 0.55783411E-01 0.71600495E+03</pdfrwt>
<pdfrwt beam="2">  1       -2 0.11384823E+00 0.71600495E+03</pdfrwt>
<totfact> 0.54368038E+01</totfact>
</mgrwt>
</event>
<event>
 4    5  0.1112901E-007  0.6603027E+03  0.7818608E-02  0.1023848E+00
          2   -1    0    0  501    0  0.00000000000E+00  0.00000000000E+00  0.16346818760E+04  0.16346818760E+04  0.25500000000E-02 0. -1.
         -2   -1    0    0    0  501 -0.00000000000E+00 -0.00000000000E+00 -0.13561374706E+04  0.13561374706E+04  0.25500000000E-02 0.  1.
    8880023    1    1    2    0    0 -0.36961110546E+02  0.28693319488E+02 -0.12714023674E+04  0.14326421801E+04  0.65864270000E+03 0.  1.
    8880022    1    1    2    0    0  0.36961110546E+02 -0.28693319488E+02  0.15499467728E+04  0.15581771664E+04  0.15294330000E+03 0.  0.
<mgrwt>
<rscale>  0 0.46323052E+03</rscale>
<asrwt>0</asrwt>
<pdfrwt beam="1">  1        2 0.25148952E+00 0.66030269E+03</pdfrwt>
<pdfrwt beam="2">  1       -2 0.20863653E+00 0.66030269E+03</pdfrwt>
<totfact> 0.13156443E+00</totfact>
</mgrwt>
</event>
<event>
 4    5  0.1112901E-007  0.8408277E+03  0.7818608E-02  0.9628622E-01
          2   -1    0    0  501    0  0.00000000000E+00  0.00000000000E+00  0.52812240223E+03  0.52812240224E+03  0.25500000000E-02 0. -1.
         -2   -1    0    0    0  501 -0.00000000000E+00 -0.00000000000E+00 -0.95833145385E+03  0.95833145386E+03  0.25500000000E-02 0.  1.
    8880023    1    1    2    0    0 -0.19761872141E+03 -0.48386753218E+03 -0.42434261189E+03  0.94183746277E+03  0.65864270000E+03 0.  0.
    8880022    1    1    2    0    0  0.19761872141E+03  0.48386753218E+03 -0.58664397302E+01  0.54461639333E+03  0.15294330000E+03 0.  0.
<mgrwt>
<rscale>  0 0.75430436E+03</rscale>
<asrwt>0</asrwt>
<pdfrwt beam="1">  1        2 0.81249600E-01 0.84082766E+03</pdfrwt>
<pdfrwt beam="2">  1       -2 0.14743561E+00 0.84082766E+03</pdfrwt>
<totfact> 0.18220720E+01</totfact>
</mgrwt>
</event>
<event>
 4    5  0.1112901E-007  0.7396883E+03  0.7818608E-02  0.9860856E-01
          2   -1    0    0  501    0  0.00000000000E+00  0.00000000000E+00  0.27668157795E+04  0.27668157795E+04  0.25500000000E-02 0. -1.
         -2   -1    0    0    0  501 -0.00000000000E+00 -0.00000000000E+00 -0.39431420968E+03  0.39431420969E+03  0.25500000000E-02 0.  1.
    8880023    1    1    2    0    0 -0.24902274005E+03 -0.22653090400E+03 -0.20261691037E+02  0.73996575456E+03  0.65864270000E+03 0.  0.
    8880022    1    1    2    0    0  0.24902274005E+03  0.22653090400E+03  0.23927632608E+04  0.24211642346E+04  0.15294330000E+03 0.  0.
<mgrwt>
<rscale>  0 0.62196459E+03</rscale>
<asrwt>0</asrwt>
<pdfrwt beam="1">  1        2 0.42566396E+00 0.73968830E+03</pdfrwt>
<pdfrwt beam="2">  1       -2 0.60663725E-01 0.73968830E+03</pdfrwt>
<totfact> 0.64927810E+00</totfact>
</mgrwt>
</event>
<event>
 4    5  0.1112901E-007  0.8878091E+03  0.7818608E-02  0.9545892E-01
         -2   -1    0    0    0  501 -0.00000000000E+00  0.00000000000E+00  0.31212491362E+03  0.31212491363E+03  0.25500000000E-02 0.  1.
          2   -1    0    0  501    0  0.00000000000E+00 -0.00000000000E+00 -0.29743123029E+04  0.29743123029E+04  0.25500000000E-02 0. -1.
    8880023    1    1    2    0    0 -0.59524933931E+03  0.85494882681E+01 -0.45964151969E+03  0.99973766688E+03  0.65864270000E+03 0.  1.
    8880022    1    1    2    0    0  0.59524933931E+03 -0.85494882681E+01 -0.22025458696E+04  0.22866995496E+04  0.15294330000E+03 0.  0.
<mgrwt>
<rscale>  0 0.80983309E+03</rscale>
<asrwt>0</asrwt>
<pdfrwt beam="1">  1        2 0.45758649E+00 0.88780914E+03</pdfrwt>
<pdfrwt beam="2">  1       -2 0.48019219E-01 0.88780914E+03</pdfrwt>
<totfact> 0.77146238E+00</totfact>
</mgrwt>
</event>
<event>
 4    5  0.1112901E-007  0.8483630E+03  0.7818608E-02  0.9614608E-01
         -2   -1    0    0    0  501 -0.00000000000E+00  0.00000000000E+00  0.68967190182E+03  0.68967190182E+03  0.25500000000E-02 0.  1.
          2   -1    0    0  501    0  0.00000000000E+00 -0.00000000000E+00 -0.23557210230E+04  0.23557210230E+04  0.25500000000E-02 0. -1.
    8880023    1    1    2    0    0  0.53463501109E+03  0.86629540312E+01  0.37673905201E+03  0.92825220787E+03  0.65864270000E+03 0.  1.
    8880022    1    1    2    0    0 -0.53463501109E+03 -0.86629540312E+01 -0.20427881732E+04  0.21171407169E+04  0.15294330000E+03 0.  0.
<mgrwt>
<rscale>  0 0.76336813E+03</rscale>
<asrwt>0</asrwt>
<pdfrwt beam="1">  1        2 0.36241861E+00 0.84836304E+03</pdfrwt>
<pdfrwt beam="2">  1       -2 0.10610337E+00 0.84836304E+03</pdfrwt>
<totfact> 0.31066436E+00</totfact>
</mgrwt>
</event>
<event>
 4    5  0.1112901E-007  0.6756322E+03  0.7818608E-02  0.1011911E+00
         -2   -1    0    0    0  501 -0.00000000000E+00  0.00000000000E+00  0.91265723349E+02  0.91265723384E+02  0.25500000000E-02 0.  1.
          2   -1    0    0  501    0  0.00000000000E+00 -0.00000000000E+00 -0.23590146393E+04  0.23590146393E+04  0.25500000000E-02 0. -1.
    8880023    1    1    2    0    0 -0.79299550512E+02  0.12798532632E+03 -0.13740545952E+04  0.15311776185E+04  0.65864270000E+03 0.  0.
    8880022    1    1    2    0    0  0.79299550512E+02 -0.12798532632E+03 -0.89369432076E+03  0.91910274422E+03  0.15294330000E+03 0.  1.
<mgrwt>
<rscale>  0 0.50722263E+03</rscale>
<asrwt>0</asrwt>
<pdfrwt beam="1">  1        2 0.36292528E+00 0.67563220E+03</pdfrwt>
<pdfrwt beam="2">  1       -2 0.14040882E-01 0.67563220E+03</pdfrwt>
<totfact> 0.17121989E+02</totfact>
</mgrwt>
</event>
<event>
 4    5  0.1112901E-007  0.6624627E+03  0.7818608E-02  0.1021764E+00
         -2   -1    0    0    0  501 -0.00000000000E+00  0.00000000000E+00  0.35921155094E+03  0.35921155095E+03  0.25500000000E-02 0.  1.
          2   -1    0    0  501    0  0.00000000000E+00 -0.00000000000E+00 -0.14353042499E+04  0.14353042499E+04  0.25500000000E-02 0. -1.
    8880023    1    1    2    0    0 -0.67886152762E+02 -0.20931789834E+02  0.41985250714E+02  0.66379186279E+03  0.65864270000E+03 0.  1.
    8880022    1    1    2    0    0  0.67886152762E+02  0.20931789834E+02 -0.11180779496E+04  0.11307239380E+04  0.15294330000E+03 0.  0.
<mgrwt>
<rscale>  0 0.47055359E+03</rscale>
<asrwt>0</asrwt>
<pdfrwt beam="1">  1        2 0.22081604E+00 0.66246274E+03</pdfrwt>
<pdfrwt beam="2">  1       -2 0.55263316E-01 0.66246274E+03</pdfrwt>
<totfact> 0.43853580E+01</totfact>
</mgrwt>
</event>
<event>
 4    5  0.1112901E-007  0.7879606E+03  0.7818608E-02  0.9737459E-01
          2   -1    0    0  501    0  0.00000000000E+00  0.00000000000E+00  0.19515372622E+04  0.19515372622E+04  0.25500000000E-02 0. -1.
         -2   -1    0    0    0  501 -0.00000000000E+00 -0.00000000000E+00 -0.33296407723E+03  0.33296407724E+03  0.25500000000E-02 0.  1.
    8880023    1    1    2    0    0  0.37222975673E+03 -0.22026500230E+03  0.22811425813E+03  0.82031578313E+03  0.65864270000E+03 0.  1.
    8880022    1    1    2    0    0 -0.37222975673E+03  0.22026500230E+03  0.13904589269E+04  0.14641855564E+04  0.15294330000E+03 0.  0.
<mgrwt>
<rscale>  0 0.68829627E+03</rscale>
<asrwt>0</asrwt>
<pdfrwt beam="1">  1        2 0.30023651E+00 0.78796058E+03</pdfrwt>
<pdfrwt beam="2">  1       -2 0.51225241E-01 0.78796058E+03</pdfrwt>
<totfact> 0.26294232E+01</totfact>
</mgrwt>
</event>
<event>
 4    5  0.1112901E-007  0.1173644E+04  0.7818608E-02  0.9183178E-01
         -2   -1    0    0    0  501 -0.00000000000E+00  0.00000000000E+00  0.87822234337E+03  0.87822234337E+03  0.25500000000E-02 0.  1.
          2   -1    0    0  501    0  0.00000000000E+00 -0.00000000000E+00 -0.28415002119E+04  0.28415002119E+04  0.25500000000E-02 0. -1.
    8880023    1    1    2    0    0  0.95237707296E+03 -0.19133069834E+03  0.33448382340E+03  0.12203766466E+04  0.65864270000E+03 0.  0.
    8880022    1    1    2    0    0 -0.95237707296E+03  0.19133069834E+03 -0.22977616919E+04  0.24993459086E+04  0.15294330000E+03 0.  0.
<mgrwt>
<rscale>  0 0.11228758E+04</rscale>
<asrwt>0</asrwt>
<pdfrwt beam="1">  1        2 0.43715387E+00 0.11736438E+04</pdfrwt>
<pdfrwt beam="2">  1       -2 0.13511113E+00 0.11736438E+04</pdfrwt>
<totfact> 0.84806273E-01</totfact>
</mgrwt>
</event>
<event>
 4    5  0.1112901E-007  0.7879864E+03  0.7818608E-02  0.9737400E-01
          2   -1    0    0  501    0  0.00000000000E+00  0.00000000000E+00  0.81672059642E+03  0.81672059643E+03  0.25500000000E-02 0. -1.
         -2   -1    0    0    0  501 -0.00000000000E+00 -0.00000000000E+00 -0.74230405721E+03  0.74230405721E+03  0.25500000000E-02 0.  1.
    8880023    1    1    2    0    0 -0.87438984845E+02 -0.42363527976E+03 -0.41298280226E+03  0.88965017145E+03  0.65864270000E+03 0.  1.
    8880022    1    1    2    0    0  0.87438984845E+02  0.42363527976E+03  0.48739934148E+03  0.66937448219E+03  0.15294330000E+03 0.  0.
<mgrwt>
<rscale>  0 0.68832988E+03</rscale>
<asrwt>0</asrwt>
<pdfrwt beam="1">  1        2 0.12564932E+00 0.78798644E+03</pdfrwt>
<pdfrwt beam="2">  1       -2 0.11420062E+00 0.78798644E+03</pdfrwt>
<totfact> 0.20317625E+01</totfact>
</mgrwt>
</event>
<event>
 4    5  0.1112901E-007  0.8015349E+03  0.7818608E-02  0.9707487E-01
         -2   -1    0    0    0  501 -0.00000000000E+00  0.00000000000E+00  0.56018952331E+03  0.56018952331E+03  0.25500000000E-02 0.  1.
          2   -1    0    0  501    0  0.00000000000E+00 -0.00000000000E+00 -0.23377957921E+04  0.23377957921E+04  0.25500000000E-02 0. -1.
    8880023    1    1    2    0    0 -0.45166850518E+03  0.68143532102E+02  0.22961231625E+03  0.83377455081E+03  0.65864270000E+03 0.  1.
    8880022    1    1    2    0    0  0.45166850518E+03 -0.68143532102E+02 -0.20072185850E+04  0.20642107646E+04  0.15294330000E+03 0.  0.
<mgrwt>
<rscale>  0 0.70572759E+03</rscale>
<asrwt>0</asrwt>
<pdfrwt beam="1">  1        2 0.35966089E+00 0.80153489E+03</pdfrwt>
<pdfrwt beam="2">  1       -2 0.86183005E-01 0.80153489E+03</pdfrwt>
<totfact> 0.52187681E+00</totfact>
</mgrwt>
</event>
<event>
 4    5  0.1112901E-007  0.1334317E+04  0.7818608E-02  0.9036478E-01
         -2   -1    0    0    0  501 -0.00000000000E+00  0.00000000000E+00  0.17812259877E+04  0.17812259877E+04  0.25500000000E-02 0.  1.
          2   -1    0    0  501    0  0.00000000000E+00 -0.00000000000E+00 -0.13076846473E+04  0.13076846473E+04  0.25500000000E-02 0. -1.
    8880023    1    1    2    0    0  0.11241641681E+04  0.28782873105E+03  0.11286016573E+04  0.17476104721E+04  0.65864270000E+03 0.  0.
    8880022    1    1    2    0    0 -0.11241641681E+04 -0.28782873105E+03 -0.65506031685E+03  0.13413001629E+04  0.15294330000E+03 0.  0.
<mgrwt>
<rscale>  0 0.12913189E+04</rscale>
<asrwt>0</asrwt>
<pdfrwt beam="1">  1        2 0.20118225E+00 0.13343166E+04</pdfrwt>
<pdfrwt beam="2">  1       -2 0.27403477E+00 0.13343166E+04</pdfrwt>
<totfact> 0.71842699E-01</totfact>
</mgrwt>
</event>
<event>
 4    5  0.1112901E-007  0.1001899E+04  0.7818608E-02  0.9379078E-01
          2   -1    0    0  501    0  0.00000000000E+00  0.00000000000E+00  0.10552862612E+04  0.10552862612E+04  0.25500000000E-02 0. -1.
         -2   -1    0    0    0  501 -0.00000000000E+00 -0.00000000000E+00 -0.12779675005E+04  0.12779675005E+04  0.25500000000E-02 0.  1.
    8880023    1    1    2    0    0  0.75163259774E+03  0.70990145602E+02 -0.87012043480E+03  0.13269931952E+04  0.65864270000E+03 0.  0.
    8880022    1    1    2    0    0 -0.75163259774E+03 -0.70990145602E+02  0.64743919547E+03  0.10062605665E+04  0.15294330000E+03 0.  0.
<mgrwt>
<rscale>  0 0.93817702E+03</rscale>
<asrwt>0</asrwt>
<pdfrwt beam="1">  1        2 0.16235173E+00 0.10018989E+04</pdfrwt>
<pdfrwt beam="2">  1       -2 0.19661038E+00 0.10018989E+04</pdfrwt>
<totfact> 0.32259894E+00</totfact>
</mgrwt>
</event>
<event>
 4    5  0.1112901E-007  0.9726495E+03  0.7818608E-02  0.9418249E-01
          2   -1    0    0  501    0  0.00000000000E+00  0.00000000000E+00  0.79972013328E+03  0.79972013328E+03  0.25500000000E-02 0. -1.
         -2   -1    0    0    0  501 -0.00000000000E+00 -0.00000000000E+00 -0.10019541206E+04  0.10019541206E+04  0.25500000000E-02 0.  1.
    8880023    1    1    2    0    0  0.54090381230E+03  0.46867881894E+03 -0.38705354776E+03  0.10468320900E+04  0.65864270000E+03 0.  0.
    8880022    1    1    2    0    0 -0.54090381230E+03 -0.46867881894E+03  0.18481956045E+03  0.75484216391E+03  0.15294330000E+03 0.  0.
<mgrwt>
<rscale>  0 0.90588948E+03</rscale>
<asrwt>0</asrwt>
<pdfrwt beam="1">  1        2 0.12303387E+00 0.97264946E+03</pdfrwt>
<pdfrwt beam="2">  1       -2 0.15414679E+00 0.97264946E+03</pdfrwt>
<totfact> 0.95462954E+00</totfact>
</mgrwt>
</event>
<event>
 4    5  0.1112901E-007  0.1960231E+04  0.7818608E-02  0.8638725E-01
         -2   -1    0    0    0  501 -0.00000000000E+00  0.00000000000E+00  0.37535851533E+04  0.37535851533E+04  0.25500000000E-02 0.  1.
          2   -1    0    0  501    0  0.00000000000E+00 -0.00000000000E+00 -0.10543604024E+04  0.10543604024E+04  0.25500000000E-02 0. -1.
    8880023    1    1    2    0    0 -0.13877413083E+04  0.12177307085E+04  0.20713714791E+04  0.28518562425E+04  0.65864270000E+03 0.  0.
    8880022    1    1    2    0    0  0.13877413083E+04 -0.12177307085E+04  0.62785327178E+03  0.19560893132E+04  0.15294330000E+03 0.  0.
<mgrwt>
<rscale>  0 0.19327476E+04</rscale>
<asrwt>0</asrwt>
<pdfrwt beam="1">  1        2 0.16220929E+00 0.19602307E+04</pdfrwt>
<pdfrwt beam="2">  1       -2 0.57747464E+00 0.19602307E+04</pdfrwt>
<totfact> 0.12924823E-02</totfact>
</mgrwt>
</event>
<event>
 4    5  0.1112901E-007  0.7327788E+03  0.7818608E-02  0.9881504E-01
         -2   -1    0    0    0  501 -0.00000000000E+00  0.00000000000E+00  0.29126643500E+03  0.29126643501E+03  0.25500000000E-02 0.  1.
          2   -1    0    0  501    0  0.00000000000E+00 -0.00000000000E+00 -0.13109952896E+04  0.13109952896E+04  0.25500000000E-02 0. -1.
    8880023    1    1    2    0    0 -0.10030484637E+03 -0.30511218660E+03 -0.28556814568E+03  0.78645653453E+03  0.65864270000E+03 0.  1.
    8880022    1    1    2    0    0  0.10030484637E+03  0.30511218660E+03 -0.73416070893E+03  0.81580519009E+03  0.15294330000E+03 0.  0.
<mgrwt>
<rscale>  0 0.61166098E+03</rscale>
<asrwt>0</asrwt>
<pdfrwt beam="1">  1        2 0.20169158E+00 0.73277876E+03</pdfrwt>
<pdfrwt beam="2">  1       -2 0.44810222E-01 0.73277876E+03</pdfrwt>
<totfact> 0.78392430E+01</totfact>
</mgrwt>
</event>
<event>
 4    5  0.1112901E-007  0.6743173E+03  0.7818608E-02  0.1012740E+00
         -2   -1    0    0    0  501 -0.00000000000E+00  0.00000000000E+00  0.18098677028E+03  0.18098677030E+03  0.25500000000E-02 0.  1.
          2   -1    0    0  501    0  0.00000000000E+00 -0.00000000000E+00 -0.25334712006E+04  0.25334712006E+04  0.25500000000E-02 0. -1.
    8880023    1    1    2    0    0  0.11096307564E+03 -0.92632824649E+02 -0.47405309908E+03  0.82427555548E+03  0.65864270000E+03 0.  1.
    8880022    1    1    2    0    0 -0.11096307564E+03  0.92632824649E+02 -0.18784313313E+04  0.18901824155E+04  0.15294330000E+03 0.  0.
<mgrwt>
<rscale>  0 0.50400017E+03</rscale>
<asrwt>0</asrwt>
<pdfrwt beam="1">  1        2 0.38976477E+00 0.67431732E+03</pdfrwt>
<pdfrwt beam="2">  1       -2 0.27844120E-01 0.67431732E+03</pdfrwt>
<totfact> 0.41309081E+01</totfact>
</mgrwt>
</event>
<event>
 4    5  0.1112901E-007  0.1397489E+04  0.7818608E-02  0.8985636E-01
         -2   -1    0    0    0  501 -0.00000000000E+00  0.00000000000E+00  0.73077798461E+03  0.73077798461E+03  0.25500000000E-02 0.  1.
          2   -1    0    0  501    0  0.00000000000E+00 -0.00000000000E+00 -0.32421251285E+04  0.32421251285E+04  0.25500000000E-02 0. -1.
    8880023    1    1    2    0    0  0.12321330652E+04 -0.31823632435E+02 -0.28901702139E+03  0.14270619043E+04  0.65864270000E+03 0. -1.
    8880022    1    1    2    0    0 -0.12321330652E+04  0.31823632435E+02 -0.22223301225E+04  0.25458412088E+04  0.15294330000E+03 0.  0.
<mgrwt>
<rscale>  0 0.13568798E+04</rscale>
<asrwt>0</asrwt>
<pdfrwt beam="1">  1        2 0.49878847E+00 0.13974888E+04</pdfrwt>
<pdfrwt beam="2">  1       -2 0.11242738E+00 0.13974888E+04</pdfrwt>
<totfact> 0.73388754E-01</totfact>
</mgrwt>
</event>
<event>
 4    5  0.1112901E-007  0.1183481E+04  0.7818608E-02  0.9173349E-01
          2   -1    0    0  501    0  0.00000000000E+00  0.00000000000E+00  0.17977165653E+04  0.17977165653E+04  0.25500000000E-02 0. -1.
         -2   -1    0    0    0  501 -0.00000000000E+00 -0.00000000000E+00 -0.68881235881E+03  0.68881235881E+03  0.25500000000E-02 0.  1.
    8880023    1    1    2    0    0 -0.67675925534E+03  0.71331274297E+03  0.34716339811E+03  0.12333494194E+04  0.65864270000E+03 0. -1.
    8880022    1    1    2    0    0  0.67675925534E+03 -0.71331274297E+03  0.76174080836E+03  0.12531795047E+04  0.15294330000E+03 0.  0.
<mgrwt>
<rscale>  0 0.11332794E+04</rscale>
<asrwt>0</asrwt>
<pdfrwt beam="1">  1        2 0.27657178E+00 0.11834815E+04</pdfrwt>
<pdfrwt beam="2">  1       -2 0.10597113E+00 0.11834815E+04</pdfrwt>
<totfact> 0.60897493E+00</totfact>
</mgrwt>
</event>
<event>
 4    5  0.1112901E-007  0.6649007E+03  0.7818608E-02  0.1019617E+00
          2   -1    0    0  501    0  0.00000000000E+00  0.00000000000E+00  0.20278303896E+04  0.20278303896E+04  0.25500000000E-02 0. -1.
         -2   -1    0    0    0  501 -0.00000000000E+00 -0.00000000000E+00 -0.26499541594E+03  0.26499541595E+03  0.25500000000E-02 0.  1.
    8880023    1    1    2    0    0  0.85038742861E+02 -0.32421398956E+02  0.16494437276E+03  0.68505444110E+03  0.65864270000E+03 0.  1.
    8880022    1    1    2    0    0 -0.85038742861E+02  0.32421398956E+02  0.15978906009E+04  0.16077713644E+04  0.15294330000E+03 0.  0.
<mgrwt>
<rscale>  0 0.47825126E+03</rscale>
<asrwt>0</asrwt>
<pdfrwt beam="1">  1        2 0.31197389E+00 0.66490070E+03</pdfrwt>
<pdfrwt beam="2">  1       -2 0.40768527E-01 0.66490070E+03</pdfrwt>
<totfact> 0.38340626E+01</totfact>
</mgrwt>
</event>
<event>
 4    5  0.1112901E-007  0.6793608E+03  0.7818608E-02  0.1009688E+00
          2   -1    0    0  501    0  0.00000000000E+00  0.00000000000E+00  0.10100945621E+04  0.10100945621E+04  0.25500000000E-02 0. -1.
         -2   -1    0    0    0  501 -0.00000000000E+00 -0.00000000000E+00 -0.23469643239E+03  0.23469643240E+03  0.25500000000E-02 0.  1.
    8880023    1    1    2    0    0 -0.73274955656E+02  0.14950475388E+03  0.35276853280E+03  0.76549117210E+03  0.65864270000E+03 0.  1.
    8880022    1    1    2    0    0  0.73274955656E+02 -0.14950475388E+03  0.42262959695E+03  0.47929982244E+03  0.15294330000E+03 0. -1.
<mgrwt>
<rscale>  0 0.51599002E+03</rscale>
<asrwt>0</asrwt>
<pdfrwt beam="1">  1        2 0.15539916E+00 0.67936080E+03</pdfrwt>
<pdfrwt beam="2">  1       -2 0.36107143E-01 0.67936080E+03</pdfrwt>
<totfact> 0.18180225E+02</totfact>
</mgrwt>
</event>
<event>
 4    5  0.1112901E-007  0.1774161E+04  0.7818608E-02  0.8736966E-01
          2   -1    0    0  501    0  0.00000000000E+00  0.00000000000E+00  0.12512115668E+04  0.12512115668E+04  0.25500000000E-02 0. -1.
         -2   -1    0    0    0  501 -0.00000000000E+00 -0.00000000000E+00 -0.26065813497E+04  0.26065813497E+04  0.25500000000E-02 0.  1.
    8880023    1    1    2    0    0 -0.13310566220E+04  0.97063212478E+03 -0.92753842388E+02  0.17765843448E+04  0.65864270000E+03 0. -1.
    8880022    1    1    2    0    0  0.13310566220E+04 -0.97063212478E+03 -0.12626159405E+04  0.20812085717E+04  0.15294330000E+03 0.  0.
<mgrwt>
<rscale>  0 0.17434470E+04</rscale>
<asrwt>0</asrwt>
<pdfrwt beam="1">  1        2 0.19249409E+00 0.17741614E+04</pdfrwt>
<pdfrwt beam="2">  1       -2 0.40101252E+00 0.17741614E+04</pdfrwt>
<totfact> 0.11851710E-01</totfact>
</mgrwt>
</event>
<event>
 4    5  0.1112901E-007  0.1478359E+04  0.7818608E-02  0.8925070E-01
          2   -1    0    0  501    0  0.00000000000E+00  0.00000000000E+00  0.17828308366E+04  0.17828308366E+04  0.25500000000E-02 0. -1.
         -2   -1    0    0    0  501 -0.00000000000E+00 -0.00000000000E+00 -0.12414550976E+04  0.12414550976E+04  0.25500000000E-02 0.  1.
    8880023    1    1    2    0    0  0.12040417627E+04  0.54956217527E+03 -0.21233881366E+03  0.14935304245E+04  0.65864270000E+03 0.  1.
    8880022    1    1    2    0    0 -0.12040417627E+04 -0.54956217527E+03  0.75371455265E+03  0.15307555097E+04  0.15294330000E+03 0.  0.
<mgrwt>
<rscale>  0 0.14404182E+04</rscale>
<asrwt>0</asrwt>
<pdfrwt beam="1">  1        2 0.27428167E+00 0.14783590E+04</pdfrwt>
<pdfrwt beam="2">  1       -2 0.19099309E+00 0.14783590E+04</pdfrwt>
<totfact> 0.12693437E+00</totfact>
</mgrwt>
</event>
<event>
 4    5  0.1112901E-007  0.9077489E+03  0.7818608E-02  0.9513705E-01
          2   -1    0    0  501    0  0.00000000000E+00  0.00000000000E+00  0.55400035581E+03  0.55400035582E+03  0.25500000000E-02 0. -1.
         -2   -1    0    0    0  501 -0.00000000000E+00 -0.00000000000E+00 -0.12028174772E+04  0.12028174772E+04  0.25500000000E-02 0.  1.
    8880023    1    1    2    0    0 -0.45124866769E+03  0.43194041474E+03 -0.64522580294E+03  0.11136985342E+04  0.65864270000E+03 0.  0.
    8880022    1    1    2    0    0  0.45124866769E+03 -0.43194041474E+03 -0.35913184592E+01  0.64311929886E+03  0.15294330000E+03 0.  0.
<mgrwt>
<rscale>  0 0.83280916E+03</rscale>
<asrwt>0</asrwt>
<pdfrwt beam="1">  1        2 0.85230824E-01 0.90774891E+03</pdfrwt>
<pdfrwt beam="2">  1       -2 0.18504884E+00 0.90774891E+03</pdfrwt>
<totfact> 0.91557610E+00</totfact>
</mgrwt>
</event>
<event>
 4    5  0.1112901E-007  0.7836464E+03  0.7818608E-02  0.9747340E-01
          2   -1    0    0  501    0  0.00000000000E+00  0.00000000000E+00  0.84752124857E+03  0.84752124857E+03  0.25500000000E-02 0. -1.
         -2   -1    0    0    0  501 -0.00000000000E+00 -0.00000000000E+00 -0.60516802171E+03  0.60516802172E+03  0.25500000000E-02 0.  1.
    8880023    1    1    2    0    0  0.16721564141E+03  0.39029536969E+03 -0.21248067801E+03  0.81194198753E+03  0.65864270000E+03 0.  1.
    8880022    1    1    2    0    0 -0.16721564141E+03 -0.39029536969E+03  0.45483390487E+03  0.64074728276E+03  0.15294330000E+03 0.  0.
<mgrwt>
<rscale>  0 0.68266797E+03</rscale>
<asrwt>0</asrwt>
<pdfrwt beam="1">  1        2 0.13038788E+00 0.78364645E+03</pdfrwt>
<pdfrwt beam="2">  1       -2 0.93102772E-01 0.78364645E+03</pdfrwt>
<totfact> 0.31489869E+01</totfact>
</mgrwt>
</event>
<event>
 4    5  0.1112901E-007  0.9054404E+03  0.7818608E-02  0.9517354E-01
          2   -1    0    0  501    0  0.00000000000E+00  0.00000000000E+00  0.20175173107E+04  0.20175173107E+04  0.25500000000E-02 0. -1.
         -2   -1    0    0    0  501 -0.00000000000E+00 -0.00000000000E+00 -0.43230681761E+03  0.43230681762E+03  0.25500000000E-02 0.  1.
    8880023    1    1    2    0    0 -0.21514161008E+03 -0.58286031336E+03  0.20477185097E+03  0.92830693980E+03  0.65864270000E+03 0.  1.
    8880022    1    1    2    0    0  0.21514161008E+03  0.58286031336E+03  0.13804386421E+04  0.15215171885E+04  0.15294330000E+03 0.  0.
<mgrwt>
<rscale>  0 0.83016394E+03</rscale>
<asrwt>0</asrwt>
<pdfrwt beam="1">  1        2 0.31038727E+00 0.90544037E+03</pdfrwt>
<pdfrwt beam="2">  1       -2 0.66508742E-01 0.90544037E+03</pdfrwt>
<totfact> 0.13767082E+01</totfact>
</mgrwt>
</event>
<event>
 4    5  0.1112901E-007  0.9296054E+03  0.7818608E-02  0.9480085E-01
         -2   -1    0    0    0  501 -0.00000000000E+00  0.00000000000E+00  0.20915893197E+04  0.20915893197E+04  0.25500000000E-02 0.  1.
          2   -1    0    0  501    0  0.00000000000E+00 -0.00000000000E+00 -0.76972939046E+03  0.76972939046E+03  0.25500000000E-02 0. -1.
    8880023    1    1    2    0    0 -0.27376386022E+03 -0.59616222843E+03  0.18063869762E+04  0.20315511728E+04  0.65864270000E+03 0.  1.
    8880022    1    1    2    0    0  0.27376386022E+03  0.59616222843E+03 -0.48452704696E+03  0.82976753734E+03  0.15294330000E+03 0.  0.
<mgrwt>
<rscale>  0 0.85768101E+03</rscale>
<asrwt>0</asrwt>
<pdfrwt beam="1">  1        2 0.11841991E+00 0.92960543E+03</pdfrwt>
<pdfrwt beam="2">  1       -2 0.32178297E+00 0.92960543E+03</pdfrwt>
<totfact> 0.86173431E-01</totfact>
</mgrwt>
</event>
<event>
 4    5  0.1112901E-007  0.9488871E+03  0.7818608E-02  0.9451717E-01
          2   -1    0    0  501    0  0.00000000000E+00  0.00000000000E+00  0.38865413904E+04  0.38865413904E+04  0.25500000000E-02 0. -1.
         -2   -1    0    0    0  501 -0.00000000000E+00 -0.00000000000E+00 -0.45332352000E+03  0.45332352001E+03  0.25500000000E-02 0.  1.
    8880023    1    1    2    0    0  0.28187076084E+03  0.62219396351E+03  0.12344479949E+03  0.95688310614E+03  0.65864270000E+03 0.  1.
    8880022    1    1    2    0    0 -0.28187076084E+03 -0.62219396351E+03  0.33097730709E+04  0.33829818042E+04  0.15294330000E+03 0.  0.
<mgrwt>
<rscale>  0 0.87939071E+03</rscale>
<asrwt>0</asrwt>
<pdfrwt beam="1">  1        2 0.59792945E+00 0.94888706E+03</pdfrwt>
<pdfrwt beam="2">  1       -2 0.69742080E-01 0.94888706E+03</pdfrwt>
<totfact> 0.83631183E-01</totfact>
</mgrwt>
</event>
<event>
 4    5  0.1112901E-007  0.1204846E+04  0.7818608E-02  0.9152426E-01
          2   -1    0    0  501    0  0.00000000000E+00  0.00000000000E+00  0.21549705658E+04  0.21549705658E+04  0.25500000000E-02 0. -1.
         -2   -1    0    0    0  501 -0.00000000000E+00 -0.00000000000E+00 -0.69615645094E+03  0.69615645095E+03  0.25500000000E-02 0.  1.
    8880023    1    1    2    0    0  0.16255165418E+03 -0.99570062330E+03  0.18494497158E+03  0.12189575958E+04  0.65864270000E+03 0.  0.
    8880022    1    1    2    0    0 -0.16255165418E+03  0.99570062330E+03  0.12738691433E+04  0.16321694210E+04  0.15294330000E+03 0.  0.
<mgrwt>
<rscale>  0 0.11558251E+04</rscale>
<asrwt>0</asrwt>
<pdfrwt beam="1">  1        2 0.33153393E+00 0.12048456E+04</pdfrwt>
<pdfrwt beam="2">  1       -2 0.10710099E+00 0.12048456E+04</pdfrwt>
<totfact> 0.37538282E+00</totfact>
</mgrwt>
</event>
<event>
 4    5  0.2373211E-007  0.1369699E+04  0.7818608E-02  0.9007593E-01
          2   -1    0    0  501    0  0.00000000000E+00  0.00000000000E+00  0.24919544749E+04  0.24919544749E+04  0.25500000000E-02 0. -1.
         -2   -1    0    0    0  501 -0.00000000000E+00 -0.00000000000E+00 -0.19905640908E+04  0.19905640908E+04  0.25500000000E-02 0.  1.
    8880023    1    1    2    0    0 -0.43714735289E+03  0.11185553140E+04 -0.15698678145E+04  0.20834008160E+04  0.65864270000E+03 0.  1.
    8880022    1    1    2    0    0  0.43714735289E+03 -0.11185553140E+04  0.20712581986E+04  0.23991177497E+04  0.15294330000E+03 0.  0.
<mgrwt>
<rscale>  0 0.13280754E+04</rscale>
<asrwt>0</asrwt>
<pdfrwt beam="1">  1        2 0.38337761E+00 0.13696985E+04</pdfrwt>
<pdfrwt beam="2">  1       -2 0.30624063E+00 0.13696985E+04</pdfrwt>
<totfact> 0.97880833E-02</totfact>
</mgrwt>
</event>
<event>
 4    5  0.1112901E-007  0.7892488E+03  0.7818608E-02  0.9734543E-01
          2   -1    0    0  501    0  0.00000000000E+00  0.00000000000E+00  0.16014606742E+04  0.16014606742E+04  0.25500000000E-02 0. -1.
         -2   -1    0    0    0  501 -0.00000000000E+00 -0.00000000000E+00 -0.29883300616E+03  0.29883300617E+03  0.25500000000E-02 0.  1.
    8880023    1    1    2    0    0 -0.32051606949E+03 -0.29389260592E+03  0.39558866732E+03  0.88283861186E+03  0.65864270000E+03 0.  0.
    8880022    1    1    2    0    0  0.32051606949E+03  0.29389260592E+03  0.90703900076E+03  0.10174550686E+04  0.15294330000E+03 0.  0.
<mgrwt>
<rscale>  0 0.68996815E+03</rscale>
<asrwt>0</asrwt>
<pdfrwt beam="1">  1        2 0.24637856E+00 0.78924877E+03</pdfrwt>
<pdfrwt beam="2">  1       -2 0.45974309E-01 0.78924877E+03</pdfrwt>
<totfact> 0.50880771E+01</totfact>
</mgrwt>
</event>
<event>
 4    5  0.1112901E-007  0.8543012E+03  0.7818608E-02  0.9603782E-01
         -2   -1    0    0    0  501 -0.00000000000E+00  0.00000000000E+00  0.23185554084E+03  0.23185554085E+03  0.25500000000E-02 0.  1.
          2   -1    0    0  501    0  0.00000000000E+00 -0.00000000000E+00 -0.25894759417E+04  0.25894759417E+04  0.25500000000E-02 0. -1.
    8880023    1    1    2    0    0 -0.65069388349E+02 -0.54017254727E+03 -0.19363573670E+04  0.21164381553E+04  0.65864270000E+03 0. -1.
    8880022    1    1    2    0    0  0.65069388349E+02  0.54017254727E+03 -0.42126303384E+03  0.70489332726E+03  0.15294330000E+03 0.  0.
<mgrwt>
<rscale>  0 0.77046372E+03</rscale>
<asrwt>0</asrwt>
<pdfrwt beam="1">  1        2 0.39838089E+00 0.85430124E+03</pdfrwt>
<pdfrwt beam="2">  1       -2 0.35670085E-01 0.85430124E+03</pdfrwt>
<totfact> 0.23523673E+01</totfact>
</mgrwt>
</event>
<event>
 4    5  0.1112901E-007  0.8332733E+03  0.7818608E-02  0.9642997E-01
          2   -1    0    0  501    0  0.00000000000E+00  0.00000000000E+00  0.16801988332E+04  0.16801988332E+04  0.25500000000E-02 0. -1.
         -2   -1    0    0    0  501 -0.00000000000E+00 -0.00000000000E+00 -0.94122750923E+03  0.94122750924E+03  0.25500000000E-02 0.  1.
    8880023    1    1    2    0    0  0.80638165076E+02  0.50401553032E+03 -0.69917222816E+03  0.10877436184E+04  0.65864270000E+03 0.  1.
    8880022    1    1    2    0    0 -0.80638165076E+02 -0.50401553032E+03  0.14381435521E+04  0.15336827240E+04  0.15294330000E+03 0.  0.
<mgrwt>
<rscale>  0 0.74514571E+03</rscale>
<asrwt>0</asrwt>
<pdfrwt beam="1">  1        2 0.25849212E+00 0.83327329E+03</pdfrwt>
<pdfrwt beam="2">  1       -2 0.14480423E+00 0.83327329E+03</pdfrwt>
<totfact> 0.33631607E+00</totfact>
</mgrwt>
</event>
<event>
 4    5  0.1112901E-007  0.7829076E+03  0.7818608E-02  0.9749051E-01
         -2   -1    0    0    0  501 -0.00000000000E+00  0.00000000000E+00  0.76588513905E+03  0.76588513905E+03  0.25500000000E-02 0.  1.
          2   -1    0    0  501    0  0.00000000000E+00 -0.00000000000E+00 -0.12069509158E+04  0.12069509158E+04  0.25500000000E-02 0. -1.
    8880023    1    1    2    0    0 -0.75044586987E+02 -0.41653627782E+03  0.50052273544E+03  0.92922945268E+03  0.65864270000E+03 0.  1.
    8880022    1    1    2    0    0  0.75044586987E+02  0.41653627782E+03 -0.94158851216E+03  0.10436066021E+04  0.15294330000E+03 0.  0.
<mgrwt>
<rscale>  0 0.68169945E+03</rscale>
<asrwt>0</asrwt>
<pdfrwt beam="1">  1        2 0.18568476E+00 0.78290764E+03</pdfrwt>
<pdfrwt beam="2">  1       -2 0.11782848E+00 0.78290764E+03</pdfrwt>
<totfact> 0.10586969E+01</totfact>
</mgrwt>
</event>
<event>
 4    5  0.1112901E-007  0.7767360E+03  0.7818608E-02  0.9763561E-01
          2   -1    0    0  501    0  0.00000000000E+00  0.00000000000E+00  0.15714160673E+04  0.15714160673E+04  0.25500000000E-02 0. -1.
         -2   -1    0    0    0  501 -0.00000000000E+00 -0.00000000000E+00 -0.43425432015E+03  0.43425432016E+03  0.25500000000E-02 0.  1.
    8880023    1    1    2    0    0  0.39799049085E+03  0.10541452575E+03 -0.10533256687E+02  0.77680744641E+03  0.65864270000E+03 0.  0.
    8880022    1    1    2    0    0 -0.39799049085E+03 -0.10541452575E+03  0.11476950038E+04  0.12288629411E+04  0.15294330000E+03 0.  0.
<mgrwt>
<rscale>  0 0.67355289E+03</rscale>
<asrwt>0</asrwt>
<pdfrwt beam="1">  1        2 0.24175632E+00 0.77673603E+03</pdfrwt>
<pdfrwt beam="2">  1       -2 0.66808358E-01 0.77673603E+03</pdfrwt>
<totfact> 0.24325067E+01</totfact>
</mgrwt>
</event>
<event>
 4    5  0.1112901E-007  0.7603817E+03  0.7818608E-02  0.9804120E-01
          2   -1    0    0  501    0  0.00000000000E+00  0.00000000000E+00  0.15751672417E+04  0.15751672417E+04  0.25500000000E-02 0. -1.
         -2   -1    0    0    0  501 -0.00000000000E+00 -0.00000000000E+00 -0.31752322658E+03  0.31752322659E+03  0.25500000000E-02 0.  1.
    8880023    1    1    2    0    0 -0.11071893942E+03 -0.36347129180E+03  0.24263350578E+03  0.79815492725E+03  0.65864270000E+03 0.  1.
    8880022    1    1    2    0    0  0.11071893942E+03  0.36347129180E+03  0.10150105093E+04  0.10945355410E+04  0.15294330000E+03 0.  0.
<mgrwt>
<rscale>  0 0.65141887E+03</rscale>
<asrwt>0</asrwt>
<pdfrwt beam="1">  1        2 0.24233343E+00 0.76038166E+03</pdfrwt>
<pdfrwt beam="2">  1       -2 0.48849726E-01 0.76038166E+03</pdfrwt>
<totfact> 0.46697177E+01</totfact>
</mgrwt>
</event>
<event>
 4    5  0.1112901E-007  0.8145587E+03  0.7818608E-02  0.9680158E-01
          2   -1    0    0  501    0  0.00000000000E+00  0.00000000000E+00  0.23135187404E+04  0.23135187404E+04  0.25500000000E-02 0. -1.
         -2   -1    0    0    0  501 -0.00000000000E+00 -0.00000000000E+00 -0.15738166783E+04  0.15738166783E+04  0.25500000000E-02 0.  1.
    8880023    1    1    2    0    0  0.23783658862E+03 -0.41608826987E+03 -0.14377832327E+04  0.16524910050E+04  0.65864270000E+03 0.  1.
    8880022    1    1    2    0    0 -0.23783658862E+03  0.41608826987E+03  0.21774852948E+04  0.22348444136E+04  0.15294330000E+03 0.  0.
<mgrwt>
<rscale>  0 0.72210541E+03</rscale>
<asrwt>0</asrwt>
<pdfrwt beam="1">  1        2 0.35592596E+00 0.81455871E+03</pdfrwt>
<pdfrwt beam="2">  1       -2 0.24212564E+00 0.81455871E+03</pdfrwt>
<totfact> 0.33451923E-01</totfact>
</mgrwt>
</event>
<event>
 4    5  0.1112901E-007  0.7435377E+03  0.7818608E-02  0.9849759E-01
         -2   -1    0    0    0  501 -0.00000000000E+00  0.00000000000E+00  0.23381126570E+03  0.23381126571E+03  0.25500000000E-02 0.  1.
          2   -1    0    0  501    0  0.00000000000E+00 -0.00000000000E+00 -0.18031183939E+04  0.18031183939E+04  0.25500000000E-02 0. -1.
    8880023    1    1    2    0    0  0.10615314001E+03  0.32828286813E+03 -0.48227818962E+03  0.88625086127E+03  0.65864270000E+03 0.  0.
    8880022    1    1    2    0    0 -0.10615314001E+03 -0.32828286813E+03 -0.10870289386E+04  0.11506787984E+04  0.15294330000E+03 0.  0.
<mgrwt>
<rscale>  0 0.62759194E+03</rscale>
<asrwt>0</asrwt>
<pdfrwt beam="1">  1        2 0.27740282E+00 0.74353772E+03</pdfrwt>
<pdfrwt beam="2">  1       -2 0.35970965E-01 0.74353772E+03</pdfrwt>
<totfact> 0.64080905E+01</totfact>
</mgrwt>
</event>
<event>
 4    5  0.1112901E-007  0.1033527E+04  0.7818608E-02  0.9338952E-01
          2   -1    0    0  501    0  0.00000000000E+00  0.00000000000E+00  0.16111735979E+04  0.16111735979E+04  0.25500000000E-02 0. -1.
         -2   -1    0    0    0  501 -0.00000000000E+00 -0.00000000000E+00 -0.13536231885E+04  0.13536231885E+04  0.25500000000E-02 0.  1.
    8880023    1    1    2    0    0 -0.78643866266E+03 -0.12602228465E+03  0.12893200115E+04  0.16524296308E+04  0.65864270000E+03 0. -1.
    8880022    1    1    2    0    0  0.78643866266E+03  0.12602228465E+03 -0.10317696021E+04  0.13123671557E+04  0.15294330000E+03 0.  0.
<mgrwt>
<rscale>  0 0.97274644E+03</rscale>
<asrwt>0</asrwt>
<pdfrwt beam="1">  1        2 0.24787286E+00 0.10335268E+04</pdfrwt>
<pdfrwt beam="2">  1       -2 0.20824972E+00 0.10335268E+04</pdfrwt>
<totfact> 0.12794252E+00</totfact>
</mgrwt>
</event>
<event>
 4    5  0.1112901E-007  0.8476010E+03  0.7818608E-02  0.9616011E-01
          2   -1    0    0  501    0  0.00000000000E+00  0.00000000000E+00  0.36587451065E+04  0.36587451065E+04  0.25500000000E-02 0. -1.
         -2   -1    0    0    0  501 -0.00000000000E+00 -0.00000000000E+00 -0.16608972401E+03  0.16608972403E+03  0.25500000000E-02 0.  1.
    8880023    1    1    2    0    0  0.18270924250E+03  0.50123312831E+03  0.28614257952E+04  0.29843232238E+04  0.65864270000E+03 0. -1.
    8880022    1    1    2    0    0 -0.18270924250E+03 -0.50123312831E+03  0.63122958728E+03  0.84051160675E+03  0.15294330000E+03 0. -1.
<mgrwt>
<rscale>  0 0.76245467E+03</rscale>
<asrwt>0</asrwt>
<pdfrwt beam="1">  1        2 0.56288385E+00 0.84760104E+03</pdfrwt>
<pdfrwt beam="2">  1       -2 0.25552266E-01 0.84760104E+03</pdfrwt>
<totfact> 0.92002565E+00</totfact>
</mgrwt>
</event>
<event>
 4    5  0.1112901E-007  0.9481327E+03  0.7818608E-02  0.9452806E-01
         -2   -1    0    0    0  501 -0.00000000000E+00  0.00000000000E+00  0.43812536141E+03  0.43812536142E+03  0.25500000000E-02 0.  1.
          2   -1    0    0  501    0  0.00000000000E+00 -0.00000000000E+00 -0.30365605137E+04  0.30365605137E+04  0.25500000000E-02 0. -1.
    8880023    1    1    2    0    0  0.31725269505E+03 -0.60373512939E+03 -0.19013621011E+03  0.96700949511E+03  0.65864270000E+03 0.  0.
    8880022    1    1    2    0    0 -0.31725269505E+03  0.60373512939E+03 -0.24082989422E+04  0.25076763800E+04  0.15294330000E+03 0.  0.
<mgrwt>
<rscale>  0 0.87854503E+03</rscale>
<asrwt>0</asrwt>
<pdfrwt beam="1">  1        2 0.46716314E+00 0.94813268E+03</pdfrwt>
<pdfrwt beam="2">  1       -2 0.67403904E-01 0.94813268E+03</pdfrwt>
<totfact> 0.34372756E+00</totfact>
</mgrwt>
</event>
<event>
 4    5  0.1112901E-007  0.1037127E+04  0.7818608E-02  0.9334519E-01
         -2   -1    0    0    0  501 -0.00000000000E+00  0.00000000000E+00  0.20182426793E+04  0.20182426793E+04  0.25500000000E-02 0.  1.
          2   -1    0    0  501    0  0.00000000000E+00 -0.00000000000E+00 -0.51239787184E+03  0.51239787184E+03  0.25500000000E-02 0. -1.
    8880023    1    1    2    0    0 -0.43858296421E+03  0.67042348139E+03  0.13464964375E+04  0.16996133453E+04  0.65864270000E+03 0.  0.
    8880022    1    1    2    0    0  0.43858296421E+03 -0.67042348139E+03  0.15934836995E+03  0.83102720588E+03  0.15294330000E+03 0.  0.
<mgrwt>
<rscale>  0 0.97666185E+03</rscale>
<asrwt>0</asrwt>
<pdfrwt beam="1">  1        2 0.78830442E-01 0.10371272E+04</pdfrwt>
<pdfrwt beam="2">  1       -2 0.31049887E+00 0.10371272E+04</pdfrwt>
<totfact> 0.16465642E+00</totfact>
</mgrwt>
</event>
<event>
 4    5  0.1112901E-007  0.9068878E+03  0.7818608E-02  0.9515064E-01
          2   -1    0    0  501    0  0.00000000000E+00  0.00000000000E+00  0.21023210494E+04  0.21023210494E+04  0.25500000000E-02 0. -1.
         -2   -1    0    0    0  501 -0.00000000000E+00 -0.00000000000E+00 -0.57596256913E+03  0.57596256913E+03  0.25500000000E-02 0.  1.
    8880023    1    1    2    0    0  0.61498866498E+03  0.10209871118E+03 -0.11663015221E+03  0.91435660633E+03  0.65864270000E+03 0.  1.
    8880022    1    1    2    0    0 -0.61498866498E+03 -0.10209871118E+03  0.16429886325E+04  0.17639270122E+04  0.15294330000E+03 0.  0.
<mgrwt>
<rscale>  0 0.83182285E+03</rscale>
<asrwt>0</asrwt>
<pdfrwt beam="1">  1        2 0.32343402E+00 0.90688776E+03</pdfrwt>
<pdfrwt beam="2">  1       -2 0.88609624E-01 0.90688776E+03</pdfrwt>
<totfact> 0.65119276E+00</totfact>
</mgrwt>
</event>
<event>
 4    5  0.1112901E-007  0.9382719E+03  0.7818608E-02  0.9467193E-01
         -2   -1    0    0    0  501 -0.00000000000E+00  0.00000000000E+00  0.17542684623E+04  0.17542684623E+04  0.25500000000E-02 0.  1.
          2   -1    0    0  501    0  0.00000000000E+00 -0.00000000000E+00 -0.61410547949E+03  0.61410547950E+03  0.25500000000E-02 0. -1.
    8880023    1    1    2    0    0 -0.58412946635E+03 -0.32455622004E+03  0.13566352150E+04  0.16494887954E+04  0.65864270000E+03 0.  0.
    8880022    1    1    2    0    0  0.58412946635E+03  0.32455622004E+03 -0.21647223214E+03  0.71888514641E+03  0.15294330000E+03 0.  0.
<mgrwt>
<rscale>  0 0.86746374E+03</rscale>
<asrwt>0</asrwt>
<pdfrwt beam="1">  1        2 0.94477768E-01 0.93827191E+03</pdfrwt>
<pdfrwt beam="2">  1       -2 0.26988745E+00 0.93827191E+03</pdfrwt>
<totfact> 0.23609919E+00</totfact>
</mgrwt>
</event>
<event>
 4    5  0.1112901E-007  0.7596325E+03  0.7818608E-02  0.9806060E-01
         -2   -1    0    0    0  501 -0.00000000000E+00  0.00000000000E+00  0.40613844829E+03  0.40613844830E+03  0.25500000000E-02 0.  1.
          2   -1    0    0  501    0  0.00000000000E+00 -0.00000000000E+00 -0.95385516108E+03  0.95385516109E+03  0.25500000000E-02 0. -1.
    8880023    1    1    2    0    0  0.37444707718E+03  0.54961653274E+02 -0.12052697563E+03  0.76913480942E+03  0.65864270000E+03 0. -1.
    8880022    1    1    2    0    0 -0.37444707718E+03 -0.54961653274E+02 -0.42718973716E+03  0.59085879997E+03  0.15294330000E+03 0.  0.
<mgrwt>
<rscale>  0 0.65038356E+03</rscale>
<asrwt>0</asrwt>
<pdfrwt beam="1">  1        2 0.14674695E+00 0.75963254E+03</pdfrwt>
<pdfrwt beam="2">  1       -2 0.62482838E-01 0.75963254E+03</pdfrwt>
<totfact> 0.65013204E+01</totfact>
</mgrwt>
</event>
<event>
 4    5  0.1112901E-007  0.8962599E+03  0.7818608E-02  0.9532063E-01
         -2   -1    0    0    0  501 -0.00000000000E+00  0.00000000000E+00  0.50006423290E+03  0.50006423291E+03  0.25500000000E-02 0.  1.
          2   -1    0    0  501    0  0.00000000000E+00 -0.00000000000E+00 -0.14631265572E+04  0.14631265572E+04  0.25500000000E-02 0. -1.
    8880023    1    1    2    0    0  0.60635840788E+03 -0.42438692934E+02 -0.10762000443E+03  0.90269808523E+03  0.65864270000E+03 0.  1.
    8880022    1    1    2    0    0 -0.60635840788E+03  0.42438692934E+02 -0.85544231990E+03  0.10604927049E+04  0.15294330000E+03 0. -1.
<mgrwt>
<rscale>  0 0.81960696E+03</rscale>
<asrwt>0</asrwt>
<pdfrwt beam="1">  1        2 0.22509639E+00 0.89625988E+03</pdfrwt>
<pdfrwt beam="2">  1       -2 0.76932960E-01 0.89625988E+03</pdfrwt>
<totfact> 0.20237542E+01</totfact>
</mgrwt>
</event>
<event>
 4    5  0.1112901E-007  0.7395943E+03  0.7818608E-02  0.9861130E-01
         -2   -1    0    0    0  501 -0.00000000000E+00  0.00000000000E+00  0.81838251496E+03  0.81838251496E+03  0.25500000000E-02 0.  1.
          2   -1    0    0  501    0  0.00000000000E+00 -0.00000000000E+00 -0.11651429985E+04  0.11651429985E+04  0.25500000000E-02 0. -1.
    8880023    1    1    2    0    0 -0.26018462223E+03 -0.21329198545E+03  0.60947216355E+03  0.95836111832E+03  0.65864270000E+03 0.  0.
    8880022    1    1    2    0    0  0.26018462223E+03  0.21329198545E+03 -0.95623264706E+03  0.10251643951E+04  0.15294330000E+03 0.  0.
<mgrwt>
<rscale>  0 0.62182619E+03</rscale>
<asrwt>0</asrwt>
<pdfrwt beam="1">  1        2 0.17925277E+00 0.73959429E+03</pdfrwt>
<pdfrwt beam="2">  1       -2 0.12590500E+00 0.73959429E+03</pdfrwt>
<totfact> 0.95545274E+00</totfact>
</mgrwt>
</event>
<event>
 4    5  0.1112901E-007  0.1187051E+04  0.7818608E-02  0.9169813E-01
         -2   -1    0    0    0  501 -0.00000000000E+00  0.00000000000E+00  0.76188662983E+03  0.76188662983E+03  0.25500000000E-02 0.  1.
          2   -1    0    0  501    0  0.00000000000E+00 -0.00000000000E+00 -0.19092328023E+04  0.19092328023E+04  0.25500000000E-02 0. -1.
    8880023    1    1    2    0    0 -0.18571686588E+03 -0.96994342800E+03 -0.51697255833E+02  0.11881766789E+04  0.65864270000E+03 0.  1.
    8880022    1    1    2    0    0  0.18571686588E+03  0.96994342800E+03 -0.10956489166E+04  0.14829427532E+04  0.15294330000E+03 0. -1.
<mgrwt>
<rscale>  0 0.11370513E+04</rscale>
<asrwt>0</asrwt>
<pdfrwt beam="1">  1        2 0.29372812E+00 0.11870515E+04</pdfrwt>
<pdfrwt beam="2">  1       -2 0.11721333E+00 0.11870515E+04</pdfrwt>
<totfact> 0.41279484E+00</totfact>
</mgrwt>
</event>
<event>
 4    5  0.1112901E-007  0.2277756E+04  0.7818608E-02  0.8496116E-01
          2   -1    0    0  501    0  0.00000000000E+00  0.00000000000E+00  0.24014993086E+04  0.24014993086E+04  0.25500000000E-02 0. -1.
         -2   -1    0    0    0  501 -0.00000000000E+00 -0.00000000000E+00 -0.31376648869E+04  0.31376648869E+04  0.25500000000E-02 0.  1.
    8880023    1    1    2    0    0  0.18982193166E+04  0.10729050977E+04 -0.19853753702E+04  0.30215703681E+04  0.65864270000E+03 0.  0.
    8880022    1    1    2    0    0 -0.18982193166E+04 -0.10729050977E+04  0.12492097919E+04  0.25175938274E+04  0.15294330000E+03 0.  0.
<mgrwt>
<rscale>  0 0.22544124E+04</rscale>
<asrwt>0</asrwt>
<pdfrwt beam="1">  1        2 0.36946143E+00 0.22777559E+04</pdfrwt>
<pdfrwt beam="2">  1       -2 0.48271768E+00 0.22777559E+04</pdfrwt>
<totfact> 0.71554249E-03</totfact>
</mgrwt>
</event>
<event>
 4    5  0.1112901E-007  0.7984649E+03  0.7818608E-02  0.9714125E-01
          2   -1    0    0  501    0  0.00000000000E+00  0.00000000000E+00  0.22389191755E+04  0.22389191755E+04  0.25500000000E-02 0. -1.
         -2   -1    0    0    0  501 -0.00000000000E+00 -0.00000000000E+00 -0.29793379433E+03  0.29793379434E+03  0.25500000000E-02 0.  1.
    8880023    1    1    2    0    0  0.13666551587E+03 -0.43018430907E+03  0.34247734922E+03  0.86881352659E+03  0.65864270000E+03 0.  0.
    8880022    1    1    2    0    0 -0.13666551587E+03  0.43018430907E+03  0.15985080319E+04  0.16680394432E+04  0.15294330000E+03 0.  0.
<mgrwt>
<rscale>  0 0.70181982E+03</rscale>
<asrwt>0</asrwt>
<pdfrwt beam="1">  1        2 0.34444909E+00 0.79846491E+03</pdfrwt>
<pdfrwt beam="2">  1       -2 0.45835971E-01 0.79846491E+03</pdfrwt>
<totfact> 0.22865691E+01</totfact>
</mgrwt>
</event>
<event>
 4    5  0.1112901E-007  0.1062542E+04  0.7818608E-02  0.9303955E-01
         -2   -1    0    0    0  501 -0.00000000000E+00  0.00000000000E+00  0.91593309442E+03  0.91593309442E+03  0.25500000000E-02 0.  1.
          2   -1    0    0  501    0  0.00000000000E+00 -0.00000000000E+00 -0.12359787930E+04  0.12359787930E+04  0.25500000000E-02 0. -1.
    8880023    1    1    2    0    0  0.28611522169E+02  0.83328604398E+03  0.29718325934E+03  0.11033187872E+04  0.65864270000E+03 0.  0.
    8880022    1    1    2    0    0 -0.28611522169E+02 -0.83328604398E+03 -0.61722895789E+03  0.10485931002E+04  0.15294330000E+03 0.  0.
<mgrwt>
<rscale>  0 0.10041961E+04</rscale>
<asrwt>0</asrwt>
<pdfrwt beam="1">  1        2 0.19015058E+00 0.10625415E+04</pdfrwt>
<pdfrwt beam="2">  1       -2 0.14091278E+00 0.10625415E+04</pdfrwt>
<totfact> 0.62751049E+00</totfact>
</mgrwt>
</event>
<event>
 4    5  0.1112901E-007  0.1469462E+04  0.7818608E-02  0.8931506E-01
          2   -1    0    0  501    0  0.00000000000E+00  0.00000000000E+00  0.41970673607E+04  0.41970673607E+04  0.25500000000E-02 0. -1.
         -2   -1    0    0    0  501 -0.00000000000E+00 -0.00000000000E+00 -0.53837842737E+03  0.53837842737E+03  0.25500000000E-02 0.  1.
    8880023    1    1    2    0    0  0.42103439903E+03  0.12442822452E+04  0.10351940962E+04  0.17974830441E+04  0.65864270000E+03 0.  0.
    8880022    1    1    2    0    0 -0.42103439903E+03 -0.12442822452E+04  0.26234948372E+04  0.29379627439E+04  0.15294330000E+03 0.  0.
<mgrwt>
<rscale>  0 0.14312463E+04</rscale>
<asrwt>0</asrwt>
<pdfrwt beam="1">  1        2 0.64570265E+00 0.14694620E+04</pdfrwt>
<pdfrwt beam="2">  1       -2 0.82827454E-01 0.14694620E+04</pdfrwt>
<totfact> 0.29343049E-01</totfact>
</mgrwt>
</event>
<event>
 4    5  0.1112901E-007  0.6871036E+03  0.7818608E-02  0.1005561E+00
          2   -1    0    0  501    0  0.00000000000E+00  0.00000000000E+00  0.15579933648E+04  0.15579933648E+04  0.25500000000E-02 0. -1.
         -2   -1    0    0    0  501 -0.00000000000E+00 -0.00000000000E+00 -0.10714244099E+04  0.10714244099E+04  0.25500000000E-02 0.  1.
    8880023    1    1    2    0    0 -0.14007174356E+03 -0.13667874130E+03 -0.94949678450E+03  0.11720305123E+04  0.65864270000E+03 0.  0.
    8880022    1    1    2    0    0  0.14007174356E+03  0.13667874130E+03  0.14360657394E+04  0.14573872624E+04  0.15294330000E+03 0. -1.
<mgrwt>
<rscale>  0 0.53277766E+03</rscale>
<asrwt>0</asrwt>
<pdfrwt beam="1">  1        2 0.23969129E+00 0.68710362E+03</pdfrwt>
<pdfrwt beam="2">  1       -2 0.16483452E+00 0.68710362E+03</pdfrwt>
<totfact> 0.28437282E+00</totfact>
</mgrwt>
</event>
<event>
 4    5  0.1112901E-007  0.7254372E+03  0.7818608E-02  0.9904600E-01
          2   -1    0    0  501    0  0.00000000000E+00  0.00000000000E+00  0.17716364659E+04  0.17716364659E+04  0.25500000000E-02 0. -1.
         -2   -1    0    0    0  501 -0.00000000000E+00 -0.00000000000E+00 -0.29979760390E+03  0.29979760391E+03  0.25500000000E-02 0.  1.
    8880023    1    1    2    0    0  0.22053543572E+02  0.30325320219E+03  0.19666821577E+03  0.75162321464E+03  0.65864270000E+03 0.  1.
    8880022    1    1    2    0    0 -0.22053543572E+02 -0.30325320219E+03  0.12751706463E+04  0.13198108552E+04  0.15294330000E+03 0.  0.
<mgrwt>
<rscale>  0 0.60038856E+03</rscale>
<asrwt>0</asrwt>
<pdfrwt beam="1">  1        2 0.27255946E+00 0.72543716E+03</pdfrwt>
<pdfrwt beam="2">  1       -2 0.46122707E-01 0.72543716E+03</pdfrwt>
<totfact> 0.41071389E+01</totfact>
</mgrwt>
</event>
<event>
 4    5  0.1112901E-007  0.1136223E+04  0.7818608E-02  0.9221759E-01
          2   -1    0    0  501    0  0.00000000000E+00  0.00000000000E+00  0.26875841596E+04  0.26875841596E+04  0.25500000000E-02 0. -1.
         -2   -1    0    0    0  501 -0.00000000000E+00 -0.00000000000E+00 -0.51511620702E+03  0.51511620703E+03  0.25500000000E-02 0.  1.
    8880023    1    1    2    0    0  0.33611145567E+03  0.86268326430E+03  0.41359964027E+03  0.12091601192E+04  0.65864270000E+03 0.  0.
    8880022    1    1    2    0    0 -0.33611145567E+03 -0.86268326430E+03  0.17588683123E+04  0.19935402475E+04  0.15294330000E+03 0.  0.
<mgrwt>
<rscale>  0 0.10831639E+04</rscale>
<asrwt>0</asrwt>
<pdfrwt beam="1">  1        2 0.41347448E+00 0.11362234E+04</pdfrwt>
<pdfrwt beam="2">  1       -2 0.79248648E-01 0.11362234E+04</pdfrwt>
<totfact> 0.37997543E+00</totfact>
</mgrwt>
</event>
<event>
 4    5  0.1112901E-007  0.8042180E+03  0.7818608E-02  0.9701749E-01
          2   -1    0    0  501    0  0.00000000000E+00  0.00000000000E+00  0.59000064308E+03  0.59000064309E+03  0.25500000000E-02 0. -1.
         -2   -1    0    0    0  501 -0.00000000000E+00 -0.00000000000E+00 -0.75408235099E+03  0.75408235099E+03  0.25500000000E-02 0.  1.
    8880023    1    1    2    0    0  0.11454533892E+03 -0.44702989235E+03 -0.26656021152E+03  0.84724312446E+03  0.65864270000E+03 0.  0.
    8880022    1    1    2    0    0 -0.11454533892E+03  0.44702989235E+03  0.10247850361E+03  0.49683986962E+03  0.15294330000E+03 0.  0.
<mgrwt>
<rscale>  0 0.70912750E+03</rscale>
<asrwt>0</asrwt>
<pdfrwt beam="1">  1        2 0.90769330E-01 0.80421798E+03</pdfrwt>
<pdfrwt beam="2">  1       -2 0.11601267E+00 0.80421798E+03</pdfrwt>
<totfact> 0.29458491E+01</totfact>
</mgrwt>
</event>
<event>
 4    5  0.1112901E-007  0.6866743E+03  0.7818608E-02  0.1005775E+00
          2   -1    0    0  501    0  0.00000000000E+00  0.00000000000E+00  0.11021689131E+04  0.11021689131E+04  0.25500000000E-02 0. -1.
         -2   -1    0    0    0  501 -0.00000000000E+00 -0.00000000000E+00 -0.21512337993E+03  0.21512337995E+03  0.25500000000E-02 0.  1.
    8880023    1    1    2    0    0  0.99473612914E+01 -0.19393936502E+03  0.46873582762E+03  0.83140538227E+03  0.65864270000E+03 0.  1.
    8880022    1    1    2    0    0 -0.99473612914E+01  0.19393936502E+03  0.41830970553E+03  0.48588691077E+03  0.15294330000E+03 0. -1.
<mgrwt>
<rscale>  0 0.53188899E+03</rscale>
<asrwt>0</asrwt>
<pdfrwt beam="1">  1        2 0.16956445E+00 0.68667433E+03</pdfrwt>
<pdfrwt beam="2">  1       -2 0.33095905E-01 0.68667433E+03</pdfrwt>
<totfact> 0.18792584E+02</totfact>
</mgrwt>
</event>
<event>
 4    5  0.1112901E-007  0.8208333E+03  0.7818608E-02  0.9667438E-01
         -2   -1    0    0    0  501 -0.00000000000E+00  0.00000000000E+00  0.58384088038E+03  0.58384088039E+03  0.25500000000E-02 0.  1.
          2   -1    0    0  501    0  0.00000000000E+00 -0.00000000000E+00 -0.13603442606E+04  0.13603442606E+04  0.25500000000E-02 0. -1.
    8880023    1    1    2    0    0 -0.48597323565E+03 -0.61539299721E+02  0.19660831958E+03  0.84405101076E+03  0.65864270000E+03 0.  1.
    8880022    1    1    2    0    0  0.48597323565E+03  0.61539299721E+02 -0.97311169979E+03  0.11001341302E+04  0.15294330000E+03 0.  0.
<mgrwt>
<rscale>  0 0.72989035E+03</rscale>
<asrwt>0</asrwt>
<pdfrwt beam="1">  1        2 0.20928373E+00 0.82083328E+03</pdfrwt>
<pdfrwt beam="2">  1       -2 0.89821675E-01 0.82083328E+03</pdfrwt>
<totfact> 0.16408570E+01</totfact>
</mgrwt>
</event>
<event>
 4    5  0.1112901E-007  0.1443844E+04  0.7818608E-02  0.8950343E-01
          2   -1    0    0  501    0  0.00000000000E+00  0.00000000000E+00  0.14898753424E+04  0.14898753424E+04  0.25500000000E-02 0. -1.
         -2   -1    0    0    0  501 -0.00000000000E+00 -0.00000000000E+00 -0.15370544107E+04  0.15370544107E+04  0.25500000000E-02 0.  1.
    8880023    1    1    2    0    0 -0.12221645972E+04  0.39646940728E+03 -0.66903946448E+03  0.15913196740E+04  0.65864270000E+03 0.  0.
    8880022    1    1    2    0    0  0.12221645972E+04 -0.39646940728E+03  0.62186039619E+03  0.14356100790E+04  0.15294330000E+03 0.  0.
<mgrwt>
<rscale>  0 0.14048119E+04</rscale>
<asrwt>0</asrwt>
<pdfrwt beam="1">  1        2 0.22921159E+00 0.14438437E+04</pdfrwt>
<pdfrwt beam="2">  1       -2 0.23646991E+00 0.14438437E+04</pdfrwt>
<totfact> 0.94784899E-01</totfact>
</mgrwt>
</event>
<event>
 4    5  0.1112901E-007  0.9041805E+03  0.7818608E-02  0.9519354E-01
          2   -1    0    0  501    0  0.00000000000E+00  0.00000000000E+00  0.22126387362E+04  0.22126387362E+04  0.25500000000E-02 0. -1.
         -2   -1    0    0    0  501 -0.00000000000E+00 -0.00000000000E+00 -0.80700332346E+03  0.80700332347E+03  0.25500000000E-02 0.  1.
    8880023    1    1    2    0    0  0.39271688452E+02 -0.61821513941E+03 -0.48372946388E+03  0.10254445985E+04  0.65864270000E+03 0.  0.
    8880022    1    1    2    0    0 -0.39271688452E+02  0.61821513941E+03  0.18893648766E+04  0.19941974612E+04  0.15294330000E+03 0.  0.
<mgrwt>
<rscale>  0 0.82871879E+03</rscale>
<asrwt>0</asrwt>
<pdfrwt beam="1">  1        2 0.34040596E+00 0.90418053E+03</pdfrwt>
<pdfrwt beam="2">  1       -2 0.12415436E+00 0.90418053E+03</pdfrwt>
<totfact> 0.25166452E+00</totfact>
</mgrwt>
</event>
<event>
 4    5  0.1112901E-007  0.1222152E+04  0.7818608E-02  0.9135884E-01
         -2   -1    0    0    0  501 -0.00000000000E+00  0.00000000000E+00  0.11766929935E+04  0.11766929935E+04  0.25500000000E-02 0.  1.
          2   -1    0    0  501    0  0.00000000000E+00 -0.00000000000E+00 -0.25361206898E+04  0.25361206898E+04  0.25500000000E-02 0. -1.
    8880023    1    1    2    0    0  0.10264986054E+04 -0.78398524807E+02  0.69777295318E+03  0.14073176671E+04  0.65864270000E+03 0.  1.
    8880022    1    1    2    0    0 -0.10264986054E+04  0.78398524807E+02 -0.20572006495E+04  0.23054960162E+04  0.15294330000E+03 0.  0.
<mgrwt>
<rscale>  0 0.11740441E+04</rscale>
<asrwt>0</asrwt>
<pdfrwt beam="1">  1        2 0.39017241E+00 0.12221522E+04</pdfrwt>
<pdfrwt beam="2">  1       -2 0.18102969E+00 0.12221522E+04</pdfrwt>
<totfact> 0.57601012E-01</totfact>
</mgrwt>
</event>
<event>
 4    5  0.1112901E-007  0.1509771E+04  0.7818608E-02  0.8902767E-01
          2   -1    0    0  501    0  0.00000000000E+00  0.00000000000E+00  0.39460541542E+04  0.39460541542E+04  0.25500000000E-02 0. -1.
         -2   -1    0    0    0  501 -0.00000000000E+00 -0.00000000000E+00 -0.77171823362E+03  0.77171823362E+03  0.25500000000E-02 0.  1.
    8880023    1    1    2    0    0 -0.30115996912E+03  0.13247269980E+04  0.30624266072E+03  0.15405173546E+04  0.65864270000E+03 0.  1.
    8880022    1    1    2    0    0  0.30115996912E+03 -0.13247269980E+04  0.28680932599E+04  0.31772550333E+04  0.15294330000E+03 0.  0.
<mgrwt>
<rscale>  0 0.14727677E+04</rscale>
<asrwt>0</asrwt>
<pdfrwt beam="1">  1        2 0.60708526E+00 0.15097712E+04</pdfrwt>
<pdfrwt beam="2">  1       -2 0.11872588E+00 0.15097712E+04</pdfrwt>
<totfact> 0.19870595E-01</totfact>
</mgrwt>
</event>
<event>
 4    5  0.1112901E-007  0.8587500E+03  0.7818608E-02  0.9595791E-01
          2   -1    0    0  501    0  0.00000000000E+00  0.00000000000E+00  0.16060920307E+04  0.16060920307E+04  0.25500000000E-02 0. -1.
         -2   -1    0    0    0  501 -0.00000000000E+00 -0.00000000000E+00 -0.38937913678E+03  0.38937913679E+03  0.25500000000E-02 0.  1.
    8880023    1    1    2    0    0  0.46516459864E+03 -0.29540351826E+03  0.28977740723E+03  0.90632361463E+03  0.65864270000E+03 0.  1.
    8880022    1    1    2    0    0 -0.46516459864E+03  0.29540351826E+03  0.92693548670E+03  0.10891475529E+04  0.15294330000E+03 0.  0.
<mgrwt>
<rscale>  0 0.77575397E+03</rscale>
<asrwt>0</asrwt>
<pdfrwt beam="1">  1        2 0.24709108E+00 0.85874999E+03</pdfrwt>
<pdfrwt beam="2">  1       -2 0.59904483E-01 0.85874999E+03</pdfrwt>
<totfact> 0.29124220E+01</totfact>
</mgrwt>
</event>
<event>
 4    5  0.1112901E-007  0.7013251E+03  0.7818608E-02  0.9991748E-01
          2   -1    0    0  501    0  0.00000000000E+00  0.00000000000E+00  0.32949582194E+04  0.32949582194E+04  0.25500000000E-02 0. -1.
         -2   -1    0    0    0  501 -0.00000000000E+00 -0.00000000000E+00 -0.32770768329E+03  0.32770768330E+03  0.25500000000E-02 0.  1.
    8880023    1    1    2    0    0  0.41518240478E+02 -0.23732440354E+03  0.62691494834E+02  0.70412148568E+03  0.65864270000E+03 0.  0.
    8880022    1    1    2    0    0 -0.41518240478E+02  0.23732440354E+03  0.29045590413E+04  0.29185444170E+04  0.15294330000E+03 0. -1.
<mgrwt>
<rscale>  0 0.56013550E+03</rscale>
<asrwt>0</asrwt>
<pdfrwt beam="1">  1        2 0.50691666E+00 0.70132506E+03</pdfrwt>
<pdfrwt beam="2">  1       -2 0.50416566E-01 0.70132506E+03</pdfrwt>
<totfact> 0.45433572E+00</totfact>
</mgrwt>
</event>
<event>
 4    5  0.1112901E-007  0.1119541E+04  0.7818608E-02  0.9239606E-01
         -2   -1    0    0    0  501 -0.00000000000E+00  0.00000000000E+00  0.15660315880E+04  0.15660315880E+04  0.25500000000E-02 0.  1.
          2   -1    0    0  501    0  0.00000000000E+00 -0.00000000000E+00 -0.83592203654E+03  0.83592203655E+03  0.25500000000E-02 0. -1.
    8880023    1    1    2    0    0  0.88696537812E+03 -0.18125557583E+03  0.93803918857E+03  0.14605782729E+04  0.65864270000E+03 0.  0.
    8880022    1    1    2    0    0 -0.88696537812E+03  0.18125557583E+03 -0.20792963708E+03  0.94137535167E+03  0.15294330000E+03 0.  0.
<mgrwt>
<rscale>  0 0.10653819E+04</rscale>
<asrwt>0</asrwt>
<pdfrwt beam="1">  1        2 0.12860339E+00 0.11195407E+04</pdfrwt>
<pdfrwt beam="2">  1       -2 0.24092793E+00 0.11195407E+04</pdfrwt>
<totfact> 0.23342216E+00</totfact>
</mgrwt>
</event>
<event>
 4    5  0.1112901E-007  0.7044941E+03  0.7818608E-02  0.9979045E-01
          2   -1    0    0  501    0  0.00000000000E+00  0.00000000000E+00  0.87926925616E+03  0.87926925616E+03  0.25500000000E-02 0. -1.
         -2   -1    0    0    0  501 -0.00000000000E+00 -0.00000000000E+00 -0.29845774455E+03  0.29845774456E+03  0.25500000000E-02 0.  1.
    8880023    1    1    2    0    0 -0.21861409731E+03  0.12128315973E+03  0.28100618515E+03  0.75846978235E+03  0.65864270000E+03 0.  0.
    8880022    1    1    2    0    0  0.21861409731E+03 -0.12128315973E+03  0.29980532646E+03  0.41925721838E+03  0.15294330000E+03 0.  1.
<mgrwt>
<rscale>  0 0.56578702E+03</rscale>
<asrwt>0</asrwt>
<pdfrwt beam="1">  1        2 0.13527219E+00 0.70449410E+03</pdfrwt>
<pdfrwt beam="2">  1       -2 0.45916577E-01 0.70449410E+03</pdfrwt>
<totfact> 0.13821037E+02</totfact>
</mgrwt>
</event>
<event>
 4    5  0.1112901E-007  0.9386662E+03  0.7818608E-02  0.9466612E-01
         -2   -1    0    0    0  501 -0.00000000000E+00  0.00000000000E+00  0.75089711176E+03  0.75089711176E+03  0.25500000000E-02 0.  1.
          2   -1    0    0  501    0  0.00000000000E+00 -0.00000000000E+00 -0.22121625524E+04  0.22121625524E+04  0.25500000000E-02 0. -1.
    8880023    1    1    2    0    0 -0.55048579582E+03  0.37980186125E+03  0.36888242292E+03  0.10085477249E+04  0.65864270000E+03 0.  0.
    8880022    1    1    2    0    0  0.55048579582E+03 -0.37980186125E+03 -0.18301478636E+04  0.19545119393E+04  0.15294330000E+03 0.  0.
<mgrwt>
<rscale>  0 0.86790785E+03</rscale>
<asrwt>0</asrwt>
<pdfrwt beam="1">  1        2 0.34033270E+00 0.93866622E+03</pdfrwt>
<pdfrwt beam="2">  1       -2 0.11552263E+00 0.93866622E+03</pdfrwt>
<totfact> 0.29966584E+00</totfact>
</mgrwt>
</event>
<event>
 4    5  0.1112901E-007  0.8851736E+03  0.7818608E-02  0.9550265E-01
         -2   -1    0    0    0  501 -0.00000000000E+00  0.00000000000E+00  0.10645908402E+04  0.10645908402E+04  0.25500000000E-02 0.  1.
          2   -1    0    0  501    0  0.00000000000E+00 -0.00000000000E+00 -0.74529783452E+03  0.74529783452E+03  0.25500000000E-02 0. -1.
    8880023    1    1    2    0    0 -0.50810298555E+03 -0.30257794794E+03  0.66580037998E+03  0.11076201563E+04  0.65864270000E+03 0.  0.
    8880022    1    1    2    0    0  0.50810298555E+03  0.30257794794E+03 -0.34650737427E+03  0.70226851840E+03  0.15294330000E+03 0.  0.
<mgrwt>
<rscale>  0 0.80677324E+03</rscale>
<asrwt>0</asrwt>
<pdfrwt beam="1">  1        2 0.11466120E+00 0.88517358E+03</pdfrwt>
<pdfrwt beam="2">  1       -2 0.16378321E+00 0.88517358E+03</pdfrwt>
<totfact> 0.89555859E+00</totfact>
</mgrwt>
</event>
<event>
 4    5  0.1112901E-007  0.7719226E+03  0.7818608E-02  0.9775165E-01
          2   -1    0    0  501    0  0.00000000000E+00  0.00000000000E+00  0.12216082419E+04  0.12216082419E+04  0.25500000000E-02 0. -1.
         -2   -1    0    0    0  501 -0.00000000000E+00 -0.00000000000E+00 -0.50328793389E+03  0.50328793389E+03  0.25500000000E-02 0.  1.
    8880023    1    1    2    0    0 -0.83080554712E+02 -0.39389329519E+03 -0.12119156796E+03  0.78137821122E+03  0.65864270000E+03 0.  1.
    8880022    1    1    2    0    0  0.83080554712E+02  0.39389329519E+03  0.83951187600E+03  0.94351796460E+03  0.15294330000E+03 0.  0.
<mgrwt>
<rscale>  0 0.66712543E+03</rscale>
<asrwt>0</asrwt>
<pdfrwt beam="1">  1        2 0.18793973E+00 0.77192261E+03</pdfrwt>
<pdfrwt beam="2">  1       -2 0.77428913E-01 0.77192261E+03</pdfrwt>
<totfact> 0.27805855E+01</totfact>
</mgrwt>
</event>
<event>
 4    5  0.1112901E-007  0.7319629E+03  0.7818608E-02  0.9884009E-01
         -2   -1    0    0    0  501 -0.00000000000E+00  0.00000000000E+00  0.72976662397E+03  0.72976662397E+03  0.25500000000E-02 0.  1.
          2   -1    0    0  501    0  0.00000000000E+00 -0.00000000000E+00 -0.91274346447E+03  0.91274346447E+03  0.25500000000E-02 0. -1.
    8880023    1    1    2    0    0 -0.26948800338E+02 -0.31817166687E+03  0.49086606230E+03  0.88131671085E+03  0.65864270000E+03 0.  1.
    8880022    1    1    2    0    0  0.26948800338E+02  0.31817166687E+03 -0.67384290280E+03  0.76119337760E+03  0.15294330000E+03 0.  0.
<mgrwt>
<rscale>  0 0.61042570E+03</rscale>
<asrwt>0</asrwt>
<pdfrwt beam="1">  1        2 0.14042207E+00 0.73196288E+03</pdfrwt>
<pdfrwt beam="2">  1       -2 0.11227179E+00 0.73196288E+03</pdfrwt>
<totfact> 0.18288605E+01</totfact>
</mgrwt>
</event>
<event>
 4    5  0.1112901E-007  0.7217462E+03  0.7818608E-02  0.9916721E-01
          2   -1    0    0  501    0  0.00000000000E+00  0.00000000000E+00  0.13462195611E+04  0.13462195611E+04  0.25500000000E-02 0. -1.
         -2   -1    0    0    0  501 -0.00000000000E+00 -0.00000000000E+00 -0.44397020696E+03  0.44397020696E+03  0.25500000000E-02 0.  1.
    8880023    1    1    2    0    0 -0.28881031611E+03  0.60794525333E+02 -0.10514807915E+03  0.72936527050E+03  0.65864270000E+03 0.  0.
    8880022    1    1    2    0    0  0.28881031611E+03 -0.60794525333E+02  0.10073974333E+04  0.10608244975E+04  0.15294330000E+03 0.  0.
<mgrwt>
<rscale>  0 0.59457711E+03</rscale>
<asrwt>0</asrwt>
<pdfrwt beam="1">  1        2 0.20711070E+00 0.72174620E+03</pdfrwt>
<pdfrwt beam="2">  1       -2 0.68303109E-01 0.72174620E+03</pdfrwt>
<totfact> 0.31204666E+01</totfact>
</mgrwt>
</event>
<event>
 4    5  0.1112901E-007  0.6638831E+03  0.7818608E-02  0.1020489E+00
         -2   -1    0    0    0  501 -0.00000000000E+00  0.00000000000E+00  0.60778080534E+02  0.60778080588E+02  0.25500000000E-02 0.  1.
          2   -1    0    0  501    0  0.00000000000E+00 -0.00000000000E+00 -0.29091134693E+04  0.29091134693E+04  0.25500000000E-02 0. -1.
    8880023    1    1    2    0    0 -0.75054168746E+02 -0.36019409578E+02 -0.21494201098E+04  0.22496105309E+04  0.65864270000E+03 0.  1.
    8880022    1    1    2    0    0  0.75054168746E+02  0.36019409578E+02 -0.69891527905E+03  0.72028101906E+03  0.15294330000E+03 0.  0.
<mgrwt>
<rscale>  0 0.47510407E+03</rscale>
<asrwt>0</asrwt>
<pdfrwt beam="1">  1        2 0.44755581E+00 0.66388307E+03</pdfrwt>
<pdfrwt beam="2">  1       -2 0.93504762E-02 0.66388307E+03</pdfrwt>
<totfact> 0.16136548E+02</totfact>
</mgrwt>
</event>
<event>
 4    5  0.1112901E-007  0.7621288E+03  0.7818608E-02  0.9799627E-01
         -2   -1    0    0    0  501 -0.00000000000E+00  0.00000000000E+00  0.71546760569E+03  0.71546760570E+03  0.25500000000E-02 0.  1.
          2   -1    0    0  501    0  0.00000000000E+00 -0.00000000000E+00 -0.13368800247E+04  0.13368800247E+04  0.25500000000E-02 0. -1.
    8880023    1    1    2    0    0 -0.37983386245E+03  0.52501419574E+02  0.46318553813E+03  0.89184147197E+03  0.65864270000E+03 0.  0.
    8880022    1    1    2    0    0  0.37983386245E+03 -0.52501419574E+02 -0.10845979572E+04  0.11605061585E+04  0.15294330000E+03 0.  0.
<mgrwt>
<rscale>  0 0.65382564E+03</rscale>
<asrwt>0</asrwt>
<pdfrwt beam="1">  1        2 0.20567385E+00 0.76212884E+03</pdfrwt>
<pdfrwt beam="2">  1       -2 0.11007194E+00 0.76212884E+03</pdfrwt>
<totfact> 0.10530518E+01</totfact>
</mgrwt>
</event>
<event>
 4    5  0.1112901E-007  0.1234549E+04  0.7818608E-02  0.9124249E-01
         -2   -1    0    0    0  501 -0.00000000000E+00  0.00000000000E+00  0.62095483400E+03  0.62095483401E+03  0.25500000000E-02 0.  1.
          2   -1    0    0  501    0  0.00000000000E+00 -0.00000000000E+00 -0.24252678182E+04  0.24252678182E+04  0.25500000000E-02 0. -1.
    8880023    1    1    2    0    0  0.89729399172E+03  0.53400729409E+03 -0.15103886452E+04  0.19507394402E+04  0.65864270000E+03 0.  0.
    8880022    1    1    2    0    0 -0.89729399172E+03 -0.53400729409E+03 -0.29392433897E+03  0.10954832120E+04  0.15294330000E+03 0.  0.
<mgrwt>
<rscale>  0 0.11870713E+04</rscale>
<asrwt>0</asrwt>
<pdfrwt beam="1">  1        2 0.37311812E+00 0.12345487E+04</pdfrwt>
<pdfrwt beam="2">  1       -2 0.95531514E-01 0.12345487E+04</pdfrwt>
<totfact> 0.34640897E+00</totfact>
</mgrwt>
</event>
<event>
 4    5  0.1112901E-007  0.8647718E+03  0.7818608E-02  0.9585131E-01
          2   -1    0    0  501    0  0.00000000000E+00  0.00000000000E+00  0.16123032729E+04  0.16123032729E+04  0.25500000000E-02 0. -1.
         -2   -1    0    0    0  501 -0.00000000000E+00 -0.00000000000E+00 -0.71888093766E+03  0.71888093767E+03  0.25500000000E-02 0.  1.
    8880023    1    1    2    0    0 -0.52498559309E+03 -0.19598496742E+03 -0.37002046881E+03  0.94060902292E+03  0.65864270000E+03 0.  0.
    8880022    1    1    2    0    0  0.52498559309E+03  0.19598496742E+03  0.12634428041E+04  0.13905751877E+04  0.15294330000E+03 0.  0.
<mgrwt>
<rscale>  0 0.78288168E+03</rscale>
<asrwt>0</asrwt>
<pdfrwt beam="1">  1        2 0.24804665E+00 0.86477175E+03</pdfrwt>
<pdfrwt beam="2">  1       -2 0.11059707E+00 0.86477175E+03</pdfrwt>
<totfact> 0.71980360E+00</totfact>
</mgrwt>
</event>
<event>
 4    5  0.1112901E-007  0.1364059E+04  0.7818608E-02  0.9012125E-01
          2   -1    0    0  501    0  0.00000000000E+00  0.00000000000E+00  0.13145621216E+04  0.13145621216E+04  0.25500000000E-02 0. -1.
         -2   -1    0    0    0  501 -0.00000000000E+00 -0.00000000000E+00 -0.13001000807E+04  0.13001000807E+04  0.25500000000E-02 0.  1.
    8880023    1    1    2    0    0 -0.42121849315E+03  0.11177755204E+04 -0.23682621215E+03  0.13844652375E+04  0.65864270000E+03 0.  1.
    8880022    1    1    2    0    0  0.42121849315E+03 -0.11177755204E+04  0.25128825304E+03  0.12301969648E+04  0.15294330000E+03 0.  0.
<mgrwt>
<rscale>  0 0.13222234E+04</rscale>
<asrwt>0</asrwt>
<pdfrwt beam="1">  1        2 0.20224033E+00 0.13640591E+04</pdfrwt>
<pdfrwt beam="2">  1       -2 0.20001540E+00 0.13640591E+04</pdfrwt>
<totfact> 0.20594926E+00</totfact>
</mgrwt>
</event>
<event>
 4    5  0.1112901E-007  0.1087636E+04  0.7818608E-02  0.9274948E-01
         -2   -1    0    0    0  501 -0.00000000000E+00  0.00000000000E+00  0.41079473870E+03  0.41079473871E+03  0.25500000000E-02 0.  1.
          2   -1    0    0  501    0  0.00000000000E+00 -0.00000000000E+00 -0.32077906448E+04  0.32077906448E+04  0.25500000000E-02 0. -1.
    8880023    1    1    2    0    0  0.23535566241E+03  0.83291667759E+03 -0.57761872285E+03  0.12315015529E+04  0.65864270000E+03 0.  0.
    8880022    1    1    2    0    0 -0.23535566241E+03 -0.83291667759E+03 -0.22193771833E+04  0.23870838306E+04  0.15294330000E+03 0.  0.
<mgrwt>
<rscale>  0 0.10312227E+04</rscale>
<asrwt>0</asrwt>
<pdfrwt beam="1">  1        2 0.49350624E+00 0.10876363E+04</pdfrwt>
<pdfrwt beam="2">  1       -2 0.63199193E-01 0.10876363E+04</pdfrwt>
<totfact> 0.30161227E+00</totfact>
</mgrwt>
</event>
<event>
 4    5  0.1112901E-007  0.1035270E+04  0.7818608E-02  0.9336802E-01
         -2   -1    0    0    0  501 -0.00000000000E+00  0.00000000000E+00  0.11345942880E+04  0.11345942880E+04  0.25500000000E-02 0.  1.
          2   -1    0    0  501    0  0.00000000000E+00 -0.00000000000E+00 -0.24751470823E+04  0.24751470823E+04  0.25500000000E-02 0. -1.
    8880023    1    1    2    0    0  0.71869761876E+03  0.34849398581E+03  0.80746467275E+03  0.13129294457E+04  0.65864270000E+03 0.  1.
    8880022    1    1    2    0    0 -0.71869761876E+03 -0.34849398581E+03 -0.21480174671E+04  0.22968119246E+04  0.15294330000E+03 0.  0.
<mgrwt>
<rscale>  0 0.97464293E+03</rscale>
<asrwt>0</asrwt>
<pdfrwt beam="1">  1        2 0.38079186E+00 0.10352703E+04</pdfrwt>
<pdfrwt beam="2">  1       -2 0.17455297E+00 0.10352703E+04</pdfrwt>
<totfact> 0.71184238E-01</totfact>
</mgrwt>
</event>
<event>
 4    5  0.1112901E-007  0.7148438E+03  0.7818608E-02  0.9940435E-01
          2   -1    0    0  501    0  0.00000000000E+00  0.00000000000E+00  0.12264624299E+04  0.12264624299E+04  0.25500000000E-02 0. -1.
         -2   -1    0    0    0  501 -0.00000000000E+00 -0.00000000000E+00 -0.83069232321E+03  0.83069232321E+03  0.25500000000E-02 0.  1.
    8880023    1    1    2    0    0 -0.23996677364E+03  0.14002660524E+03 -0.64887862789E+03  0.96542487156E+03  0.65864270000E+03 0.  1.
    8880022    1    1    2    0    0  0.23996677364E+03 -0.14002660524E+03  0.10446487346E+04  0.10917298816E+04  0.15294330000E+03 0.  0.
<mgrwt>
<rscale>  0 0.58341023E+03</rscale>
<asrwt>0</asrwt>
<pdfrwt beam="1">  1        2 0.18868653E+00 0.71484384E+03</pdfrwt>
<pdfrwt beam="2">  1       -2 0.12779882E+00 0.71484384E+03</pdfrwt>
<totfact> 0.84921586E+00</totfact>
</mgrwt>
</event>
<event>
 4    5  0.1112901E-007  0.1723632E+04  0.7818608E-02  0.8766000E-01
          2   -1    0    0  501    0  0.00000000000E+00  0.00000000000E+00  0.20344432553E+04  0.20344432553E+04  0.25500000000E-02 0. -1.
         -2   -1    0    0    0  501 -0.00000000000E+00 -0.00000000000E+00 -0.15822217625E+04  0.15822217625E+04  0.25500000000E-02 0.  1.
    8880023    1    1    2    0    0 -0.15927414214E+04  0.16476925390E+02  0.91432032269E+03  0.19511249533E+04  0.65864270000E+03 0.  0.
    8880022    1    1    2    0    0  0.15927414214E+04 -0.16476925390E+02 -0.46209882986E+03  0.16655400644E+04  0.15294330000E+03 0.  0.
<mgrwt>
<rscale>  0 0.16918963E+04</rscale>
<asrwt>0</asrwt>
<pdfrwt beam="1">  1        2 0.31299127E+00 0.17236319E+04</pdfrwt>
<pdfrwt beam="2">  1       -2 0.24341873E+00 0.17236319E+04</pdfrwt>
<totfact> 0.41339904E-01</totfact>
</mgrwt>
</event>
<event>
 4    5  0.1112901E-007  0.9608307E+03  0.7818608E-02  0.9434699E-01
          2   -1    0    0  501    0  0.00000000000E+00  0.00000000000E+00  0.14298999708E+04  0.14298999708E+04  0.25500000000E-02 0. -1.
         -2   -1    0    0    0  501 -0.00000000000E+00 -0.00000000000E+00 -0.16708508834E+04  0.16708508834E+04  0.25500000000E-02 0.  1.
    8880023    1    1    2    0    0 -0.67558945076E+03  0.18156088267E+03 -0.14240133653E+04  0.17178503226E+04  0.65864270000E+03 0.  0.
    8880022    1    1    2    0    0  0.67558945076E+03 -0.18156088267E+03  0.11830624528E+04  0.13829005316E+04  0.15294330000E+03 0.  0.
<mgrwt>
<rscale>  0 0.89274256E+03</rscale>
<asrwt>0</asrwt>
<pdfrwt beam="1">  1        2 0.21998461E+00 0.96083072E+03</pdfrwt>
<pdfrwt beam="2">  1       -2 0.25705398E+00 0.96083072E+03</pdfrwt>
<totfact> 0.81291019E-01</totfact>
</mgrwt>
</event>
<event>
 4    5  0.1112901E-007  0.1230206E+04  0.7818608E-02  0.9128305E-01
         -2   -1    0    0    0  501 -0.00000000000E+00  0.00000000000E+00  0.15242291420E+04  0.15242291420E+04  0.25500000000E-02 0.  1.
          2   -1    0    0  501    0  0.00000000000E+00 -0.00000000000E+00 -0.15322689609E+04  0.15322689609E+04  0.25500000000E-02 0. -1.
    8880023    1    1    2    0    0 -0.93596811801E+03 -0.45117638605E+03  0.10116018922E+04  0.15927162471E+04  0.65864270000E+03 0.  0.
    8880022    1    1    2    0    0  0.93596811801E+03  0.45117638605E+03 -0.10196417111E+04  0.14637818558E+04  0.15294330000E+03 0.  0.
<mgrwt>
<rscale>  0 0.11825097E+04</rscale>
<asrwt>0</asrwt>
<pdfrwt beam="1">  1        2 0.23573369E+00 0.12302059E+04</pdfrwt>
<pdfrwt beam="2">  1       -2 0.23449679E+00 0.12302059E+04</pdfrwt>
<totfact> 0.94372180E-01</totfact>
</mgrwt>
</event>
<event>
 4    5  0.1112901E-007  0.7281789E+03  0.7818608E-02  0.9895825E-01
         -2   -1    0    0    0  501 -0.00000000000E+00  0.00000000000E+00  0.24836925067E+03  0.24836925068E+03  0.25500000000E-02 0.  1.
          2   -1    0    0  501    0  0.00000000000E+00 -0.00000000000E+00 -0.24580146437E+04  0.24580146437E+04  0.25500000000E-02 0. -1.
    8880023    1    1    2    0    0 -0.11387293150E+03 -0.28890688415E+03 -0.33765075120E+03  0.80265339237E+03  0.65864270000E+03 0.  1.
    8880022    1    1    2    0    0  0.11387293150E+03  0.28890688415E+03 -0.18719946419E+04  0.19037305020E+04  0.15294330000E+03 0.  0.
<mgrwt>
<rscale>  0 0.60464070E+03</rscale>
<asrwt>0</asrwt>
<pdfrwt beam="1">  1        2 0.37815608E+00 0.72817885E+03</pdfrwt>
<pdfrwt beam="2">  1       -2 0.38210656E-01 0.72817885E+03</pdfrwt>
<totfact> 0.24924719E+01</totfact>
</mgrwt>
</event>
<event>
 4    5  0.1112901E-007  0.1879398E+04  0.7818608E-02  0.8679843E-01
          2   -1    0    0  501    0  0.00000000000E+00  0.00000000000E+00  0.34188096914E+04  0.34188096914E+04  0.25500000000E-02 0. -1.
         -2   -1    0    0    0  501 -0.00000000000E+00 -0.00000000000E+00 -0.22844510958E+04  0.22844510958E+04  0.25500000000E-02 0.  1.
    8880023    1    1    2    0    0  0.15162165703E+04  0.89409885895E+03  0.27354728558E+04  0.33188774320E+04  0.65864270000E+03 0.  0.
    8880022    1    1    2    0    0 -0.15162165703E+04 -0.89409885895E+03 -0.16011142602E+04  0.23843833552E+04  0.15294330000E+03 0.  0.
<mgrwt>
<rscale>  0 0.18506028E+04</rscale>
<asrwt>0</asrwt>
<pdfrwt beam="1">  1        2 0.52597072E+00 0.18793977E+04</pdfrwt>
<pdfrwt beam="2">  1       -2 0.35145402E+00 0.18793977E+04</pdfrwt>
<totfact> 0.12625680E-02</totfact>
</mgrwt>
</event>
<event>
 4    5  0.1112901E-007  0.1383245E+04  0.7818608E-02  0.8996813E-01
          2   -1    0    0  501    0  0.00000000000E+00  0.00000000000E+00  0.13065319807E+04  0.13065319807E+04  0.25500000000E-02 0. -1.
         -2   -1    0    0    0  501 -0.00000000000E+00 -0.00000000000E+00 -0.17400329775E+04  0.17400329775E+04  0.25500000000E-02 0.  1.
    8880023    1    1    2    0    0 -0.11447455494E+04  0.41123380021E+03 -0.98919925298E+03  0.17005531393E+04  0.65864270000E+03 0.  0.
    8880022    1    1    2    0    0  0.11447455494E+04 -0.41123380021E+03  0.55569825620E+03  0.13460118188E+04  0.15294330000E+03 0.  0.
<mgrwt>
<rscale>  0 0.13421227E+04</rscale>
<asrwt>0</asrwt>
<pdfrwt beam="1">  1        2 0.20100492E+00 0.13832447E+04</pdfrwt>
<pdfrwt beam="2">  1       -2 0.26769738E+00 0.13832447E+04</pdfrwt>
<totfact> 0.78234744E-01</totfact>
</mgrwt>
</event>
<event>
 4    5  0.1112901E-007  0.6962326E+03  0.7818608E-02  0.1001320E+00
         -2   -1    0    0    0  501 -0.00000000000E+00  0.00000000000E+00  0.91632609230E+03  0.91632609230E+03  0.25500000000E-02 0.  1.
          2   -1    0    0  501    0  0.00000000000E+00 -0.00000000000E+00 -0.67158782592E+03  0.67158782592E+03  0.25500000000E-02 0. -1.
    8880023    1    1    2    0    0  0.97111455554E+02  0.20371290036E+03  0.74406948172E+03  0.10190089207E+04  0.65864270000E+03 0.  1.
    8880022    1    1    2    0    0 -0.97111455554E+02 -0.20371290036E+03 -0.49933121534E+03  0.56890499752E+03  0.15294330000E+03 0.  0.
<mgrwt>
<rscale>  0 0.55075045E+03</rscale>
<asrwt>0</asrwt>
<pdfrwt beam="1">  1        2 0.10332120E+00 0.69623257E+03</pdfrwt>
<pdfrwt beam="2">  1       -2 0.14097324E+00 0.69623257E+03</pdfrwt>
<totfact> 0.15532384E+01</totfact>
</mgrwt>
</event>
<event>
 4    5  0.1112901E-007  0.8543029E+03  0.7818608E-02  0.9603779E-01
          2   -1    0    0  501    0  0.00000000000E+00  0.00000000000E+00  0.17420486631E+04  0.17420486631E+04  0.25500000000E-02 0. -1.
         -2   -1    0    0    0  501 -0.00000000000E+00 -0.00000000000E+00 -0.10704704850E+04  0.10704704850E+04  0.25500000000E-02 0.  1.
    8880023    1    1    2    0    0  0.25644491835E+03 -0.47985337410E+03 -0.84039326624E+03  0.11983715221E+04  0.65864270000E+03 0.  1.
    8880022    1    1    2    0    0 -0.25644491835E+03  0.47985337410E+03  0.15119714444E+04  0.16141476260E+04  0.15294330000E+03 0.  0.
<mgrwt>
<rscale>  0 0.77046571E+03</rscale>
<asrwt>0</asrwt>
<pdfrwt beam="1">  1        2 0.26800749E+00 0.85430291E+03</pdfrwt>
<pdfrwt beam="2">  1       -2 0.16468777E+00 0.85430291E+03</pdfrwt>
<totfact> 0.21958243E+00</totfact>
</mgrwt>
</event>
<event>
 4    5  0.1112901E-007  0.6685792E+03  0.7818608E-02  0.1016703E+00
         -2   -1    0    0    0  501 -0.00000000000E+00  0.00000000000E+00  0.40585808694E+03  0.40585808695E+03  0.25500000000E-02 0.  1.
          2   -1    0    0  501    0  0.00000000000E+00 -0.00000000000E+00 -0.69604944477E+03  0.69604944478E+03  0.25500000000E-02 0. -1.
    8880023    1    1    2    0    0  0.11209390424E+03 -0.24957906154E+02  0.91662869054E+02  0.67483348189E+03  0.65864270000E+03 0.  0.
    8880022    1    1    2    0    0 -0.11209390424E+03  0.24957906154E+02 -0.38185422688E+03  0.42707404984E+03  0.15294330000E+03 0.  0.
<mgrwt>
<rscale>  0 0.48895569E+03</rscale>
<asrwt>0</asrwt>
<pdfrwt beam="1">  1        2 0.10708453E+00 0.66857920E+03</pdfrwt>
<pdfrwt beam="2">  1       -2 0.62439706E-01 0.66857920E+03</pdfrwt>
<totfact> 0.99891385E+01</totfact>
</mgrwt>
</event>
<event>
 4    5  0.1112901E-007  0.7079927E+03  0.7818608E-02  0.9965532E-01
         -2   -1    0    0    0  501 -0.00000000000E+00  0.00000000000E+00  0.20585772282E+03  0.20585772284E+03  0.25500000000E-02 0.  1.
          2   -1    0    0  501    0  0.00000000000E+00 -0.00000000000E+00 -0.19531883804E+04  0.19531883804E+04  0.25500000000E-02 0. -1.
    8880023    1    1    2    0    0  0.23161012431E+03  0.11747435756E+03 -0.47756852326E+03  0.85400548888E+03  0.65864270000E+03 0.  1.
    8880022    1    1    2    0    0 -0.23161012431E+03 -0.11747435756E+03 -0.12697621343E+04  0.13050406143E+04  0.15294330000E+03 0.  0.
<mgrwt>
<rscale>  0 0.57187791E+03</rscale>
<asrwt>0</asrwt>
<pdfrwt beam="1">  1        2 0.30049051E+00 0.70799271E+03</pdfrwt>
<pdfrwt beam="2">  1       -2 0.31670420E-01 0.70799271E+03</pdfrwt>
<totfact> 0.67825956E+01</totfact>
</mgrwt>
</event>
<event>
 4    5  0.1112901E-007  0.7109104E+03  0.7818608E-02  0.9954636E-01
          2   -1    0    0  501    0  0.00000000000E+00  0.00000000000E+00  0.21736943886E+03  0.21736943887E+03  0.25500000000E-02 0. -1.
         -2   -1    0    0    0  501 -0.00000000000E+00 -0.00000000000E+00 -0.19753394792E+04  0.19753394792E+04  0.25500000000E-02 0.  1.
    8880023    1    1    2    0    0 -0.38563698390E+01 -0.26752280138E+03 -0.43305540971E+03  0.83242448005E+03  0.65864270000E+03 0. -1.
    8880022    1    1    2    0    0  0.38563698390E+01  0.26752280138E+03 -0.13249146306E+04  0.13602844380E+04  0.15294330000E+03 0.  0.
<mgrwt>
<rscale>  0 0.57684918E+03</rscale>
<asrwt>0</asrwt>
<pdfrwt beam="1">  1        2 0.33441453E-01 0.71091035E+03</pdfrwt>
<pdfrwt beam="2">  1       -2 0.30389837E+00 0.71091035E+03</pdfrwt>
<totfact> 0.49488414E+00</totfact>
</mgrwt>
</event>
<event>
 4    5  0.1112901E-007  0.1350437E+04  0.7818608E-02  0.9023184E-01
         -2   -1    0    0    0  501 -0.00000000000E+00  0.00000000000E+00  0.10738795695E+04  0.10738795695E+04  0.25500000000E-02 0.  1.
          2   -1    0    0  501    0  0.00000000000E+00 -0.00000000000E+00 -0.18718068990E+04  0.18718068990E+04  0.25500000000E-02 0. -1.
    8880023    1    1    2    0    0  0.11718736187E+04  0.12877292879E+03  0.23510808827E+03  0.13707502562E+04  0.65864270000E+03 0.  0.
    8880022    1    1    2    0    0 -0.11718736187E+04 -0.12877292879E+03 -0.10330354178E+04  0.15749362123E+04  0.15294330000E+03 0.  0.
<mgrwt>
<rscale>  0 0.13080779E+04</rscale>
<asrwt>0</asrwt>
<pdfrwt beam="1">  1        2 0.28797029E+00 0.13504371E+04</pdfrwt>
<pdfrwt beam="2">  1       -2 0.16521224E+00 0.13504371E+04</pdfrwt>
<totfact> 0.17369259E+00</totfact>
</mgrwt>
</event>
<event>
 4    5  0.1112901E-007  0.7688960E+03  0.7818608E-02  0.9782598E-01
         -2   -1    0    0    0  501 -0.00000000000E+00  0.00000000000E+00  0.98153960295E+03  0.98153960295E+03  0.25500000000E-02 0.  1.
          2   -1    0    0  501    0  0.00000000000E+00 -0.00000000000E+00 -0.63888398243E+03  0.63888398243E+03  0.25500000000E-02 0. -1.
    8880023    1    1    2    0    0 -0.39669149286E+03  0.51685072311E+01  0.71893500971E+03  0.10526483783E+04  0.65864270000E+03 0.  0.
    8880022    1    1    2    0    0  0.39669149286E+03 -0.51685072311E+01 -0.37627938920E+03  0.56777520704E+03  0.15294330000E+03 0.  0.
<mgrwt>
<rscale>  0 0.66304843E+03</rscale>
<asrwt>0</asrwt>
<pdfrwt beam="1">  1        2 0.98289844E-01 0.76889600E+03</pdfrwt>
<pdfrwt beam="2">  1       -2 0.15100609E+00 0.76889600E+03</pdfrwt>
<totfact> 0.13694327E+01</totfact>
</mgrwt>
</event>
<event>
 4    5  0.1112901E-007  0.9440949E+03  0.7818608E-02  0.9458662E-01
         -2   -1    0    0    0  501 -0.00000000000E+00  0.00000000000E+00  0.17858255077E+04  0.17858255077E+04  0.25500000000E-02 0.  1.
          2   -1    0    0  501    0  0.00000000000E+00 -0.00000000000E+00 -0.70337788829E+03  0.70337788829E+03  0.25500000000E-02 0. -1.
    8880023    1    1    2    0    0  0.67392049650E+03  0.57759529098E+02  0.14299830443E+04  0.17135246459E+04  0.65864270000E+03 0.  1.
    8880022    1    1    2    0    0 -0.67392049650E+03 -0.57759529098E+02 -0.34753542489E+03  0.77567875011E+03  0.15294330000E+03 0.  0.
<mgrwt>
<rscale>  0 0.87401364E+03</rscale>
<asrwt>0</asrwt>
<pdfrwt beam="1">  1        2 0.10821198E+00 0.94409491E+03</pdfrwt>
<pdfrwt beam="2">  1       -2 0.27474239E+00 0.94409491E+03</pdfrwt>
<totfact> 0.18618917E+00</totfact>
</mgrwt>
</event>
<event>
 4    5  0.1112901E-007  0.9554189E+03  0.7818608E-02  0.9442360E-01
         -2   -1    0    0    0  501 -0.00000000000E+00  0.00000000000E+00  0.15353014528E+04  0.15353014528E+04  0.25500000000E-02 0.  1.
          2   -1    0    0  501    0  0.00000000000E+00 -0.00000000000E+00 -0.98064495842E+03  0.98064495842E+03  0.25500000000E-02 0. -1.
    8880023    1    1    2    0    0 -0.68945684588E+03 -0.60533235199E+02  0.12160554645E+04  0.15464850837E+04  0.65864270000E+03 0.  0.
    8880022    1    1    2    0    0  0.68945684588E+03  0.60533235199E+02 -0.66139897016E+03  0.96946132756E+03  0.15294330000E+03 0.  0.
<mgrwt>
<rscale>  0 0.88670118E+03</rscale>
<asrwt>0</asrwt>
<pdfrwt beam="1">  1        2 0.15086846E+00 0.95541887E+03</pdfrwt>
<pdfrwt beam="2">  1       -2 0.23620022E+00 0.95541887E+03</pdfrwt>
<totfact> 0.20291829E+00</totfact>
</mgrwt>
</event>
<event>
 4    5  0.1112901E-007  0.1014131E+04  0.7818608E-02  0.9363299E-01
          2   -1    0    0  501    0  0.00000000000E+00  0.00000000000E+00  0.62675675257E+03  0.62675675258E+03  0.25500000000E-02 0. -1.
         -2   -1    0    0    0  501 -0.00000000000E+00 -0.00000000000E+00 -0.19003934615E+04  0.19003934615E+04  0.25500000000E-02 0.  1.
    8880023    1    1    2    0    0  0.44963961069E+03 -0.62647898241E+03 -0.14022525203E+04  0.17305415430E+04  0.65864270000E+03 0.  0.
    8880022    1    1    2    0    0 -0.44963961069E+03  0.62647898241E+03  0.12861581142E+03  0.79660867110E+03  0.15294330000E+03 0.  0.
<mgrwt>
<rscale>  0 0.95158578E+03</rscale>
<asrwt>0</asrwt>
<pdfrwt beam="1">  1        2 0.96424117E-01 0.10141311E+04</pdfrwt>
<pdfrwt beam="2">  1       -2 0.29236822E+00 0.10141311E+04</pdfrwt>
<totfact> 0.16692002E+00</totfact>
</mgrwt>
</event>
<event>
 4    5  0.1112901E-007  0.9809976E+03  0.7818608E-02  0.9406852E-01
         -2   -1    0    0    0  501 -0.00000000000E+00  0.00000000000E+00  0.49052600436E+03  0.49052600437E+03  0.25500000000E-02 0.  1.
          2   -1    0    0  501    0  0.00000000000E+00 -0.00000000000E+00 -0.21156292920E+04  0.21156292920E+04  0.25500000000E-02 0. -1.
    8880023    1    1    2    0    0  0.53130710513E+03 -0.49624466979E+03 -0.20313612828E+03  0.10018086170E+04  0.65864270000E+03 0.  1.
    8880022    1    1    2    0    0 -0.53130710513E+03  0.49624466979E+03 -0.14219671594E+04  0.16043466794E+04  0.15294330000E+03 0.  0.
<mgrwt>
<rscale>  0 0.91513929E+03</rscale>
<asrwt>0</asrwt>
<pdfrwt beam="1">  1        2 0.32548143E+00 0.98099756E+03</pdfrwt>
<pdfrwt beam="2">  1       -2 0.75465540E-01 0.98099756E+03</pdfrwt>
<totfact> 0.91279925E+00</totfact>
</mgrwt>
</event>
<event>
 4    5  0.1112901E-007  0.7935434E+03  0.7818608E-02  0.9724934E-01
          2   -1    0    0  501    0  0.00000000000E+00  0.00000000000E+00  0.21160008531E+04  0.21160008531E+04  0.25500000000E-02 0. -1.
         -2   -1    0    0    0  501 -0.00000000000E+00 -0.00000000000E+00 -0.82801444919E+03  0.82801444919E+03  0.25500000000E-02 0.  1.
    8880023    1    1    2    0    0 -0.43738588287E+03  0.67782667558E+02 -0.60252621123E+03  0.99636787485E+03  0.65864270000E+03 0.  0.
    8880022    1    1    2    0    0  0.43738588287E+03 -0.67782667558E+02  0.18905126152E+04  0.19476474274E+04  0.15294330000E+03 0.  0.
<mgrwt>
<rscale>  0 0.69551419E+03</rscale>
<asrwt>0</asrwt>
<pdfrwt beam="1">  1        2 0.32553859E+00 0.79354339E+03</pdfrwt>
<pdfrwt beam="2">  1       -2 0.12738684E+00 0.79354339E+03</pdfrwt>
<totfact> 0.27154460E+00</totfact>
</mgrwt>
</event>
<event>
 4    5  0.1112901E-007  0.7596662E+03  0.7818608E-02  0.9805973E-01
          2   -1    0    0  501    0  0.00000000000E+00  0.00000000000E+00  0.22228407009E+04  0.22228407009E+04  0.25500000000E-02 0. -1.
         -2   -1    0    0    0  501 -0.00000000000E+00 -0.00000000000E+00 -0.10158056292E+04  0.10158056292E+04  0.25500000000E-02 0.  1.
    8880023    1    1    2    0    0 -0.25072081042E+03  0.28358691869E+03 -0.85086442179E+03  0.11406414580E+04  0.65864270000E+03 0.  0.
    8880022    1    1    2    0    0  0.25072081042E+03 -0.28358691869E+03  0.20578994934E+04  0.20980048721E+04  0.15294330000E+03 0.  0.
<mgrwt>
<rscale>  0 0.65043006E+03</rscale>
<asrwt>0</asrwt>
<pdfrwt beam="1">  1        2 0.34197549E+00 0.75966616E+03</pdfrwt>
<pdfrwt beam="2">  1       -2 0.15627779E+00 0.75966616E+03</pdfrwt>
<totfact> 0.14033023E+00</totfact>
</mgrwt>
</event>
<event>
 4    5  0.1112901E-007  0.1055714E+04  0.7818608E-02  0.9312044E-01
         -2   -1    0    0    0  501 -0.00000000000E+00  0.00000000000E+00  0.63707292694E+03  0.63707292695E+03  0.25500000000E-02 0.  1.
          2   -1    0    0  501    0  0.00000000000E+00 -0.00000000000E+00 -0.25090089069E+04  0.25090089069E+04  0.25500000000E-02 0. -1.
    8880023    1    1    2    0    0 -0.71082984811E+02  0.82199048198E+03  0.41720673464E+02  0.10565377249E+04  0.65864270000E+03 0.  0.
    8880022    1    1    2    0    0  0.71082984811E+02 -0.82199048198E+03 -0.19136566534E+04  0.20895441090E+04  0.15294330000E+03 0.  0.
<mgrwt>
<rscale>  0 0.99681574E+03</rscale>
<asrwt>0</asrwt>
<pdfrwt beam="1">  1        2 0.38600137E+00 0.10557137E+04</pdfrwt>
<pdfrwt beam="2">  1       -2 0.98011221E-01 0.10557137E+04</pdfrwt>
<totfact> 0.29830069E+00</totfact>
</mgrwt>
</event>
<event>
 4    5  0.1112901E-007  0.7165368E+03  0.7818608E-02  0.9934483E-01
          2   -1    0    0  501    0  0.00000000000E+00  0.00000000000E+00  0.13086414489E+04  0.13086414489E+04  0.25500000000E-02 0. -1.
         -2   -1    0    0    0  501 -0.00000000000E+00 -0.00000000000E+00 -0.12696463218E+04  0.12696463218E+04  0.25500000000E-02 0.  1.
    8880023    1    1    2    0    0  0.23047907730E+03  0.16277011894E+03 -0.11454645278E+04  0.13511158009E+04  0.65864270000E+03 0.  1.
    8880022    1    1    2    0    0 -0.23047907730E+03 -0.16277011894E+03  0.11844596549E+04  0.12271719699E+04  0.15294330000E+03 0.  0.
<mgrwt>
<rscale>  0 0.58618792E+03</rscale>
<asrwt>0</asrwt>
<pdfrwt beam="1">  1        2 0.20132945E+00 0.71653676E+03</pdfrwt>
<pdfrwt beam="2">  1       -2 0.19533020E+00 0.71653676E+03</pdfrwt>
<totfact> 0.24125230E+00</totfact>
</mgrwt>
</event>
<event>
 4    5  0.1112901E-007  0.9021992E+03  0.7818608E-02  0.9522510E-01
         -2   -1    0    0    0  501 -0.00000000000E+00  0.00000000000E+00  0.32540340244E+03  0.32540340245E+03  0.25500000000E-02 0.  1.
          2   -1    0    0  501    0  0.00000000000E+00 -0.00000000000E+00 -0.19400366472E+04  0.19400366472E+04  0.25500000000E-02 0. -1.
    8880023    1    1    2    0    0 -0.57428232485E+03 -0.22439488920E+03 -0.12208506170E+04  0.15180381056E+04  0.65864270000E+03 0.  0.
    8880022    1    1    2    0    0  0.57428232485E+03  0.22439488920E+03 -0.39378262774E+03  0.74740194398E+03  0.15294330000E+03 0.  0.
<mgrwt>
<rscale>  0 0.82644380E+03</rscale>
<asrwt>0</asrwt>
<pdfrwt beam="1">  1        2 0.29846717E+00 0.90219924E+03</pdfrwt>
<pdfrwt beam="2">  1       -2 0.50062063E-01 0.90219924E+03</pdfrwt>
<totfact> 0.27593301E+01</totfact>
</mgrwt>
</event>
<event>
 4    5  0.1112901E-007  0.9480658E+03  0.7818608E-02  0.9452902E-01
          2   -1    0    0  501    0  0.00000000000E+00  0.00000000000E+00  0.27432441550E+04  0.27432441550E+04  0.25500000000E-02 0. -1.
         -2   -1    0    0    0  501 -0.00000000000E+00 -0.00000000000E+00 -0.29412034010E+03  0.29412034011E+03  0.25500000000E-02 0.  1.
    8880023    1    1    2    0    0  0.65603945603E+03  0.18609368476E+03  0.77949186576E+03  0.12273697089E+04  0.65864270000E+03 0.  0.
    8880022    1    1    2    0    0 -0.65603945603E+03 -0.18609368476E+03  0.16696319491E+04  0.18099947861E+04  0.15294330000E+03 0.  0.
<mgrwt>
<rscale>  0 0.87847008E+03</rscale>
<asrwt>0</asrwt>
<pdfrwt beam="1">  1        2 0.42203755E+00 0.94806584E+03</pdfrwt>
<pdfrwt beam="2">  1       -2 0.45249285E-01 0.94806584E+03</pdfrwt>
<totfact> 0.11866325E+01</totfact>
</mgrwt>
</event>
<event>
 4    5  0.1112901E-007  0.1108008E+04  0.7818608E-02  0.9252192E-01
         -2   -1    0    0    0  501 -0.00000000000E+00  0.00000000000E+00  0.97945960413E+03  0.97945960413E+03  0.25500000000E-02 0.  1.
          2   -1    0    0  501    0  0.00000000000E+00 -0.00000000000E+00 -0.17754609790E+04  0.17754609790E+04  0.25500000000E-02 0. -1.
    8880023    1    1    2    0    0 -0.18223436499E+03 -0.87215986819E+03 -0.13093981694E+04  0.17152859737E+04  0.65864270000E+03 0. -1.
    8880022    1    1    2    0    0  0.18223436499E+03  0.87215986819E+03  0.51339679450E+03  0.10396346094E+04  0.15294330000E+03 0.  0.
<mgrwt>
<rscale>  0 0.10530586E+04</rscale>
<asrwt>0</asrwt>
<pdfrwt beam="1">  1        2 0.27314784E+00 0.11080083E+04</pdfrwt>
<pdfrwt beam="2">  1       -2 0.15068609E+00 0.11080083E+04</pdfrwt>
<totfact> 0.25886048E+00</totfact>
</mgrwt>
</event>
<event>
 4    5  0.1112901E-007  0.1137547E+04  0.7818608E-02  0.9220360E-01
          2   -1    0    0  501    0  0.00000000000E+00  0.00000000000E+00  0.29438515301E+04  0.29438515301E+04  0.25500000000E-02 0. -1.
         -2   -1    0    0    0  501 -0.00000000000E+00 -0.00000000000E+00 -0.73711785752E+03  0.73711785752E+03  0.25500000000E-02 0.  1.
    8880023    1    1    2    0    0  0.36559532896E+03 -0.85237500325E+03 -0.14649854929E+03  0.11469416384E+04  0.65864270000E+03 0.  0.
    8880022    1    1    2    0    0 -0.36559532896E+03  0.85237500325E+03  0.23532322219E+04  0.25340277492E+04  0.15294330000E+03 0.  0.
<mgrwt>
<rscale>  0 0.10845727E+04</rscale>
<asrwt>0</asrwt>
<pdfrwt beam="1">  1        2 0.45290024E+00 0.11375471E+04</pdfrwt>
<pdfrwt beam="2">  1       -2 0.11340275E+00 0.11375471E+04</pdfrwt>
<totfact> 0.11473368E+00</totfact>
</mgrwt>
</event>
<event>
 4    5  0.2314116E-007  0.1229250E+04  0.7818608E-02  0.9129200E-01
          2   -1    0    0  501    0  0.00000000000E+00  0.00000000000E+00  0.27027004328E+04  0.27027004328E+04  0.25500000000E-02 0. -1.
         -2   -1    0    0    0  501 -0.00000000000E+00 -0.00000000000E+00 -0.19583047236E+04  0.19583047236E+04  0.25500000000E-02 0.  1.
    8880023    1    1    2    0    0 -0.31588538922E+03 -0.98866705929E+03 -0.16437666714E+04  0.20525655190E+04  0.65864270000E+03 0.  1.
    8880022    1    1    2    0    0  0.31588538922E+03  0.98866705929E+03  0.23881623806E+04  0.26084396374E+04  0.15294330000E+03 0.  0.
<mgrwt>
<rscale>  0 0.11815056E+04</rscale>
<asrwt>0</asrwt>
<pdfrwt beam="1">  1        2 0.41580007E+00 0.12292503E+04</pdfrwt>
<pdfrwt beam="2">  1       -2 0.30127765E+00 0.12292503E+04</pdfrwt>
<totfact> 0.80858073E-02</totfact>
</mgrwt>
</event>
<event>
 4    5  0.1112901E-007  0.9391663E+03  0.7818608E-02  0.9465876E-01
          2   -1    0    0  501    0  0.00000000000E+00  0.00000000000E+00  0.11101408551E+04  0.11101408551E+04  0.25500000000E-02 0. -1.
         -2   -1    0    0    0  501 -0.00000000000E+00 -0.00000000000E+00 -0.16581033567E+04  0.16581033567E+04  0.25500000000E-02 0.  1.
    8880023    1    1    2    0    0 -0.62784183130E+03  0.23246005160E+03 -0.13925762212E+04  0.16796731166E+04  0.65864270000E+03 0.  1.
    8880022    1    1    2    0    0  0.62784183130E+03 -0.23246005160E+03  0.84461371965E+03  0.10885710951E+04  0.15294330000E+03 0.  0.
<mgrwt>
<rscale>  0 0.86847091E+03</rscale>
<asrwt>0</asrwt>
<pdfrwt beam="1">  1        2 0.17079090E+00 0.93916625E+03</pdfrwt>
<pdfrwt beam="2">  1       -2 0.25509283E+00 0.93916625E+03</pdfrwt>
<totfact> 0.12915422E+00</totfact>
</mgrwt>
</event>
<event>
 4    5  0.1112901E-007  0.1082050E+04  0.7818608E-02  0.9281309E-01
          2   -1    0    0  501    0  0.00000000000E+00  0.00000000000E+00  0.97597902458E+03  0.97597902459E+03  0.25500000000E-02 0. -1.
         -2   -1    0    0    0  501 -0.00000000000E+00 -0.00000000000E+00 -0.18242854124E+04  0.18242854124E+04  0.25500000000E-02 0.  1.
    8880023    1    1    2    0    0 -0.84919566111E+03 -0.12605455757E+03 -0.13992201838E+04  0.17687991269E+04  0.65864270000E+03 0.  0.
    8880022    1    1    2    0    0  0.84919566111E+03  0.12605455757E+03  0.55091379596E+03  0.10314653101E+04  0.15294330000E+03 0.  0.
<mgrwt>
<rscale>  0 0.10252197E+04</rscale>
<asrwt>0</asrwt>
<pdfrwt beam="1">  1        2 0.15015062E+00 0.10820505E+04</pdfrwt>
<pdfrwt beam="2">  1       -2 0.28065929E+00 0.10820505E+04</pdfrwt>
<totfact> 0.10788077E+00</totfact>
</mgrwt>
</event>
<event>
 4    5  0.1112901E-007  0.6645775E+03  0.7818608E-02  0.1019891E+00
          2   -1    0    0  501    0  0.00000000000E+00  0.00000000000E+00  0.14223468150E+04  0.14223468150E+04  0.25500000000E-02 0. -1.
         -2   -1    0    0    0  501 -0.00000000000E+00 -0.00000000000E+00 -0.51124929117E+03  0.51124929117E+03  0.25500000000E-02 0.  1.
    8880023    1    1    2    0    0  0.85842538367E+02 -0.22002031080E+02 -0.28601006732E+03  0.72350880826E+03  0.65864270000E+03 0.  1.
    8880022    1    1    2    0    0 -0.85842538367E+02  0.22002031080E+02  0.11971075912E+04  0.12100872979E+04  0.15294330000E+03 0.  0.
<mgrwt>
<rscale>  0 0.47726132E+03</rscale>
<asrwt>0</asrwt>
<pdfrwt beam="1">  1        2 0.21882258E+00 0.66457749E+03</pdfrwt>
<pdfrwt beam="2">  1       -2 0.78653738E-01 0.66457749E+03</pdfrwt>
<totfact> 0.20857479E+01</totfact>
</mgrwt>
</event>
<event>
 4    5  0.1112901E-007  0.6668953E+03  0.7818608E-02  0.1017994E+00
          2   -1    0    0  501    0  0.00000000000E+00  0.00000000000E+00  0.22092952314E+04  0.22092952314E+04  0.25500000000E-02 0. -1.
         -2   -1    0    0    0  501 -0.00000000000E+00 -0.00000000000E+00 -0.16721085511E+03  0.16721085513E+03  0.25500000000E-02 0.  1.
    8880023    1    1    2    0    0 -0.10130384967E+03 -0.26012767659E+02  0.52660606127E+03  0.84974306944E+03  0.65864270000E+03 0.  1.
    8880022    1    1    2    0    0  0.10130384967E+03  0.26012767659E+02  0.15154783150E+04  0.15267630171E+04  0.15294330000E+03 0.  0.
<mgrwt>
<rscale>  0 0.48417651E+03</rscale>
<asrwt>0</asrwt>
<pdfrwt beam="1">  1        2 0.33989155E+00 0.66689530E+03</pdfrwt>
<pdfrwt beam="2">  1       -2 0.25724749E-01 0.66689530E+03</pdfrwt>
<totfact> 0.72415846E+01</totfact>
</mgrwt>
</event>
<event>
 4    5  0.1112901E-007  0.7932681E+03  0.7818608E-02  0.9725545E-01
         -2   -1    0    0    0  501 -0.00000000000E+00  0.00000000000E+00  0.31597463084E+03  0.31597463085E+03  0.25500000000E-02 0.  1.
          2   -1    0    0  501    0  0.00000000000E+00 -0.00000000000E+00 -0.15629859373E+04  0.15629859373E+04  0.25500000000E-02 0. -1.
    8880023    1    1    2    0    0  0.41298254969E+03 -0.15782741780E+03 -0.11565794889E+04  0.14024800892E+04  0.65864270000E+03 0. -1.
    8880022    1    1    2    0    0 -0.41298254969E+03  0.15782741780E+03 -0.90431817493E+02  0.47648047891E+03  0.15294330000E+03 0.  0.
<mgrwt>
<rscale>  0 0.69515994E+03</rscale>
<asrwt>0</asrwt>
<pdfrwt beam="1">  1        2 0.24045937E+00 0.79326811E+03</pdfrwt>
<pdfrwt beam="2">  1       -2 0.48611483E-01 0.79326811E+03</pdfrwt>
<totfact> 0.47736359E+01</totfact>
</mgrwt>
</event>
<event>
 4    5  0.1112901E-007  0.7837047E+03  0.7818608E-02  0.9747205E-01
         -2   -1    0    0    0  501 -0.00000000000E+00  0.00000000000E+00  0.17639690896E+04  0.17639690896E+04  0.25500000000E-02 0.  1.
          2   -1    0    0  501    0  0.00000000000E+00 -0.00000000000E+00 -0.66155715382E+03  0.66155715383E+03  0.25500000000E-02 0. -1.
    8880023    1    1    2    0    0 -0.31266523817E+03  0.28744264585E+03  0.15828788735E+04  0.17662668429E+04  0.65864270000E+03 0.  1.
    8880022    1    1    2    0    0  0.31266523817E+03 -0.28744264585E+03 -0.48046693779E+03  0.65925940049E+03  0.15294330000E+03 0.  0.
<mgrwt>
<rscale>  0 0.68274426E+03</rscale>
<asrwt>0</asrwt>
<pdfrwt beam="1">  1        2 0.10177802E+00 0.78370468E+03</pdfrwt>
<pdfrwt beam="2">  1       -2 0.27137986E+00 0.78370468E+03</pdfrwt>
<totfact> 0.21542067E+00</totfact>
</mgrwt>
</event>
<event>
 4    5  0.1112901E-007  0.9214768E+03  0.7818608E-02  0.9492398E-01
          2   -1    0    0  501    0  0.00000000000E+00  0.00000000000E+00  0.85200351360E+03  0.85200351361E+03  0.25500000000E-02 0. -1.
         -2   -1    0    0    0  501 -0.00000000000E+00 -0.00000000000E+00 -0.13112489720E+04  0.13112489720E+04  0.25500000000E-02 0.  1.
    8880023    1    1    2    0    0  0.41541321212E+02  0.64310464410E+03 -0.96168527521E+03  0.13319001612E+04  0.65864270000E+03 0.  0.
    8880022    1    1    2    0    0 -0.41541321212E+02 -0.64310464410E+03  0.50243981685E+03  0.83135232435E+03  0.15294330000E+03 0.  0.
<mgrwt>
<rscale>  0 0.84846585E+03</rscale>
<asrwt>0</asrwt>
<pdfrwt beam="1">  1        2 0.13107746E+00 0.92147679E+03</pdfrwt>
<pdfrwt beam="2">  1       -2 0.20173061E+00 0.92147679E+03</pdfrwt>
<totfact> 0.41037329E+00</totfact>
</mgrwt>
</event>
<event>
 4    5  0.1112901E-007  0.8733621E+03  0.7818608E-02  0.9570223E-01
         -2   -1    0    0    0  501 -0.00000000000E+00  0.00000000000E+00  0.34906467505E+03  0.34906467506E+03  0.25500000000E-02 0.  1.
          2   -1    0    0  501    0  0.00000000000E+00 -0.00000000000E+00 -0.19348696843E+04  0.19348696843E+04  0.25500000000E-02 0. -1.
    8880023    1    1    2    0    0 -0.12291151823E+03 -0.56021778292E+03 -0.40578211370E+03  0.96302675751E+03  0.65864270000E+03 0.  1.
    8880022    1    1    2    0    0  0.12291151823E+03  0.56021778292E+03 -0.11800228956E+04  0.13209076019E+04  0.15294330000E+03 0.  0.
<mgrwt>
<rscale>  0 0.79298770E+03</rscale>
<asrwt>0</asrwt>
<pdfrwt beam="1">  1        2 0.29767225E+00 0.87336213E+03</pdfrwt>
<pdfrwt beam="2">  1       -2 0.53702259E-01 0.87336213E+03</pdfrwt>
<totfact> 0.24118021E+01</totfact>
</mgrwt>
</event>
<event>
 4    5  0.1112901E-007  0.9686913E+03  0.7818608E-02  0.9423716E-01
         -2   -1    0    0    0  501 -0.00000000000E+00  0.00000000000E+00  0.92426906294E+03  0.92426906294E+03  0.25500000000E-02 0.  1.
          2   -1    0    0  501    0  0.00000000000E+00 -0.00000000000E+00 -0.19933889752E+04  0.19933889752E+04  0.25500000000E-02 0. -1.
    8880023    1    1    2    0    0  0.69004124016E+03 -0.16851049606E+03  0.57053567623E+03  0.11242214482E+04  0.65864270000E+03 0.  1.
    8880022    1    1    2    0    0 -0.69004124016E+03  0.16851049606E+03 -0.16396555884E+04  0.17934365899E+04  0.15294330000E+03 0.  0.
<mgrwt>
<rscale>  0 0.90149346E+03</rscale>
<asrwt>0</asrwt>
<pdfrwt beam="1">  1        2 0.30667523E+00 0.96869134E+03</pdfrwt>
<pdfrwt beam="2">  1       -2 0.14219524E+00 0.96869134E+03</pdfrwt>
<totfact> 0.23288004E+00</totfact>
</mgrwt>
</event>
<event>
 4    5  0.1112901E-007  0.6650828E+03  0.7818608E-02  0.1019464E+00
         -2   -1    0    0    0  501 -0.00000000000E+00  0.00000000000E+00  0.16219837021E+03  0.16219837023E+03  0.25500000000E-02 0.  1.
          2   -1    0    0  501    0  0.00000000000E+00 -0.00000000000E+00 -0.17691633544E+04  0.17691633544E+04  0.25500000000E-02 0. -1.
    8880023    1    1    2    0    0  0.72841782865E+02 -0.56736081871E+02 -0.56053181729E+03  0.86978792402E+03  0.65864270000E+03 0.  1.
    8880022    1    1    2    0    0 -0.72841782865E+02  0.56736081871E+02 -0.10464331669E+04  0.10615738006E+04  0.15294330000E+03 0.  0.
<mgrwt>
<rscale>  0 0.47880513E+03</rscale>
<asrwt>0</asrwt>
<pdfrwt beam="1">  1        2 0.27217896E+00 0.66508279E+03</pdfrwt>
<pdfrwt beam="2">  1       -2 0.24953597E-01 0.66508279E+03</pdfrwt>
<totfact> 0.13287502E+02</totfact>
</mgrwt>
</event>
<event>
 4    5  0.1112901E-007  0.7654563E+03  0.7818608E-02  0.9791181E-01
          2   -1    0    0  501    0  0.00000000000E+00  0.00000000000E+00  0.12510324462E+04  0.12510324462E+04  0.25500000000E-02 0. -1.
         -2   -1    0    0    0  501 -0.00000000000E+00 -0.00000000000E+00 -0.45214658569E+03  0.45214658570E+03  0.25500000000E-02 0.  1.
    8880023    1    1    2    0    0 -0.47353972139E+02 -0.38713145019E+03 -0.38946507304E+02  0.76644647243E+03  0.65864270000E+03 0.  1.
    8880022    1    1    2    0    0  0.47353972139E+02  0.38713145019E+03  0.83783236781E+03  0.93673255947E+03  0.15294330000E+03 0.  0.
<mgrwt>
<rscale>  0 0.65837970E+03</rscale>
<asrwt>0</asrwt>
<pdfrwt beam="1">  1        2 0.19246653E+00 0.76545631E+03</pdfrwt>
<pdfrwt beam="2">  1       -2 0.69561014E-01 0.76545631E+03</pdfrwt>
<totfact> 0.33873912E+01</totfact>
</mgrwt>
</event>
<event>
 4    5  0.1112901E-007  0.8716812E+03  0.7818608E-02  0.9573113E-01
         -2   -1    0    0    0  501 -0.00000000000E+00  0.00000000000E+00  0.83946742510E+03  0.83946742510E+03  0.25500000000E-02 0.  1.
          2   -1    0    0  501    0  0.00000000000E+00 -0.00000000000E+00 -0.22146363357E+04  0.22146363357E+04  0.25500000000E-02 0. -1.
    8880023    1    1    2    0    0 -0.72297312787E+02 -0.56638415794E+03  0.55639284096E+03  0.10341185210E+04  0.65864270000E+03 0.  1.
    8880022    1    1    2    0    0  0.72297312787E+02  0.56638415794E+03 -0.19315617515E+04  0.20199852397E+04  0.15294330000E+03 0.  0.
<mgrwt>
<rscale>  0 0.79101571E+03</rscale>
<asrwt>0</asrwt>
<pdfrwt beam="1">  1        2 0.34071328E+00 0.87168120E+03</pdfrwt>
<pdfrwt beam="2">  1       -2 0.12914884E+00 0.87168120E+03</pdfrwt>
<totfact> 0.22840228E+00</totfact>
</mgrwt>
</event>
<event>
 4    5  0.1112901E-007  0.1318963E+04  0.7818608E-02  0.9049355E-01
          2   -1    0    0  501    0  0.00000000000E+00  0.00000000000E+00  0.18943208545E+04  0.18943208545E+04  0.25500000000E-02 0. -1.
         -2   -1    0    0    0  501 -0.00000000000E+00 -0.00000000000E+00 -0.14811604751E+04  0.14811604751E+04  0.25500000000E-02 0.  1.
    8880023    1    1    2    0    0 -0.10706921349E+04  0.39933919153E+03 -0.92361966289E+03  0.16101977908E+04  0.65864270000E+03 0.  1.
    8880022    1    1    2    0    0  0.10706921349E+04 -0.39933919153E+03  0.13367800423E+04  0.17652835387E+04  0.15294330000E+03 0.  0.
<mgrwt>
<rscale>  0 0.12753375E+04</rscale>
<asrwt>0</asrwt>
<pdfrwt beam="1">  1        2 0.29143398E+00 0.13189631E+04</pdfrwt>
<pdfrwt beam="2">  1       -2 0.22787084E+00 0.13189631E+04</pdfrwt>
<totfact> 0.64549029E-01</totfact>
</mgrwt>
</event>
<event>
 4    5  0.1112901E-007  0.1160816E+04  0.7818608E-02  0.9196187E-01
         -2   -1    0    0    0  501 -0.00000000000E+00  0.00000000000E+00  0.64937205245E+03  0.64937205245E+03  0.25500000000E-02 0.  1.
          2   -1    0    0  501    0  0.00000000000E+00 -0.00000000000E+00 -0.23991092784E+04  0.23991092784E+04  0.25500000000E-02 0. -1.
    8880023    1    1    2    0    0  0.46741744966E+03  0.83378865733E+03 -0.13882162695E+03  0.11690869291E+04  0.65864270000E+03 0.  0.
    8880022    1    1    2    0    0 -0.46741744966E+03 -0.83378865733E+03 -0.16109155990E+04  0.18793944017E+04  0.15294330000E+03 0.  0.
<mgrwt>
<rscale>  0 0.11092876E+04</rscale>
<asrwt>0</asrwt>
<pdfrwt beam="1">  1        2 0.36909373E+00 0.11608156E+04</pdfrwt>
<pdfrwt beam="2">  1       -2 0.99903394E-01 0.11608156E+04</pdfrwt>
<totfact> 0.32512934E+00</totfact>
</mgrwt>
</event>
<event>
 4    5  0.1112901E-007  0.1054372E+04  0.7818608E-02  0.9313643E-01
         -2   -1    0    0    0  501 -0.00000000000E+00  0.00000000000E+00  0.35568246993E+03  0.35568246994E+03  0.25500000000E-02 0.  1.
          2   -1    0    0  501    0  0.00000000000E+00 -0.00000000000E+00 -0.27682553002E+04  0.27682553002E+04  0.25500000000E-02 0. -1.
    8880023    1    1    2    0    0  0.82217383678E+03  0.43833023747E+02 -0.18011205072E+04  0.20870401145E+04  0.65864270000E+03 0. -1.
    8880022    1    1    2    0    0 -0.82217383678E+03 -0.43833023747E+02 -0.61145232305E+03  0.10368976556E+04  0.15294330000E+03 0.  0.
<mgrwt>
<rscale>  0 0.99536462E+03</rscale>
<asrwt>0</asrwt>
<pdfrwt beam="1">  1        2 0.42588542E+00 0.10543725E+04</pdfrwt>
<pdfrwt beam="2">  1       -2 0.54720382E-01 0.10543725E+04</pdfrwt>
<totfact> 0.76732971E+00</totfact>
</mgrwt>
</event>
<event>
 4    5  0.1112901E-007  0.7150011E+03  0.7818608E-02  0.9939878E-01
          2   -1    0    0  501    0  0.00000000000E+00  0.00000000000E+00  0.11569032958E+04  0.11569032958E+04  0.25500000000E-02 0. -1.
         -2   -1    0    0    0  501 -0.00000000000E+00 -0.00000000000E+00 -0.51249900794E+03  0.51249900795E+03  0.25500000000E-02 0.  1.
    8880023    1    1    2    0    0  0.10439996369E+03 -0.25790895106E+03 -0.22036470662E+03  0.74818927394E+03  0.65864270000E+03 0.  0.
    8880022    1    1    2    0    0 -0.10439996369E+03  0.25790895106E+03  0.86476899444E+03  0.92121302977E+03  0.15294330000E+03 0. -1.
<mgrwt>
<rscale>  0 0.58366940E+03</rscale>
<asrwt>0</asrwt>
<pdfrwt beam="1">  1        2 0.17798512E+00 0.71500111E+03</pdfrwt>
<pdfrwt beam="2">  1       -2 0.78846001E-01 0.71500111E+03</pdfrwt>
<totfact> 0.29345213E+01</totfact>
</mgrwt>
</event>
<event>
 4    5  0.1112901E-007  0.1999842E+04  0.7818608E-02  0.8619370E-01
         -2   -1    0    0    0  501 -0.00000000000E+00  0.00000000000E+00  0.19229851095E+04  0.19229851095E+04  0.25500000000E-02 0.  1.
          2   -1    0    0  501    0  0.00000000000E+00 -0.00000000000E+00 -0.28216290658E+04  0.28216290658E+04  0.25500000000E-02 0. -1.
    8880023    1    1    2    0    0 -0.16791498101E+04 -0.86372006383E+03  0.84391940705E+03  0.21706143382E+04  0.65864270000E+03 0.  0.
    8880022    1    1    2    0    0  0.16791498101E+04  0.86372006383E+03 -0.17425633634E+04  0.25739998372E+04  0.15294330000E+03 0.  0.
<mgrwt>
<rscale>  0 0.19729569E+04</rscale>
<asrwt>0</asrwt>
<pdfrwt beam="1">  1        2 0.43409678E+00 0.19998417E+04</pdfrwt>
<pdfrwt beam="2">  1       -2 0.29584386E+00 0.19998417E+04</pdfrwt>
<totfact> 0.66939181E-02</totfact>
</mgrwt>
</event>
<event>
 4    5  0.1112901E-007  0.6612924E+03  0.7818608E-02  0.1022870E+00
          2   -1    0    0  501    0  0.00000000000E+00  0.00000000000E+00  0.46656969237E+03  0.46656969237E+03  0.25500000000E-02 0. -1.
         -2   -1    0    0    0  501 -0.00000000000E+00 -0.00000000000E+00 -0.78767120875E+03  0.78767120875E+03  0.25500000000E-02 0.  1.
    8880023    1    1    2    0    0 -0.54621473120E+02  0.22668876327E+02 -0.62437226654E+03  0.90947694681E+03  0.65864270000E+03 0.  1.
    8880022    1    1    2    0    0  0.54621473120E+02 -0.22668876327E+02  0.30327075016E+03  0.34476395432E+03  0.15294330000E+03 0.  0.
<mgrwt>
<rscale>  0 0.46665082E+03</rscale>
<asrwt>0</asrwt>
<pdfrwt beam="1">  1        2 0.71779953E-01 0.66129236E+03</pdfrwt>
<pdfrwt beam="2">  1       -2 0.12118019E+00 0.66129236E+03</pdfrwt>
<totfact> 0.35228685E+01</totfact>
</mgrwt>
</event>
<event>
 4    5  0.1112901E-007  0.1104250E+04  0.7818608E-02  0.9256339E-01
          2   -1    0    0  501    0  0.00000000000E+00  0.00000000000E+00  0.63852053056E+03  0.63852053056E+03  0.25500000000E-02 0. -1.
         -2   -1    0    0    0  501 -0.00000000000E+00 -0.00000000000E+00 -0.18552444499E+04  0.18552444499E+04  0.25500000000E-02 0.  1.
    8880023    1    1    2    0    0  0.83654163753E+03  0.29284160813E+03 -0.11462046176E+04  0.15915883106E+04  0.65864270000E+03 0.  1.
    8880022    1    1    2    0    0 -0.83654163753E+03 -0.29284160813E+03 -0.70519301784E+02  0.90217666990E+03  0.15294330000E+03 0.  0.
<mgrwt>
<rscale>  0 0.10490370E+04</rscale>
<asrwt>0</asrwt>
<pdfrwt beam="1">  1        2 0.98233929E-01 0.11042501E+04</pdfrwt>
<pdfrwt beam="2">  1       -2 0.28542222E+00 0.11042501E+04</pdfrwt>
<totfact> 0.17788048E+00</totfact>
</mgrwt>
</event>
<event>
 4    5  0.1112901E-007  0.7038772E+03  0.7818608E-02  0.9981482E-01
          2   -1    0    0  501    0  0.00000000000E+00  0.00000000000E+00  0.85170019799E+03  0.85170019799E+03  0.25500000000E-02 0. -1.
         -2   -1    0    0    0  501 -0.00000000000E+00 -0.00000000000E+00 -0.39837227004E+03  0.39837227005E+03  0.25500000000E-02 0.  1.
    8880023    1    1    2    0    0  0.15081593755E+03  0.19719919809E+03 -0.84610389190E+01  0.70392809731E+03  0.65864270000E+03 0.  0.
    8880022    1    1    2    0    0 -0.15081593755E+03 -0.19719919809E+03  0.46178896686E+03  0.54614437073E+03  0.15294330000E+03 0.  0.
<mgrwt>
<rscale>  0 0.56469740E+03</rscale>
<asrwt>0</asrwt>
<pdfrwt beam="1">  1        2 0.13103080E+00 0.70387725E+03</pdfrwt>
<pdfrwt beam="2">  1       -2 0.61288043E-01 0.70387725E+03</pdfrwt>
<totfact> 0.79675964E+01</totfact>
</mgrwt>
</event>
<event>
 4    5  0.1112901E-007  0.9801321E+03  0.7818608E-02  0.9408025E-01
         -2   -1    0    0    0  501 -0.00000000000E+00  0.00000000000E+00  0.64119160639E+03  0.64119160640E+03  0.25500000000E-02 0.  1.
          2   -1    0    0  501    0  0.00000000000E+00 -0.00000000000E+00 -0.20122465417E+04  0.20122465417E+04  0.25500000000E-02 0. -1.
    8880023    1    1    2    0    0 -0.58769855572E+03 -0.42598015333E+03  0.12059877372E+03  0.98752364727E+03  0.65864270000E+03 0.  1.
    8880022    1    1    2    0    0  0.58769855572E+03  0.42598015333E+03 -0.14916537090E+04  0.16659145008E+04  0.15294330000E+03 0.  0.
<mgrwt>
<rscale>  0 0.91418166E+03</rscale>
<asrwt>0</asrwt>
<pdfrwt beam="1">  1        2 0.30957639E+00 0.98013208E+03</pdfrwt>
<pdfrwt beam="2">  1       -2 0.98644863E-01 0.98013208E+03</pdfrwt>
<totfact> 0.56289427E+00</totfact>
</mgrwt>
</event>
<event>
 4    5  0.1112901E-007  0.8940777E+03  0.7818608E-02  0.9535606E-01
         -2   -1    0    0    0  501 -0.00000000000E+00  0.00000000000E+00  0.71225811195E+03  0.71225811196E+03  0.25500000000E-02 0.  1.
          2   -1    0    0  501    0  0.00000000000E+00 -0.00000000000E+00 -0.13316998109E+04  0.13316998109E+04  0.25500000000E-02 0. -1.
    8880023    1    1    2    0    0  0.55674308970E+03 -0.23580059401E+03  0.29113063970E+03  0.94028295938E+03  0.65864270000E+03 0.  0.
    8880022    1    1    2    0    0 -0.55674308970E+03  0.23580059401E+03 -0.91057233861E+03  0.11036749634E+04  0.15294330000E+03 0.  0.
<mgrwt>
<rscale>  0 0.81708847E+03</rscale>
<asrwt>0</asrwt>
<pdfrwt beam="1">  1        2 0.20487689E+00 0.89407773E+03</pdfrwt>
<pdfrwt beam="2">  1       -2 0.10957817E+00 0.89407773E+03</pdfrwt>
<totfact> 0.10554995E+01</totfact>
</mgrwt>
</event>
<event>
 4    5  0.1112901E-007  0.6714602E+03  0.7818608E-02  0.1014637E+00
         -2   -1    0    0    0  501 -0.00000000000E+00  0.00000000000E+00  0.12153045340E+03  0.12153045343E+03  0.25500000000E-02 0.  1.
          2   -1    0    0  501    0  0.00000000000E+00 -0.00000000000E+00 -0.19554836350E+04  0.19554836350E+04  0.25500000000E-02 0. -1.
    8880023    1    1    2    0    0 -0.68583848644E+02  0.11110741895E+03 -0.90699923505E+03  0.11284974176E+04  0.65864270000E+03 0.  1.
    8880022    1    1    2    0    0  0.68583848644E+02 -0.11110741895E+03 -0.92695394658E+03  0.94851667088E+03  0.15294330000E+03 0.  0.
<mgrwt>
<rscale>  0 0.49672606E+03</rscale>
<asrwt>0</asrwt>
<pdfrwt beam="1">  1        2 0.30084361E+00 0.67146021E+03</pdfrwt>
<pdfrwt beam="2">  1       -2 0.18696994E-01 0.67146021E+03</pdfrwt>
<totfact> 0.17508629E+02</totfact>
</mgrwt>
</event>
<event>
 4    5  0.1112901E-007  0.9995258E+03  0.7818608E-02  0.9382178E-01
          2   -1    0    0  501    0  0.00000000000E+00  0.00000000000E+00  0.12801597117E+04  0.12801597117E+04  0.25500000000E-02 0. -1.
         -2   -1    0    0    0  501 -0.00000000000E+00 -0.00000000000E+00 -0.11798516198E+04  0.11798516199E+04  0.25500000000E-02 0.  1.
    8880023    1    1    2    0    0 -0.25523238717E+03 -0.70717615935E+03 -0.79775022762E+03  0.12788500005E+04  0.65864270000E+03 0.  0.
    8880022    1    1    2    0    0  0.25523238717E+03  0.70717615935E+03  0.89805831942E+03  0.11811613310E+04  0.15294330000E+03 0.  0.
<mgrwt>
<rscale>  0 0.93556965E+03</rscale>
<asrwt>0</asrwt>
<pdfrwt beam="1">  1        2 0.19694765E+00 0.99952584E+03</pdfrwt>
<pdfrwt beam="2">  1       -2 0.18151563E+00 0.99952584E+03</pdfrwt>
<totfact> 0.29808041E+00</totfact>
</mgrwt>
</event>
<event>
 4    5  0.1112901E-007  0.1592274E+04  0.7818608E-02  0.8847084E-01
         -2   -1    0    0    0  501 -0.00000000000E+00  0.00000000000E+00  0.21191736155E+04  0.21191736155E+04  0.25500000000E-02 0.  1.
          2   -1    0    0  501    0  0.00000000000E+00 -0.00000000000E+00 -0.15550944496E+04  0.15550944496E+04  0.25500000000E-02 0. -1.
    8880023    1    1    2    0    0  0.14496637885E+04 -0.86397660684E+00  0.12867938337E+04  0.20472358005E+04  0.65864270000E+03 0.  0.
    8880022    1    1    2    0    0 -0.14496637885E+04  0.86397660684E+00 -0.72271466782E+03  0.16270322646E+04  0.15294330000E+03 0.  0.
<mgrwt>
<rscale>  0 0.15575109E+04</rscale>
<asrwt>0</asrwt>
<pdfrwt beam="1">  1        2 0.23924530E+00 0.15922739E+04</pdfrwt>
<pdfrwt beam="2">  1       -2 0.32602671E+00 0.15922739E+04</pdfrwt>
<totfact> 0.24189833E-01</totfact>
</mgrwt>
</event>
<event>
 4    5  0.1112901E-007  0.7005417E+03  0.7818608E-02  0.9994961E-01
         -2   -1    0    0    0  501 -0.00000000000E+00  0.00000000000E+00  0.12785999100E+04  0.12785999100E+04  0.25500000000E-02 0.  1.
          2   -1    0    0  501    0  0.00000000000E+00 -0.00000000000E+00 -0.99127678260E+03  0.99127678260E+03  0.25500000000E-02 0. -1.
    8880023    1    1    2    0    0  0.23515473999E+03  0.40629592714E+02  0.11584501854E+04  0.13537967181E+04  0.65864270000E+03 0.  1.
    8880022    1    1    2    0    0 -0.23515473999E+03 -0.40629592714E+02 -0.87112705800E+03  0.91607997453E+03  0.15294330000E+03 0.  0.
<mgrwt>
<rscale>  0 0.55871728E+03</rscale>
<asrwt>0</asrwt>
<pdfrwt beam="1">  1        2 0.15250412E+00 0.70054173E+03</pdfrwt>
<pdfrwt beam="2">  1       -2 0.19670768E+00 0.70054173E+03</pdfrwt>
<totfact> 0.36792312E+00</totfact>
</mgrwt>
</event>
<event>
 4    5  0.1112901E-007  0.9231301E+03  0.7818608E-02  0.9489876E-01
          2   -1    0    0  501    0  0.00000000000E+00  0.00000000000E+00  0.21778711879E+04  0.21778711879E+04  0.25500000000E-02 0. -1.
         -2   -1    0    0    0  501 -0.00000000000E+00 -0.00000000000E+00 -0.43534029735E+03  0.43534029736E+03  0.25500000000E-02 0.  1.
    8880023    1    1    2    0    0 -0.58721749939E+03  0.27117247064E+03  0.21570830635E+03  0.94799745786E+03  0.65864270000E+03 0.  1.
    8880022    1    1    2    0    0  0.58721749939E+03 -0.27117247064E+03  0.15268225842E+04  0.16652140274E+04  0.15294330000E+03 0.  0.
<mgrwt>
<rscale>  0 0.85034333E+03</rscale>
<asrwt>0</asrwt>
<pdfrwt beam="1">  1        2 0.33505711E+00 0.92313006E+03</pdfrwt>
<pdfrwt beam="2">  1       -2 0.66975430E-01 0.92313006E+03</pdfrwt>
<totfact> 0.11038103E+01</totfact>
</mgrwt>
</event>
<event>
 4    5  0.1112901E-007  0.7352383E+03  0.7818608E-02  0.9874041E-01
          2   -1    0    0  501    0  0.00000000000E+00  0.00000000000E+00  0.33172440379E+04  0.33172440379E+04  0.25500000000E-02 0. -1.
         -2   -1    0    0    0  501 -0.00000000000E+00 -0.00000000000E+00 -0.21166627465E+03  0.21166627466E+03  0.25500000000E-02 0.  1.
    8880023    1    1    2    0    0 -0.24788071951E+03  0.21288554652E+03  0.47862759058E+03  0.87730250413E+03  0.65864270000E+03 0.  1.
    8880022    1    1    2    0    0  0.24788071951E+03 -0.21288554652E+03  0.26269501727E+04  0.26516078085E+04  0.15294330000E+03 0.  0.
<mgrwt>
<rscale>  0 0.61536022E+03</rscale>
<asrwt>0</asrwt>
<pdfrwt beam="1">  1        2 0.51034522E+00 0.73523827E+03</pdfrwt>
<pdfrwt beam="2">  1       -2 0.32564043E-01 0.73523827E+03</pdfrwt>
<totfact> 0.10257690E+01</totfact>
</mgrwt>
</event>
<event>
 4    5  0.1112901E-007  0.1309563E+04  0.7818608E-02  0.9057345E-01
         -2   -1    0    0    0  501 -0.00000000000E+00  0.00000000000E+00  0.31154141411E+04  0.31154141411E+04  0.25500000000E-02 0.  1.
          2   -1    0    0  501    0  0.00000000000E+00 -0.00000000000E+00 -0.50735982130E+03  0.50735982130E+03  0.25500000000E-02 0. -1.
    8880023    1    1    2    0    0  0.15079195731E+03  0.11217872962E+04  0.98745147154E+03  0.16401266924E+04  0.65864270000E+03 0. -1.
    8880022    1    1    2    0    0 -0.15079195731E+03 -0.11217872962E+04  0.16206028483E+04  0.19826472700E+04  0.15294330000E+03 0.  0.
<mgrwt>
<rscale>  0 0.12655428E+04</rscale>
<asrwt>0</asrwt>
<pdfrwt beam="1">  1        2 0.78055357E-01 0.13095630E+04</pdfrwt>
<pdfrwt beam="2">  1       -2 0.47929449E+00 0.13095630E+04</pdfrwt>
<totfact> 0.13195163E-01</totfact>
</mgrwt>
</event>
<event>
 4    5  0.1112901E-007  0.9029177E+03  0.7818608E-02  0.9521364E-01
         -2   -1    0    0    0  501 -0.00000000000E+00  0.00000000000E+00  0.13653598488E+04  0.13653598488E+04  0.25500000000E-02 0.  1.
          2   -1    0    0  501    0  0.00000000000E+00 -0.00000000000E+00 -0.68150428124E+03  0.68150428125E+03  0.25500000000E-02 0. -1.
    8880023    1    1    2    0    0  0.39780017705E+03 -0.47244598274E+03  0.99073428227E+03  0.13404532113E+04  0.65864270000E+03 0.  0.
    8880022    1    1    2    0    0 -0.39780017705E+03  0.47244598274E+03 -0.30687871473E+03  0.70641091869E+03  0.15294330000E+03 0.  0.
<mgrwt>
<rscale>  0 0.82726910E+03</rscale>
<asrwt>0</asrwt>
<pdfrwt beam="1">  1        2 0.10484681E+00 0.90291771E+03</pdfrwt>
<pdfrwt beam="2">  1       -2 0.21005536E+00 0.90291771E+03</pdfrwt>
<totfact> 0.48695183E+00</totfact>
</mgrwt>
</event>
<event>
 4    5  0.1112901E-007  0.1277021E+04  0.7818608E-02  0.9085662E-01
         -2   -1    0    0    0  501 -0.00000000000E+00  0.00000000000E+00  0.14917825026E+04  0.14917825026E+04  0.25500000000E-02 0.  1.
          2   -1    0    0  501    0  0.00000000000E+00 -0.00000000000E+00 -0.18624275597E+04  0.18624275597E+04  0.25500000000E-02 0. -1.
    8880023    1    1    2    0    0 -0.99770431402E+02 -0.10895033521E+04  0.97972189390E+03  0.16095455535E+04  0.65864270000E+03 0.  0.
    8880022    1    1    2    0    0  0.99770431402E+02  0.10895033521E+04 -0.13503669510E+04  0.17446645089E+04  0.15294330000E+03 0.  0.
<mgrwt>
<rscale>  0 0.12315714E+04</rscale>
<asrwt>0</asrwt>
<pdfrwt beam="1">  1        2 0.28652732E+00 0.12770207E+04</pdfrwt>
<pdfrwt beam="2">  1       -2 0.22950500E+00 0.12770207E+04</pdfrwt>
<totfact> 0.65991997E-01</totfact>
</mgrwt>
</event>
<event>
 4    5  0.1112901E-007  0.1569269E+04  0.7818608E-02  0.8862211E-01
          2   -1    0    0  501    0  0.00000000000E+00  0.00000000000E+00  0.21104002276E+04  0.21104002276E+04  0.25500000000E-02 0. -1.
         -2   -1    0    0    0  501 -0.00000000000E+00 -0.00000000000E+00 -0.11825146990E+04  0.11825146990E+04  0.25500000000E-02 0.  1.
    8880023    1    1    2    0    0 -0.14216299587E+04  0.88104864491E+02 -0.30119697056E+02  0.15695577750E+04  0.65864270000E+03 0. -1.
    8880022    1    1    2    0    0  0.14216299587E+04 -0.88104864491E+02  0.95800522569E+03  0.17233571516E+04  0.15294330000E+03 0.  0.
<mgrwt>
<rscale>  0 0.15339107E+04</rscale>
<asrwt>0</asrwt>
<pdfrwt beam="1">  1        2 0.32467696E+00 0.15692688E+04</pdfrwt>
<pdfrwt beam="2">  1       -2 0.18192534E+00 0.15692688E+04</pdfrwt>
<totfact> 0.95279987E-01</totfact>
</mgrwt>
</event>
<event>
 4    5  0.1112901E-007  0.6683096E+03  0.7818608E-02  0.1016905E+00
          2   -1    0    0  501    0  0.00000000000E+00  0.00000000000E+00  0.53557797545E+03  0.53557797545E+03  0.25500000000E-02 0. -1.
         -2   -1    0    0    0  501 -0.00000000000E+00 -0.00000000000E+00 -0.39856656460E+03  0.39856656461E+03  0.25500000000E-02 0.  1.
    8880023    1    1    2    0    0  0.57713246397E+02  0.97451194340E+02  0.24916021795E+03  0.71324510132E+03  0.65864270000E+03 0.  0.
    8880022    1    1    2    0    0 -0.57713246397E+02 -0.97451194340E+02 -0.11214880710E+03  0.22089943874E+03  0.15294330000E+03 0.  0.
<mgrwt>
<rscale>  0 0.48820324E+03</rscale>
<asrwt>0</asrwt>
<pdfrwt beam="1">  1        2 0.82396612E-01 0.66830963E+03</pdfrwt>
<pdfrwt beam="2">  1       -2 0.61317933E-01 0.66830963E+03</pdfrwt>
<totfact> 0.14256802E+02</totfact>
</mgrwt>
</event>
<event>
 4    5  0.1112901E-007  0.9268999E+03  0.7818608E-02  0.9484159E-01
         -2   -1    0    0    0  501 -0.00000000000E+00  0.00000000000E+00  0.11125227816E+04  0.11125227816E+04  0.25500000000E-02 0.  1.
          2   -1    0    0  501    0  0.00000000000E+00 -0.00000000000E+00 -0.89616518052E+03  0.89616518052E+03  0.25500000000E-02 0. -1.
    8880023    1    1    2    0    0  0.63683548607E+03 -0.14061917678E+03  0.71745914241E+03  0.11721309724E+04  0.65864270000E+03 0.  1.
    8880022    1    1    2    0    0 -0.63683548607E+03  0.14061917678E+03 -0.50110154137E+03  0.83655698968E+03  0.15294330000E+03 0.  0.
<mgrwt>
<rscale>  0 0.85461820E+03</rscale>
<asrwt>0</asrwt>
<pdfrwt beam="1">  1        2 0.13787157E+00 0.92689988E+03</pdfrwt>
<pdfrwt beam="2">  1       -2 0.17115735E+00 0.92689988E+03</pdfrwt>
<totfact> 0.61606380E+00</totfact>
</mgrwt>
</event>
<event>
 4    5  0.1112901E-007  0.1367031E+04  0.7818608E-02  0.9009733E-01
          2   -1    0    0  501    0  0.00000000000E+00  0.00000000000E+00  0.27684614855E+04  0.27684614855E+04  0.25500000000E-02 0. -1.
         -2   -1    0    0    0  501 -0.00000000000E+00 -0.00000000000E+00 -0.65793612261E+03  0.65793612262E+03  0.25500000000E-02 0.  1.
    8880023    1    1    2    0    0  0.22561318128E+03 -0.11764617558E+04  0.60113287515E+03  0.14933634890E+04  0.65864270000E+03 0.  0.
    8880022    1    1    2    0    0 -0.22561318128E+03  0.11764617558E+04  0.15093924877E+04  0.19330341191E+04  0.15294330000E+03 0.  0.
<mgrwt>
<rscale>  0 0.13253076E+04</rscale>
<asrwt>0</asrwt>
<pdfrwt beam="1">  1        2 0.42591715E+00 0.13670310E+04</pdfrwt>
<pdfrwt beam="2">  1       -2 0.10122094E+00 0.13670310E+04</pdfrwt>
<totfact> 0.18765964E+00</totfact>
</mgrwt>
</event>
<event>
 4    5  0.1112901E-007  0.1634644E+04  0.7818608E-02  0.8819982E-01
          2   -1    0    0  501    0  0.00000000000E+00  0.00000000000E+00  0.31818329096E+04  0.31818329096E+04  0.25500000000E-02 0. -1.
         -2   -1    0    0    0  501 -0.00000000000E+00 -0.00000000000E+00 -0.12703598890E+04  0.12703598890E+04  0.25500000000E-02 0.  1.
    8880023    1    1    2    0    0  0.10828150067E+03 -0.14921544357E+04 -0.41082492889E+03  0.16854782917E+04  0.65864270000E+03 0.  0.
    8880022    1    1    2    0    0 -0.10828150067E+03  0.14921544357E+04  0.23222979495E+04  0.27667145069E+04  0.15294330000E+03 0.  0.
<mgrwt>
<rscale>  0 0.16009224E+04</rscale>
<asrwt>0</asrwt>
<pdfrwt beam="1">  1        2 0.48951275E+00 0.16346437E+04</pdfrwt>
<pdfrwt beam="2">  1       -2 0.19543998E+00 0.16346437E+04</pdfrwt>
<totfact> 0.17652230E-01</totfact>
</mgrwt>
</event>
<event>
 4    5  0.1112901E-007  0.6631964E+03  0.7818608E-02  0.1021097E+00
         -2   -1    0    0    0  501 -0.00000000000E+00  0.00000000000E+00  0.17747373118E+03  0.17747373120E+03  0.25500000000E-02 0.  1.
          2   -1    0    0  501    0  0.00000000000E+00 -0.00000000000E+00 -0.20727427021E+04  0.20727427021E+04  0.25500000000E-02 0. -1.
    8880023    1    1    2    0    0 -0.49380163372E+02 -0.59840314970E+02 -0.46564355577E+03  0.81034152746E+03  0.65864270000E+03 0.  1.
    8880022    1    1    2    0    0  0.49380163372E+02  0.59840314970E+02 -0.14296254151E+04  0.14398749058E+04  0.15294330000E+03 0.  0.
<mgrwt>
<rscale>  0 0.47292818E+03</rscale>
<asrwt>0</asrwt>
<pdfrwt beam="1">  1        2 0.31888348E+00 0.66319640E+03</pdfrwt>
<pdfrwt beam="2">  1       -2 0.27303652E-01 0.66319640E+03</pdfrwt>
<totfact> 0.77226440E+01</totfact>
</mgrwt>
</event>
<event>
 4    5  0.1112901E-007  0.8694630E+03  0.7818608E-02  0.9576947E-01
          2   -1    0    0  501    0  0.00000000000E+00  0.00000000000E+00  0.24588796091E+04  0.24588796091E+04  0.25500000000E-02 0. -1.
         -2   -1    0    0    0  501 -0.00000000000E+00 -0.00000000000E+00 -0.10855829980E+04  0.10855829980E+04  0.25500000000E-02 0.  1.
    8880023    1    1    2    0    0 -0.45259899116E+03 -0.34250533486E+03 -0.86727648456E+03  0.12280612599E+04  0.65864270000E+03 0.  1.
    8880022    1    1    2    0    0  0.45259899116E+03  0.34250533486E+03  0.22405730956E+04  0.23164013471E+04  0.15294330000E+03 0.  0.
<mgrwt>
<rscale>  0 0.78840940E+03</rscale>
<asrwt>0</asrwt>
<pdfrwt beam="1">  1        2 0.37828916E+00 0.86946303E+03</pdfrwt>
<pdfrwt beam="2">  1       -2 0.16701277E+00 0.86946303E+03</pdfrwt>
<totfact> 0.84604006E-01</totfact>
</mgrwt>
</event>
<event>
 4    5  0.1112901E-007  0.9113746E+03  0.7818608E-02  0.9508013E-01
         -2   -1    0    0    0  501 -0.00000000000E+00  0.00000000000E+00  0.10855114066E+04  0.10855114066E+04  0.25500000000E-02 0.  1.
          2   -1    0    0  501    0  0.00000000000E+00 -0.00000000000E+00 -0.13681164051E+04  0.13681164051E+04  0.25500000000E-02 0. -1.
    8880023    1    1    2    0    0 -0.62206642534E+03  0.99129850104E+02  0.78619389558E+03  0.12036213742E+04  0.65864270000E+03 0.  0.
    8880022    1    1    2    0    0  0.62206642534E+03 -0.99129850104E+02 -0.10687988941E+04  0.12500064375E+04  0.15294330000E+03 0.  0.
<mgrwt>
<rscale>  0 0.83695622E+03</rscale>
<asrwt>0</asrwt>
<pdfrwt beam="1">  1        2 0.21047945E+00 0.91137455E+03</pdfrwt>
<pdfrwt beam="2">  1       -2 0.16700175E+00 0.91137455E+03</pdfrwt>
<totfact> 0.33886814E+00</totfact>
</mgrwt>
</event>
<event>
 4    5  0.1112901E-007  0.8334593E+03  0.7818608E-02  0.9642639E-01
         -2   -1    0    0    0  501 -0.00000000000E+00  0.00000000000E+00  0.48009297321E+03  0.48009297322E+03  0.25500000000E-02 0.  1.
          2   -1    0    0  501    0  0.00000000000E+00 -0.00000000000E+00 -0.18743674429E+04  0.18743674429E+04  0.25500000000E-02 0. -1.
    8880023    1    1    2    0    0  0.26335696161E+03  0.43759262769E+03  0.29664920369E+02  0.83398705673E+03  0.65864270000E+03 0.  0.
    8880022    1    1    2    0    0 -0.26335696161E+03 -0.43759262769E+03 -0.14239393900E+04  0.15204733593E+04  0.15294330000E+03 0.  0.
<mgrwt>
<rscale>  0 0.74537214E+03</rscale>
<asrwt>0</asrwt>
<pdfrwt beam="1">  1        2 0.28836422E+00 0.83345930E+03</pdfrwt>
<pdfrwt beam="2">  1       -2 0.73860458E-01 0.83345930E+03</pdfrwt>
<totfact> 0.13228000E+01</totfact>
</mgrwt>
</event>
<event>
 4    5  0.1112901E-007  0.6636099E+03  0.7818608E-02  0.1020729E+00
         -2   -1    0    0    0  501 -0.00000000000E+00  0.00000000000E+00  0.52023911553E+03  0.52023911554E+03  0.25500000000E-02 0.  1.
          2   -1    0    0  501    0  0.00000000000E+00 -0.00000000000E+00 -0.10446724483E+04  0.10446724483E+04  0.25500000000E-02 0. -1.
    8880023    1    1    2    0    0  0.62914591287E+02 -0.51084157079E+02  0.29584605767E+03  0.72656928988E+03  0.65864270000E+03 0.  1.
    8880022    1    1    2    0    0 -0.62914591287E+02  0.51084157079E+02 -0.82027939042E+03  0.83834227393E+03  0.15294330000E+03 0.  0.
<mgrwt>
<rscale>  0 0.47424354E+03</rscale>
<asrwt>0</asrwt>
<pdfrwt beam="1">  1        2 0.16071884E+00 0.66360986E+03</pdfrwt>
<pdfrwt beam="2">  1       -2 0.80036787E-01 0.66360986E+03</pdfrwt>
<totfact> 0.33408790E+01</totfact>
</mgrwt>
</event>
<event>
 4    5  0.1112901E-007  0.8384322E+03  0.7818608E-02  0.9633144E-01
         -2   -1    0    0    0  501 -0.00000000000E+00  0.00000000000E+00  0.48767721341E+03  0.48767721342E+03  0.25500000000E-02 0.  1.
          2   -1    0    0  501    0  0.00000000000E+00 -0.00000000000E+00 -0.11561177783E+04  0.11561177783E+04  0.25500000000E-02 0. -1.
    8880023    1    1    2    0    0  0.27091338739E+03  0.44245259411E+03 -0.76434583010E+02  0.84190902908E+03  0.65864270000E+03 0.  0.
    8880022    1    1    2    0    0 -0.27091338739E+03 -0.44245259411E+03 -0.59200598188E+03  0.80188596265E+03  0.15294330000E+03 0.  0.
<mgrwt>
<rscale>  0 0.75140829E+03</rscale>
<asrwt>0</asrwt>
<pdfrwt beam="1">  1        2 0.17786427E+00 0.83843221E+03</pdfrwt>
<pdfrwt beam="2">  1       -2 0.75027264E-01 0.83843221E+03</pdfrwt>
<totfact> 0.32419889E+01</totfact>
</mgrwt>
</event>
<event>
 4    5  0.1112901E-007  0.6636812E+03  0.7818608E-02  0.1020666E+00
          2   -1    0    0  501    0  0.00000000000E+00  0.00000000000E+00  0.14303399878E+04  0.14303399878E+04  0.25500000000E-02 0. -1.
         -2   -1    0    0    0  501 -0.00000000000E+00 -0.00000000000E+00 -0.17428302574E+03  0.17428302576E+03  0.25500000000E-02 0.  1.
    8880023    1    1    2    0    0  0.79890988904E+02  0.16733366093E+02  0.50539972671E+03  0.83420720787E+03  0.65864270000E+03 0.  1.
    8880022    1    1    2    0    0 -0.79890988904E+02 -0.16733366093E+02  0.75065723533E+03  0.77041580566E+03  0.15294330000E+03 0.  0.
<mgrwt>
<rscale>  0 0.47446901E+03</rscale>
<asrwt>0</asrwt>
<pdfrwt beam="1">  1        2 0.22005231E+00 0.66368124E+03</pdfrwt>
<pdfrwt beam="2">  1       -2 0.26812773E-01 0.66368124E+03</pdfrwt>
<totfact> 0.17919432E+02</totfact>
</mgrwt>
</event>
<event>
 4    5  0.1112901E-007  0.9565676E+03  0.7818608E-02  0.9440727E-01
         -2   -1    0    0    0  501 -0.00000000000E+00  0.00000000000E+00  0.20292132993E+04  0.20292132993E+04  0.25500000000E-02 0.  1.
          2   -1    0    0  501    0  0.00000000000E+00 -0.00000000000E+00 -0.83559437223E+03  0.83559437223E+03  0.25500000000E-02 0. -1.
    8880023    1    1    2    0    0  0.69297696182E+03  0.31531845560E+02  0.17285408549E+04  0.19755695433E+04  0.65864270000E+03 0.  1.
    8880022    1    1    2    0    0 -0.69297696182E+03 -0.31531845560E+02 -0.53492192783E+03  0.88923812828E+03  0.15294330000E+03 0.  0.
<mgrwt>
<rscale>  0 0.88798467E+03</rscale>
<asrwt>0</asrwt>
<pdfrwt beam="1">  1        2 0.12855298E+00 0.95656758E+03</pdfrwt>
<pdfrwt beam="2">  1       -2 0.31218666E+00 0.95656758E+03</pdfrwt>
<totfact> 0.87999891E-01</totfact>
</mgrwt>
</event>
<event>
 4    5  0.1112901E-007  0.1253702E+04  0.7818608E-02  0.9106609E-01
          2   -1    0    0  501    0  0.00000000000E+00  0.00000000000E+00  0.98878859504E+03  0.98878859504E+03  0.25500000000E-02 0. -1.
         -2   -1    0    0    0  501 -0.00000000000E+00 -0.00000000000E+00 -0.20615006825E+04  0.20615006825E+04  0.25500000000E-02 0.  1.
    8880023    1    1    2    0    0 -0.57717500664E+03 -0.89712241147E+03 -0.14422947155E+04  0.19110164474E+04  0.65864270000E+03 0.  0.
    8880022    1    1    2    0    0  0.57717500664E+03  0.89712241147E+03  0.36958262810E+03  0.11392728301E+04  0.15294330000E+03 0.  0.
<mgrwt>
<rscale>  0 0.12071641E+04</rscale>
<asrwt>0</asrwt>
<pdfrwt beam="1">  1        2 0.15212132E+00 0.12537024E+04</pdfrwt>
<pdfrwt beam="2">  1       -2 0.31715395E+00 0.12537024E+04</pdfrwt>
<totfact> 0.62170205E-01</totfact>
</mgrwt>
</event>
<event>
 4    5  0.2219124E-007  0.8172711E+03  0.7818608E-02  0.9674626E-01
          2   -1    0    0  501    0  0.00000000000E+00  0.00000000000E+00  0.22115424857E+04  0.22115424857E+04  0.25500000000E-02 0. -1.
         -2   -1    0    0    0  501 -0.00000000000E+00 -0.00000000000E+00 -0.31846594880E+04  0.31846594880E+04  0.25500000000E-02 0.  1.
    8880023    1    1    2    0    0 -0.24316506304E+03 -0.41832119084E+03 -0.31019063043E+04  0.32077647659E+04  0.65864270000E+03 0.  1.
    8880022    1    1    2    0    0  0.24316506304E+03  0.41832119084E+03  0.21287893020E+04  0.21884372077E+04  0.15294330000E+03 0.  0.
<mgrwt>
<rscale>  0 0.72547862E+03</rscale>
<asrwt>0</asrwt>
<pdfrwt beam="1">  1        2 0.34023730E+00 0.81727111E+03</pdfrwt>
<pdfrwt beam="2">  1       -2 0.48994762E+00 0.81727111E+03</pdfrwt>
<totfact> 0.10388032E-02</totfact>
</mgrwt>
</event>
<event>
 4    5  0.1112901E-007  0.7686129E+03  0.7818608E-02  0.9783299E-01
         -2   -1    0    0    0  501 -0.00000000000E+00  0.00000000000E+00  0.40992188375E+03  0.40992188376E+03  0.25500000000E-02 0.  1.
          2   -1    0    0  501    0  0.00000000000E+00 -0.00000000000E+00 -0.14947948939E+04  0.14947948939E+04  0.25500000000E-02 0. -1.
    8880023    1    1    2    0    0  0.39596603618E+03 -0.12901056961E+02 -0.31835550874E+02  0.76927189448E+03  0.65864270000E+03 0.  1.
    8880022    1    1    2    0    0 -0.39596603618E+03  0.12901056961E+02 -0.10530374593E+04  0.11354448832E+04  0.15294330000E+03 0.  0.
<mgrwt>
<rscale>  0 0.66266558E+03</rscale>
<asrwt>0</asrwt>
<pdfrwt beam="1">  1        2 0.22996844E+00 0.76861287E+03</pdfrwt>
<pdfrwt beam="2">  1       -2 0.63064906E-01 0.76861287E+03</pdfrwt>
<totfact> 0.30395763E+01</totfact>
</mgrwt>
</event>
<event>
 4    5  0.1112901E-007  0.7157776E+03  0.7818608E-02  0.9937141E-01
         -2   -1    0    0    0  501 -0.00000000000E+00  0.00000000000E+00  0.16927790875E+03  0.16927790877E+03  0.25500000000E-02 0.  1.
          2   -1    0    0  501    0  0.00000000000E+00 -0.00000000000E+00 -0.19720809680E+04  0.19720809680E+04  0.25500000000E-02 0. -1.
    8880023    1    1    2    0    0 -0.16454645180E+03  0.22682986506E+03 -0.16256499015E+04  0.17762531157E+04  0.65864270000E+03 0.  0.
    8880022    1    1    2    0    0  0.16454645180E+03 -0.22682986506E+03 -0.17715315782E+03  0.36510576115E+03  0.15294330000E+03 0.  0.
<mgrwt>
<rscale>  0 0.58494555E+03</rscale>
<asrwt>0</asrwt>
<pdfrwt beam="1">  1        2 0.30339706E+00 0.71577757E+03</pdfrwt>
<pdfrwt beam="2">  1       -2 0.26042757E-01 0.71577757E+03</pdfrwt>
<totfact> 0.94890705E+01</totfact>
</mgrwt>
</event>
<event>
 4    5  0.1112901E-007  0.8034826E+03  0.7818608E-02  0.9703316E-01
          2   -1    0    0  501    0  0.00000000000E+00  0.00000000000E+00  0.20407179918E+04  0.20407179918E+04  0.25500000000E-02 0. -1.
         -2   -1    0    0    0  501 -0.00000000000E+00 -0.00000000000E+00 -0.26385333879E+03  0.26385333881E+03  0.25500000000E-02 0.  1.
    8880023    1    1    2    0    0 -0.31411223090E+03 -0.33631482195E+03  0.51915944240E+03  0.95661428275E+03  0.65864270000E+03 0.  1.
    8880022    1    1    2    0    0  0.31411223090E+03  0.33631482195E+03  0.12577052106E+04  0.13479570478E+04  0.15294330000E+03 0.  0.
<mgrwt>
<rscale>  0 0.70819710E+03</rscale>
<asrwt>0</asrwt>
<pdfrwt beam="1">  1        2 0.31395662E+00 0.80348264E+03</pdfrwt>
<pdfrwt beam="2">  1       -2 0.40592820E-01 0.80348264E+03</pdfrwt>
<totfact> 0.37365853E+01</totfact>
</mgrwt>
</event>
<event>
 4    5  0.1112901E-007  0.1534324E+04  0.7818608E-02  0.8885771E-01
          2   -1    0    0  501    0  0.00000000000E+00  0.00000000000E+00  0.18464454672E+04  0.18464454672E+04  0.25500000000E-02 0. -1.
         -2   -1    0    0    0  501 -0.00000000000E+00 -0.00000000000E+00 -0.12749649125E+04  0.12749649125E+04  0.25500000000E-02 0.  1.
    8880023    1    1    2    0    0  0.42062652178E+03  0.13203833851E+04 -0.16759299514E+03  0.15434495692E+04  0.65864270000E+03 0.  0.
    8880022    1    1    2    0    0 -0.42062652178E+03 -0.13203833851E+04  0.73907354981E+03  0.15779608105E+04  0.15294330000E+03 0.  0.
<mgrwt>
<rscale>  0 0.14980188E+04</rscale>
<asrwt>0</asrwt>
<pdfrwt beam="1">  1        2 0.28406853E+00 0.15343237E+04</pdfrwt>
<pdfrwt beam="2">  1       -2 0.19614845E+00 0.15343237E+04</pdfrwt>
<totfact> 0.10746495E+00</totfact>
</mgrwt>
</event>
<event>
 4    5  0.1112901E-007  0.7073188E+03  0.7818608E-02  0.9968095E-01
         -2   -1    0    0    0  501 -0.00000000000E+00  0.00000000000E+00  0.76664119372E+03  0.76664119372E+03  0.25500000000E-02 0.  1.
          2   -1    0    0  501    0  0.00000000000E+00 -0.00000000000E+00 -0.13720728907E+04  0.13720728907E+04  0.25500000000E-02 0. -1.
    8880023    1    1    2    0    0  0.25590273334E+03 -0.31677552106E+02  0.58077697953E+03  0.91520586889E+03  0.65864270000E+03 0.  1.
    8880022    1    1    2    0    0 -0.25590273334E+03  0.31677552106E+02 -0.11862086765E+04  0.12235082155E+04  0.15294330000E+03 0.  0.
<mgrwt>
<rscale>  0 0.57071605E+03</rscale>
<asrwt>0</asrwt>
<pdfrwt beam="1">  1        2 0.21108814E+00 0.70731880E+03</pdfrwt>
<pdfrwt beam="2">  1       -2 0.11794480E+00 0.70731880E+03</pdfrwt>
<totfact> 0.85605779E+00</totfact>
</mgrwt>
</event>
<event>
 4    5  0.1613264E-007  0.1054298E+04  0.7818608E-02  0.9313732E-01
         -2   -1    0    0    0  501 -0.00000000000E+00  0.00000000000E+00  0.13873060708E+04  0.13873060708E+04  0.25500000000E-02 0.  1.
          2   -1    0    0  501    0  0.00000000000E+00 -0.00000000000E+00 -0.33508864382E+04  0.33508864382E+04  0.25500000000E-02 0. -1.
    8880023    1    1    2    0    0 -0.46611110028E+03 -0.67858311345E+03  0.11228247515E+04  0.15402208376E+04  0.65864270000E+03 0.  1.
    8880022    1    1    2    0    0  0.46611110028E+03  0.67858311345E+03 -0.30864051189E+04  0.31979716714E+04  0.15294330000E+03 0.  0.
<mgrwt>
<rscale>  0 0.99528428E+03</rscale>
<asrwt>0</asrwt>
<pdfrwt beam="1">  1        2 0.51552099E+00 0.10542983E+04</pdfrwt>
<pdfrwt beam="2">  1       -2 0.21343170E+00 0.10542983E+04</pdfrwt>
<totfact> 0.11391190E-01</totfact>
</mgrwt>
</event>
<event>
 4    5  0.1112901E-007  0.8602997E+03  0.7818608E-02  0.9593031E-01
          2   -1    0    0  501    0  0.00000000000E+00  0.00000000000E+00  0.19293622874E+04  0.19293622874E+04  0.25500000000E-02 0. -1.
         -2   -1    0    0    0  501 -0.00000000000E+00 -0.00000000000E+00 -0.81425805541E+03  0.81425805541E+03  0.25500000000E-02 0.  1.
    8880023    1    1    2    0    0 -0.22345948067E+03  0.50633114098E+03 -0.52368187422E+03  0.10071535511E+04  0.65864270000E+03 0.  0.
    8880022    1    1    2    0    0  0.22345948067E+03 -0.50633114098E+03  0.16387861063E+04  0.17364667918E+04  0.15294330000E+03 0.  0.
<mgrwt>
<rscale>  0 0.77759186E+03</rscale>
<asrwt>0</asrwt>
<pdfrwt beam="1">  1        2 0.29682496E+00 0.86029970E+03</pdfrwt>
<pdfrwt beam="2">  1       -2 0.12527047E+00 0.86029970E+03</pdfrwt>
<totfact> 0.35467475E+00</totfact>
</mgrwt>
</event>
<event>
 4    5  0.1112901E-007  0.7224526E+03  0.7818608E-02  0.9914373E-01
         -2   -1    0    0    0  501 -0.00000000000E+00  0.00000000000E+00  0.85696380666E+03  0.85696380667E+03  0.25500000000E-02 0.  1.
          2   -1    0    0  501    0  0.00000000000E+00 -0.00000000000E+00 -0.95462333887E+03  0.95462333887E+03  0.25500000000E-02 0. -1.
    8880023    1    1    2    0    0  0.15435544807E+03  0.25357818395E+03  0.66318016579E+03  0.98068630983E+03  0.65864270000E+03 0.  1.
    8880022    1    1    2    0    0 -0.15435544807E+03 -0.25357818395E+03 -0.76083969799E+03  0.83090083571E+03  0.15294330000E+03 0.  0.
<mgrwt>
<rscale>  0 0.59569737E+03</rscale>
<asrwt>0</asrwt>
<pdfrwt beam="1">  1        2 0.14686513E+00 0.72245256E+03</pdfrwt>
<pdfrwt beam="2">  1       -2 0.13184059E+00 0.72245256E+03</pdfrwt>
<totfact> 0.11525411E+01</totfact>
</mgrwt>
</event>
<event>
 4    5  0.1112901E-007  0.7496572E+03  0.7818608E-02  0.9832659E-01
         -2   -1    0    0    0  501 -0.00000000000E+00  0.00000000000E+00  0.56225133219E+03  0.56225133220E+03  0.25500000000E-02 0.  1.
          2   -1    0    0  501    0  0.00000000000E+00 -0.00000000000E+00 -0.74704333126E+03  0.74704333126E+03  0.25500000000E-02 0. -1.
    8880023    1    1    2    0    0 -0.11588756240E+03  0.33874156486E+03  0.18521464318E+03  0.77219844936E+03  0.65864270000E+03 0.  0.
    8880022    1    1    2    0    0  0.11588756240E+03 -0.33874156486E+03 -0.37000664225E+03  0.53709621410E+03  0.15294330000E+03 0.  0.
<mgrwt>
<rscale>  0 0.63638919E+03</rscale>
<asrwt>0</asrwt>
<pdfrwt beam="1">  1        2 0.11492974E+00 0.74965724E+03</pdfrwt>
<pdfrwt beam="2">  1       -2 0.86500204E-01 0.74965724E+03</pdfrwt>
<totfact> 0.44222463E+01</totfact>
</mgrwt>
</event>
<event>
 4    5  0.1112901E-007  0.6651949E+03  0.7818608E-02  0.1019370E+00
         -2   -1    0    0    0  501 -0.00000000000E+00  0.00000000000E+00  0.10796578783E+03  0.10796578786E+03  0.25500000000E-02 0.  1.
          2   -1    0    0  501    0  0.00000000000E+00 -0.00000000000E+00 -0.33330874387E+04  0.33330874387E+04  0.25500000000E-02 0. -1.
    8880023    1    1    2    0    0  0.99203096636E+01 -0.92604989967E+02 -0.95473871445E+03  0.11636194893E+04  0.65864270000E+03 0.  1.
    8880022    1    1    2    0    0 -0.99203096636E+01  0.92604989967E+02 -0.22703829364E+04  0.22774337372E+04  0.15294330000E+03 0.  0.
<mgrwt>
<rscale>  0 0.47914491E+03</rscale>
<asrwt>0</asrwt>
<pdfrwt beam="1">  1        2 0.51278260E+00 0.66519494E+03</pdfrwt>
<pdfrwt beam="2">  1       -2 0.16610124E-01 0.66519494E+03</pdfrwt>
<totfact> 0.33802214E+01</totfact>
</mgrwt>
</event>
<event>
 4    5  0.1112901E-007  0.7359307E+03  0.7818608E-02  0.9871963E-01
          2   -1    0    0  501    0  0.00000000000E+00  0.00000000000E+00  0.14616870276E+04  0.14616870276E+04  0.25500000000E-02 0. -1.
         -2   -1    0    0    0  501 -0.00000000000E+00 -0.00000000000E+00 -0.32981682998E+03  0.32981682999E+03  0.25500000000E-02 0.  1.
    8880023    1    1    2    0    0  0.29867094345E+03  0.13630639855E+03  0.15832170949E+03  0.75276804974E+03  0.65864270000E+03 0.  1.
    8880022    1    1    2    0    0 -0.29867094345E+03 -0.13630639855E+03  0.97354848810E+03  0.10387358078E+04  0.15294330000E+03 0.  0.
<mgrwt>
<rscale>  0 0.61639519E+03</rscale>
<asrwt>0</asrwt>
<pdfrwt beam="1">  1        2 0.22487492E+00 0.73593068E+03</pdfrwt>
<pdfrwt beam="2">  1       -2 0.50741051E-01 0.73593068E+03</pdfrwt>
<totfact> 0.50111003E+01</totfact>
</mgrwt>
</event>
<event>
 4    5  0.1112901E-007  0.7535216E+03  0.7818608E-02  0.9822177E-01
         -2   -1    0    0    0  501 -0.00000000000E+00  0.00000000000E+00  0.35395383103E+03  0.35395383104E+03  0.25500000000E-02 0.  1.
          2   -1    0    0  501    0  0.00000000000E+00 -0.00000000000E+00 -0.16970210281E+04  0.16970210282E+04  0.25500000000E-02 0. -1.
    8880023    1    1    2    0    0  0.38688807652E+02 -0.36398875670E+03 -0.11728244580E+03  0.76259426774E+03  0.65864270000E+03 0.  0.
    8880022    1    1    2    0    0 -0.38688807652E+02  0.36398875670E+03 -0.12257847513E+04  0.12883805914E+04  0.15294330000E+03 0.  0.
<mgrwt>
<rscale>  0 0.64185837E+03</rscale>
<asrwt>0</asrwt>
<pdfrwt beam="1">  1        2 0.26108015E+00 0.75352163E+03</pdfrwt>
<pdfrwt beam="2">  1       -2 0.54454437E-01 0.75352163E+03</pdfrwt>
<totfact> 0.32061932E+01</totfact>
</mgrwt>
</event>
<event>
 4    5  0.1112901E-007  0.1546324E+04  0.7818608E-02  0.8877599E-01
         -2   -1    0    0    0  501 -0.00000000000E+00  0.00000000000E+00  0.16713547955E+04  0.16713547955E+04  0.25500000000E-02 0.  1.
          2   -1    0    0  501    0  0.00000000000E+00 -0.00000000000E+00 -0.19935778757E+04  0.19935778757E+04  0.25500000000E-02 0. -1.
    8880023    1    1    2    0    0 -0.93261507229E+03  0.10428508121E+04 -0.12422599015E+04  0.19835141941E+04  0.65864270000E+03 0.  0.
    8880022    1    1    2    0    0  0.93261507229E+03 -0.10428508121E+04  0.92003682128E+03  0.16814184770E+04  0.15294330000E+03 0.  0.
<mgrwt>
<rscale>  0 0.15103506E+04</rscale>
<asrwt>0</asrwt>
<pdfrwt beam="1">  1        2 0.30670429E+00 0.15463243E+04</pdfrwt>
<pdfrwt beam="2">  1       -2 0.25713151E+00 0.15463243E+04</pdfrwt>
<totfact> 0.36505322E-01</totfact>
</mgrwt>
</event>
<event>
 4    5  0.1112901E-007  0.6735763E+03  0.7818608E-02  0.1013219E+00
          2   -1    0    0  501    0  0.00000000000E+00  0.00000000000E+00  0.91407093815E+03  0.91407093815E+03  0.25500000000E-02 0. -1.
         -2   -1    0    0    0  501 -0.00000000000E+00 -0.00000000000E+00 -0.24197616364E+03  0.24197616365E+03  0.25500000000E-02 0.  1.
    8880023    1    1    2    0    0 -0.13851398029E+02 -0.14036715026E+03  0.66698348661E+03  0.94793036441E+03  0.65864270000E+03 0. -1.
    8880022    1    1    2    0    0  0.13851398029E+02  0.14036715026E+03  0.51112878982E+01  0.20811673738E+03  0.15294330000E+03 0.  0.
<mgrwt>
<rscale>  0 0.50215072E+03</rscale>
<asrwt>0</asrwt>
<pdfrwt beam="1">  1        2 0.14062630E+00 0.67357628E+03</pdfrwt>
<pdfrwt beam="2">  1       -2 0.37227102E-01 0.67357628E+03</pdfrwt>
<totfact> 0.19796335E+02</totfact>
</mgrwt>
</event>
<event>
 4    5  0.1112901E-007  0.9550670E+03  0.7818608E-02  0.9442861E-01
          2   -1    0    0  501    0  0.00000000000E+00  0.00000000000E+00  0.34333113236E+04  0.34333113236E+04  0.25500000000E-02 0. -1.
         -2   -1    0    0    0  501 -0.00000000000E+00 -0.00000000000E+00 -0.20225594725E+03  0.20225594727E+03  0.25500000000E-02 0.  1.
    8880023    1    1    2    0    0  0.23144215108E+03 -0.65174944204E+03  0.19659907180E+04  0.21856972603E+04  0.65864270000E+03 0.  0.
    8880022    1    1    2    0    0 -0.23144215108E+03  0.65174944204E+03  0.12650646584E+04  0.14498700105E+04  0.15294330000E+03 0. -1.
<mgrwt>
<rscale>  0 0.88630791E+03</rscale>
<asrwt>0</asrwt>
<pdfrwt beam="1">  1        2 0.52820170E+00 0.95506702E+03</pdfrwt>
<pdfrwt beam="2">  1       -2 0.31116302E-01 0.95506702E+03</pdfrwt>
<totfact> 0.90173888E+00</totfact>
</mgrwt>
</event>
<event>
 4    5  0.1112901E-007  0.7376609E+03  0.7818608E-02  0.9866814E-01
         -2   -1    0    0    0  501 -0.00000000000E+00  0.00000000000E+00  0.35795405010E+03  0.35795405011E+03  0.25500000000E-02 0.  1.
          2   -1    0    0  501    0  0.00000000000E+00 -0.00000000000E+00 -0.16273018741E+04  0.16273018741E+04  0.25500000000E-02 0. -1.
    8880023    1    1    2    0    0  0.33040905124E+03  0.34105727227E+02 -0.81211769952E+02  0.74211784752E+03  0.65864270000E+03 0.  1.
    8880022    1    1    2    0    0 -0.33040905124E+03 -0.34105727227E+02 -0.11881360541E+04  0.12431380767E+04  0.15294330000E+03 0.  0.
<mgrwt>
<rscale>  0 0.61896933E+03</rscale>
<asrwt>0</asrwt>
<pdfrwt beam="1">  1        2 0.25035413E+00 0.73766086E+03</pdfrwt>
<pdfrwt beam="2">  1       -2 0.55069855E-01 0.73766086E+03</pdfrwt>
<totfact> 0.34270811E+01</totfact>
</mgrwt>
</event>
<event>
 4    5  0.1112901E-007  0.9334958E+03  0.7818608E-02  0.9474269E-01
         -2   -1    0    0    0  501 -0.00000000000E+00  0.00000000000E+00  0.78864131391E+03  0.78864131391E+03  0.25500000000E-02 0.  1.
          2   -1    0    0  501    0  0.00000000000E+00 -0.00000000000E+00 -0.17412725954E+04  0.17412725954E+04  0.25500000000E-02 0. -1.
    8880023    1    1    2    0    0 -0.56746075011E+03 -0.33998892823E+03  0.40066228945E+03  0.10158467654E+04  0.65864270000E+03 0.  0.
    8880022    1    1    2    0    0  0.56746075011E+03  0.33998892823E+03 -0.13532935709E+04  0.15140671440E+04  0.15294330000E+03 0.  0.
<mgrwt>
<rscale>  0 0.86207767E+03</rscale>
<asrwt>0</asrwt>
<pdfrwt beam="1">  1        2 0.26788809E+00 0.93349578E+03</pdfrwt>
<pdfrwt beam="2">  1       -2 0.12132943E+00 0.93349578E+03</pdfrwt>
<totfact> 0.48249090E+00</totfact>
</mgrwt>
</event>
<event>
 4    5  0.1112901E-007  0.8854745E+03  0.7818608E-02  0.9549764E-01
          2   -1    0    0  501    0  0.00000000000E+00  0.00000000000E+00  0.12543391425E+04  0.12543391425E+04  0.25500000000E-02 0. -1.
         -2   -1    0    0    0  501 -0.00000000000E+00 -0.00000000000E+00 -0.23487130165E+04  0.23487130165E+04  0.25500000000E-02 0.  1.
    8880023    1    1    2    0    0  0.22931663682E+03  0.54559029758E+03 -0.21823342040E+04  0.23551321994E+04  0.65864270000E+03 0.  1.
    8880022    1    1    2    0    0 -0.22931663682E+03 -0.54559029758E+03  0.10879603300E+04  0.12479199595E+04  0.15294330000E+03 0.  0.
<mgrwt>
<rscale>  0 0.80712290E+03</rscale>
<asrwt>0</asrwt>
<pdfrwt beam="1">  1        2 0.19297525E+00 0.88547450E+03</pdfrwt>
<pdfrwt beam="2">  1       -2 0.36134046E+00 0.88547450E+03</pdfrwt>
<totfact> 0.23992267E-01</totfact>
</mgrwt>
</event>
<event>
 4    5  0.1112901E-007  0.1121286E+04  0.7818608E-02  0.9237718E-01
         -2   -1    0    0    0  501 -0.00000000000E+00  0.00000000000E+00  0.10937550658E+04  0.10937550658E+04  0.25500000000E-02 0.  1.
          2   -1    0    0  501    0  0.00000000000E+00 -0.00000000000E+00 -0.24937112755E+04  0.24937112755E+04  0.25500000000E-02 0. -1.
    8880023    1    1    2    0    0  0.73827874425E+03 -0.52765275038E+03  0.68115691778E+03  0.13119671803E+04  0.65864270000E+03 0.  1.
    8880022    1    1    2    0    0 -0.73827874425E+03  0.52765275038E+03 -0.20811131275E+04  0.22754991610E+04  0.15294330000E+03 0.  0.
<mgrwt>
<rscale>  0 0.10672451E+04</rscale>
<asrwt>0</asrwt>
<pdfrwt beam="1">  1        2 0.38364789E+00 0.11212864E+04</pdfrwt>
<pdfrwt beam="2">  1       -2 0.16827001E+00 0.11212864E+04</pdfrwt>
<totfact> 0.75994389E-01</totfact>
</mgrwt>
</event>
<event>
 4    5  0.1112901E-007  0.6628706E+03  0.7818608E-02  0.1021391E+00
         -2   -1    0    0    0  501 -0.00000000000E+00  0.00000000000E+00  0.86473254260E+03  0.86473254260E+03  0.25500000000E-02 0.  1.
          2   -1    0    0  501    0  0.00000000000E+00 -0.00000000000E+00 -0.23748963670E+04  0.23748963670E+04  0.25500000000E-02 0. -1.
    8880023    1    1    2    0    0 -0.72024357459E+02  0.19993257886E+02  0.73400082952E+03  0.98901701827E+03  0.65864270000E+03 0.  1.
    8880022    1    1    2    0    0  0.72024357459E+02 -0.19993257886E+02 -0.22441646539E+04  0.22506118913E+04  0.15294330000E+03 0.  0.
<mgrwt>
<rscale>  0 0.47188024E+03</rscale>
<asrwt>0</asrwt>
<pdfrwt beam="1">  1        2 0.36536867E+00 0.66287061E+03</pdfrwt>
<pdfrwt beam="2">  1       -2 0.13303578E+00 0.66287061E+03</pdfrwt>
<totfact> 0.17956447E+00</totfact>
</mgrwt>
</event>
<event>
 4    5  0.1112901E-007  0.1144297E+04  0.7818608E-02  0.9213269E-01
          2   -1    0    0  501    0  0.00000000000E+00  0.00000000000E+00  0.16395619126E+04  0.16395619126E+04  0.25500000000E-02 0. -1.
         -2   -1    0    0    0  501 -0.00000000000E+00 -0.00000000000E+00 -0.15811388416E+04  0.15811388416E+04  0.25500000000E-02 0.  1.
    8880023    1    1    2    0    0 -0.84328396521E+03  0.40555889876E+03  0.12521371009E+04  0.16962498024E+04  0.65864270000E+03 0. -1.
    8880022    1    1    2    0    0  0.84328396521E+03 -0.40555889876E+03 -0.11937140299E+04  0.15244509518E+04  0.15294330000E+03 0.  0.
<mgrwt>
<rscale>  0 0.10917519E+04</rscale>
<asrwt>0</asrwt>
<pdfrwt beam="1">  1        2 0.25224030E+00 0.11442972E+04</pdfrwt>
<pdfrwt beam="2">  1       -2 0.24325213E+00 0.11442972E+04</pdfrwt>
<totfact> 0.73327593E-01</totfact>
</mgrwt>
</event>
<event>
 4    5  0.1112901E-007  0.7345269E+03  0.7818608E-02  0.9876186E-01
          2   -1    0    0  501    0  0.00000000000E+00  0.00000000000E+00  0.24423471105E+04  0.24423471105E+04  0.25500000000E-02 0. -1.
         -2   -1    0    0    0  501 -0.00000000000E+00 -0.00000000000E+00 -0.57763526861E+03  0.57763526861E+03  0.25500000000E-02 0.  1.
    8880023    1    1    2    0    0  0.12521514329E+03 -0.30006786269E+03 -0.32339619803E+03  0.80256766786E+03  0.65864270000E+03 0.  1.
    8880022    1    1    2    0    0 -0.12521514329E+03  0.30006786269E+03  0.21881080399E+04  0.22174147112E+04  0.15294330000E+03 0.  0.
<mgrwt>
<rscale>  0 0.61429399E+03</rscale>
<asrwt>0</asrwt>
<pdfrwt beam="1">  1        2 0.37574571E+00 0.73452690E+03</pdfrwt>
<pdfrwt beam="2">  1       -2 0.88866964E-01 0.73452690E+03</pdfrwt>
<totfact> 0.42996042E+00</totfact>
</mgrwt>
</event>
<event>
 4    5  0.1112901E-007  0.1210997E+04  0.7818608E-02  0.9146505E-01
          2   -1    0    0  501    0  0.00000000000E+00  0.00000000000E+00  0.17035442065E+04  0.17035442065E+04  0.25500000000E-02 0. -1.
         -2   -1    0    0    0  501 -0.00000000000E+00 -0.00000000000E+00 -0.84825104950E+03  0.84825104950E+03  0.25500000000E-02 0.  1.
    8880023    1    1    2    0    0  0.69021043079E+03 -0.74586472931E+03 -0.58713371639E+01  0.12110116895E+04  0.65864270000E+03 0.  0.
    8880022    1    1    2    0    0 -0.69021043079E+03  0.74586472931E+03  0.86116449414E+03  0.13407835665E+04  0.15294330000E+03 0.  0.
<mgrwt>
<rscale>  0 0.11623057E+04</rscale>
<asrwt>0</asrwt>
<pdfrwt beam="1">  1        2 0.26208372E+00 0.12109975E+04</pdfrwt>
<pdfrwt beam="2">  1       -2 0.13050016E+00 0.12109975E+04</pdfrwt>
<totfact> 0.40850177E+00</totfact>
</mgrwt>
</event>
<event>
 4    5  0.1112901E-007  0.1102748E+04  0.7818608E-02  0.9258002E-01
         -2   -1    0    0    0  501 -0.00000000000E+00  0.00000000000E+00  0.30536298230E+03  0.30536298231E+03  0.25500000000E-02 0.  1.
          2   -1    0    0  501    0  0.00000000000E+00 -0.00000000000E+00 -0.35807662061E+04  0.35807662061E+04  0.25500000000E-02 0. -1.
    8880023    1    1    2    0    0  0.22245799608E+03  0.85601190588E+03 -0.12270972612E+04  0.16497944835E+04  0.65864270000E+03 0.  0.
    8880022    1    1    2    0    0 -0.22245799608E+03 -0.85601190588E+03 -0.20483059625E+04  0.22363347049E+04  0.15294330000E+03 0.  0.
<mgrwt>
<rscale>  0 0.10474292E+04</rscale>
<asrwt>0</asrwt>
<pdfrwt beam="1">  1        2 0.55088708E+00 0.11027485E+04</pdfrwt>
<pdfrwt beam="2">  1       -2 0.46978923E-01 0.11027485E+04</pdfrwt>
<totfact> 0.31336015E+00</totfact>
</mgrwt>
</event>
<event>
 4    5  0.1112901E-007  0.1196361E+04  0.7818608E-02  0.9160668E-01
          2   -1    0    0  501    0  0.00000000000E+00  0.00000000000E+00  0.17703233290E+04  0.17703233290E+04  0.25500000000E-02 0. -1.
         -2   -1    0    0    0  501 -0.00000000000E+00 -0.00000000000E+00 -0.85736478776E+03  0.85736478777E+03  0.25500000000E-02 0.  1.
    8880023    1    1    2    0    0  0.99640147191E+03  0.68221097680E+02 -0.95485149056E+02  0.12001656683E+04  0.65864270000E+03 0.  0.
    8880022    1    1    2    0    0 -0.99640147191E+03 -0.68221097680E+02  0.10084436903E+04  0.14275224485E+04  0.15294330000E+03 0.  0.
<mgrwt>
<rscale>  0 0.11468790E+04</rscale>
<asrwt>0</asrwt>
<pdfrwt beam="1">  1        2 0.27235743E+00 0.11963612E+04</pdfrwt>
<pdfrwt beam="2">  1       -2 0.13190228E+00 0.11963612E+04</pdfrwt>
<totfact> 0.36551998E+00</totfact>
</mgrwt>
</event>
<event>
 4    5  0.1112901E-007  0.8493476E+03  0.7818608E-02  0.9612800E-01
         -2   -1    0    0    0  501 -0.00000000000E+00  0.00000000000E+00  0.20429008239E+03  0.20429008241E+03  0.25500000000E-02 0.  1.
          2   -1    0    0  501    0  0.00000000000E+00 -0.00000000000E+00 -0.32155101864E+04  0.32155101864E+04  0.25500000000E-02 0. -1.
    8880023    1    1    2    0    0  0.43527155071E+03 -0.31324092289E+03 -0.25760248506E+04  0.27124334897E+04  0.65864270000E+03 0. -1.
    8880022    1    1    2    0    0 -0.43527155071E+03  0.31324092289E+03 -0.43519525337E+03  0.70736677912E+03  0.15294330000E+03 0.  0.
<mgrwt>
<rscale>  0 0.76454741E+03</rscale>
<asrwt>0</asrwt>
<pdfrwt beam="1">  1        2 0.49469384E+00 0.84934763E+03</pdfrwt>
<pdfrwt beam="2">  1       -2 0.31429246E-01 0.84934763E+03</pdfrwt>
<totfact> 0.12507470E+01</totfact>
</mgrwt>
</event>
<event>
 4    5  0.1112901E-007  0.8291887E+03  0.7818608E-02  0.9650913E-01
          2   -1    0    0  501    0  0.00000000000E+00  0.00000000000E+00  0.14953303851E+04  0.14953303851E+04  0.25500000000E-02 0. -1.
         -2   -1    0    0    0  501 -0.00000000000E+00 -0.00000000000E+00 -0.12619861673E+04  0.12619861673E+04  0.25500000000E-02 0.  1.
    8880023    1    1    2    0    0  0.57528139315E+02  0.50043403056E+03 -0.10688288608E+04  0.13527560925E+04  0.65864270000E+03 0.  0.
    8880022    1    1    2    0    0 -0.57528139315E+02 -0.50043403056E+03  0.13021730787E+04  0.14045604599E+04  0.15294330000E+03 0.  0.
<mgrwt>
<rscale>  0 0.74016156E+03</rscale>
<asrwt>0</asrwt>
<pdfrwt beam="1">  1        2 0.23005083E+00 0.82918871E+03</pdfrwt>
<pdfrwt beam="2">  1       -2 0.19415172E+00 0.82918871E+03</pdfrwt>
<totfact> 0.18900576E+00</totfact>
</mgrwt>
</event>
<event>
 4    5  0.1112901E-007  0.7367827E+03  0.7818608E-02  0.9869420E-01
         -2   -1    0    0    0  501 -0.00000000000E+00  0.00000000000E+00  0.32546164356E+03  0.32546164357E+03  0.25500000000E-02 0.  1.
          2   -1    0    0  501    0  0.00000000000E+00 -0.00000000000E+00 -0.18629966324E+04  0.18629966324E+04  0.25500000000E-02 0. -1.
    8880023    1    1    2    0    0  0.31168978588E+03  0.10903234150E+03 -0.14727301377E+03  0.75135751874E+03  0.65864270000E+03 0.  1.
    8880022    1    1    2    0    0 -0.31168978588E+03 -0.10903234150E+03 -0.13902619751E+04  0.14371007573E+04  0.15294330000E+03 0.  0.
<mgrwt>
<rscale>  0 0.61766496E+03</rscale>
<asrwt>0</asrwt>
<pdfrwt beam="1">  1        2 0.28661486E+00 0.73678272E+03</pdfrwt>
<pdfrwt beam="2">  1       -2 0.50071023E-01 0.73678272E+03</pdfrwt>
<totfact> 0.30984222E+01</totfact>
</mgrwt>
</event>
<event>
 4    5  0.1112901E-007  0.8800535E+03  0.7818608E-02  0.9558842E-01
         -2   -1    0    0    0  501 -0.00000000000E+00  0.00000000000E+00  0.69235869089E+03  0.69235869090E+03  0.25500000000E-02 0.  1.
          2   -1    0    0  501    0  0.00000000000E+00 -0.00000000000E+00 -0.85448466163E+03  0.85448466163E+03  0.25500000000E-02 0. -1.
    8880023    1    1    2    0    0  0.17326629436E+03 -0.55737121913E+03 -0.29653130679E+03  0.92866835137E+03  0.65864270000E+03 0.  0.
    8880022    1    1    2    0    0 -0.17326629436E+03  0.55737121913E+03  0.13440533606E+03  0.61817500115E+03  0.15294330000E+03 0.  0.
<mgrwt>
<rscale>  0 0.80081229E+03</rscale>
<asrwt>0</asrwt>
<pdfrwt beam="1">  1        2 0.13145918E+00 0.88005346E+03</pdfrwt>
<pdfrwt beam="2">  1       -2 0.10651672E+00 0.88005346E+03</pdfrwt>
<totfact> 0.22449279E+01</totfact>
</mgrwt>
</event>
<event>
 4    5  0.1112901E-007  0.1705904E+04  0.7818608E-02  0.8776454E-01
         -2   -1    0    0    0  501 -0.00000000000E+00  0.00000000000E+00  0.14038534064E+04  0.14038534064E+04  0.25500000000E-02 0.  1.
          2   -1    0    0  501    0  0.00000000000E+00 -0.00000000000E+00 -0.30392057249E+04  0.30392057249E+04  0.25500000000E-02 0. -1.
    8880023    1    1    2    0    0  0.18761237746E+03 -0.15624020301E+04  0.50775451842E+03  0.17798661087E+04  0.65864270000E+03 0.  0.
    8880022    1    1    2    0    0 -0.18761237746E+03  0.15624020301E+04 -0.21431068369E+04  0.26631930225E+04  0.15294330000E+03 0.  0.
<mgrwt>
<rscale>  0 0.16737929E+04</rscale>
<asrwt>0</asrwt>
<pdfrwt beam="1">  1        2 0.46757011E+00 0.17059041E+04</pdfrwt>
<pdfrwt beam="2">  1       -2 0.21597745E+00 0.17059041E+04</pdfrwt>
<totfact> 0.15848686E-01</totfact>
</mgrwt>
</event>
<event>
 4    5  0.1112901E-007  0.7229301E+03  0.7818608E-02  0.9912793E-01
          2   -1    0    0  501    0  0.00000000000E+00  0.00000000000E+00  0.28890105339E+04  0.28890105339E+04  0.25500000000E-02 0. -1.
         -2   -1    0    0    0  501 -0.00000000000E+00 -0.00000000000E+00 -0.47370199170E+03  0.47370199171E+03  0.25500000000E-02 0.  1.
    8880023    1    1    2    0    0  0.27196736106E+03 -0.12186665256E+03 -0.18070801477E+03  0.74517334853E+03  0.65864270000E+03 0.  1.
    8880022    1    1    2    0    0 -0.27196736106E+03  0.12186665256E+03  0.25960165570E+04  0.26175391771E+04  0.15294330000E+03 0.  0.
<mgrwt>
<rscale>  0 0.59645252E+03</rscale>
<asrwt>0</asrwt>
<pdfrwt beam="1">  1        2 0.44446316E+00 0.72293010E+03</pdfrwt>
<pdfrwt beam="2">  1       -2 0.72877230E-01 0.72293010E+03</pdfrwt>
<totfact> 0.37101547E+00</totfact>
</mgrwt>
</event>
<event>
 4    5  0.1112901E-007  0.9605785E+03  0.7818608E-02  0.9435055E-01
         -2   -1    0    0    0  501 -0.00000000000E+00  0.00000000000E+00  0.12063204038E+04  0.12063204038E+04  0.25500000000E-02 0.  1.
          2   -1    0    0  501    0  0.00000000000E+00 -0.00000000000E+00 -0.11487023236E+04  0.11487023236E+04  0.25500000000E-02 0. -1.
    8880023    1    1    2    0    0  0.33757920994E+03 -0.61232437115E+03  0.85325809217E+03  0.12848192233E+04  0.65864270000E+03 0.  1.
    8880022    1    1    2    0    0 -0.33757920994E+03  0.61232437115E+03 -0.79564001200E+03  0.10702035041E+04  0.15294330000E+03 0.  0.
<mgrwt>
<rscale>  0 0.89246131E+03</rscale>
<asrwt>0</asrwt>
<pdfrwt beam="1">  1        2 0.17672344E+00 0.96057851E+03</pdfrwt>
<pdfrwt beam="2">  1       -2 0.18558775E+00 0.96057851E+03</pdfrwt>
<totfact> 0.33631788E+00</totfact>
</mgrwt>
</event>
<event>
 4    5  0.1112901E-007  0.6719118E+03  0.7818608E-02  0.1014328E+00
          2   -1    0    0  501    0  0.00000000000E+00  0.00000000000E+00  0.70103697224E+03  0.70103697225E+03  0.25500000000E-02 0. -1.
         -2   -1    0    0    0  501 -0.00000000000E+00 -0.00000000000E+00 -0.50420431850E+03  0.50420431851E+03  0.25500000000E-02 0.  1.
    8880023    1    1    2    0    0  0.63110836395E+02  0.11692867258E+03 -0.24817896391E+03  0.71628087824E+03  0.65864270000E+03 0.  1.
    8880022    1    1    2    0    0 -0.63110836395E+02 -0.11692867258E+03  0.44501161765E+03  0.48896041251E+03  0.15294330000E+03 0.  0.
<mgrwt>
<rscale>  0 0.49790251E+03</rscale>
<asrwt>0</asrwt>
<pdfrwt beam="1">  1        2 0.10785184E+00 0.67191182E+03</pdfrwt>
<pdfrwt beam="2">  1       -2 0.77569895E-01 0.67191182E+03</pdfrwt>
<totfact> 0.61711751E+01</totfact>
</mgrwt>
</event>
<event>
 4    5  0.1112901E-007  0.1229051E+04  0.7818608E-02  0.9129387E-01
         -2   -1    0    0    0  501 -0.00000000000E+00  0.00000000000E+00  0.37984122932E+03  0.37984122933E+03  0.25500000000E-02 0.  1.
          2   -1    0    0  501    0  0.00000000000E+00 -0.00000000000E+00 -0.36598018438E+04  0.36598018438E+04  0.25500000000E-02 0. -1.
    8880023    1    1    2    0    0 -0.46017907939E+03 -0.93004925020E+03 -0.12404015657E+04  0.17461851687E+04  0.65864270000E+03 0.  1.
    8880022    1    1    2    0    0  0.46017907939E+03  0.93004925020E+03 -0.20395590489E+04  0.22934579045E+04  0.15294330000E+03 0.  0.
<mgrwt>
<rscale>  0 0.11812963E+04</rscale>
<asrwt>0</asrwt>
<pdfrwt beam="1">  1        2 0.56304642E+00 0.12290511E+04</pdfrwt>
<pdfrwt beam="2">  1       -2 0.58437114E-01 0.12290511E+04</pdfrwt>
<totfact> 0.17221202E+00</totfact>
</mgrwt>
</event>
<event>
 4    5  0.1112901E-007  0.7526672E+03  0.7818608E-02  0.9824475E-01
          2   -1    0    0  501    0  0.00000000000E+00  0.00000000000E+00  0.22049497121E+04  0.22049497121E+04  0.25500000000E-02 0. -1.
         -2   -1    0    0    0  501 -0.00000000000E+00 -0.00000000000E+00 -0.73131875246E+03  0.73131875247E+03  0.25500000000E-02 0.  1.
    8880023    1    1    2    0    0  0.34318710568E+03 -0.12214901237E+03 -0.51291412756E+03  0.91081769814E+03  0.65864270000E+03 0.  1.
    8880022    1    1    2    0    0 -0.34318710568E+03  0.12214901237E+03  0.19865450872E+04  0.20254507665E+04  0.15294330000E+03 0.  0.
<mgrwt>
<rscale>  0 0.64065460E+03</rscale>
<asrwt>0</asrwt>
<pdfrwt beam="1">  1        2 0.33922303E+00 0.75266724E+03</pdfrwt>
<pdfrwt beam="2">  1       -2 0.11251058E+00 0.75266724E+03</pdfrwt>
<totfact> 0.33230022E+00</totfact>
</mgrwt>
</event>
<event>
 4    5  0.1112901E-007  0.1412935E+04  0.7818608E-02  0.8973697E-01
          2   -1    0    0  501    0  0.00000000000E+00  0.00000000000E+00  0.30631541022E+04  0.30631541022E+04  0.25500000000E-02 0. -1.
         -2   -1    0    0    0  501 -0.00000000000E+00 -0.00000000000E+00 -0.64794227427E+03  0.64794227427E+03  0.25500000000E-02 0.  1.
    8880023    1    1    2    0    0  0.89545485524E+03 -0.87220103733E+03  0.68266570905E+03  0.15692089484E+04  0.65864270000E+03 0.  0.
    8880022    1    1    2    0    0 -0.89545485524E+03  0.87220103733E+03  0.17325461189E+04  0.21418874280E+04  0.15294330000E+03 0.  0.
<mgrwt>
<rscale>  0 0.13728664E+04</rscale>
<asrwt>0</asrwt>
<pdfrwt beam="1">  1        2 0.47125446E+00 0.14129346E+04</pdfrwt>
<pdfrwt beam="2">  1       -2 0.99683430E-01 0.14129346E+04</pdfrwt>
<totfact> 0.12774613E+00</totfact>
</mgrwt>
</event>
<event>
 4    5  0.1112901E-007  0.7165205E+03  0.7818608E-02  0.9934540E-01
          2   -1    0    0  501    0  0.00000000000E+00  0.00000000000E+00  0.20495093807E+04  0.20495093807E+04  0.25500000000E-02 0. -1.
         -2   -1    0    0    0  501 -0.00000000000E+00 -0.00000000000E+00 -0.11773391756E+04  0.11773391756E+04  0.25500000000E-02 0.  1.
    8880023    1    1    2    0    0 -0.26881694079E+03 -0.85608853324E+02 -0.10538023155E+04  0.12743237225E+04  0.65864270000E+03 0.  1.
    8880022    1    1    2    0    0  0.26881694079E+03  0.85608853324E+02  0.19259725206E+04  0.19525248338E+04  0.15294330000E+03 0.  0.
<mgrwt>
<rscale>  0 0.58616138E+03</rscale>
<asrwt>0</asrwt>
<pdfrwt beam="1">  1        2 0.31530913E+00 0.71652050E+03</pdfrwt>
<pdfrwt beam="2">  1       -2 0.18112910E+00 0.71652050E+03</pdfrwt>
<totfact> 0.11720551E+00</totfact>
</mgrwt>
</event>
<event>
 4    5  0.1112901E-007  0.1211569E+04  0.7818608E-02  0.9145958E-01
          2   -1    0    0  501    0  0.00000000000E+00  0.00000000000E+00  0.10399584571E+04  0.10399584571E+04  0.25500000000E-02 0. -1.
         -2   -1    0    0    0  501 -0.00000000000E+00 -0.00000000000E+00 -0.12457181687E+04  0.12457181687E+04  0.25500000000E-02 0.  1.
    8880023    1    1    2    0    0  0.60422332081E+03 -0.81792632616E+03  0.92111627087E+02  0.12150654528E+04  0.65864270000E+03 0.  0.
    8880022    1    1    2    0    0 -0.60422332081E+03  0.81792632616E+03 -0.29787133872E+03  0.10706111731E+04  0.15294330000E+03 0.  0.
<mgrwt>
<rscale>  0 0.11629076E+04</rscale>
<asrwt>0</asrwt>
<pdfrwt beam="1">  1        2 0.15999361E+00 0.12115690E+04</pdfrwt>
<pdfrwt beam="2">  1       -2 0.19164895E+00 0.12115690E+04</pdfrwt>
<totfact> 0.34861511E+00</totfact>
</mgrwt>
</event>
<event>
 4    5  0.1112901E-007  0.7856909E+03  0.7818608E-02  0.9742635E-01
          2   -1    0    0  501    0  0.00000000000E+00  0.00000000000E+00  0.11038092510E+04  0.11038092510E+04  0.25500000000E-02 0. -1.
         -2   -1    0    0    0  501 -0.00000000000E+00 -0.00000000000E+00 -0.36392886043E+03  0.36392886044E+03  0.25500000000E-02 0.  1.
    8880023    1    1    2    0    0 -0.26032114757E+03 -0.34019545660E+03  0.61004031278E+03  0.99471575741E+03  0.65864270000E+03 0.  0.
    8880022    1    1    2    0    0  0.26032114757E+03  0.34019545660E+03  0.12984007776E+03  0.47302235399E+03  0.15294330000E+03 0.  0.
<mgrwt>
<rscale>  0 0.68534097E+03</rscale>
<asrwt>0</asrwt>
<pdfrwt beam="1">  1        2 0.16981680E+00 0.78569094E+03</pdfrwt>
<pdfrwt beam="2">  1       -2 0.55989057E-01 0.78569094E+03</pdfrwt>
<totfact> 0.65743125E+01</totfact>
</mgrwt>
</event>
<event>
 4    5  0.1112901E-007  0.6912877E+03  0.7818608E-02  0.1003546E+00
          2   -1    0    0  501    0  0.00000000000E+00  0.00000000000E+00  0.14907769554E+04  0.14907769554E+04  0.25500000000E-02 0. -1.
         -2   -1    0    0    0  501 -0.00000000000E+00 -0.00000000000E+00 -0.25244911111E+03  0.25244911113E+03  0.25500000000E-02 0.  1.
    8880023    1    1    2    0    0  0.18995766544E+03  0.89356187658E+02  0.27245573752E+03  0.74304157226E+03  0.65864270000E+03 0.  1.
    8880022    1    1    2    0    0 -0.18995766544E+03 -0.89356187658E+02  0.96587210678E+03  0.10001844943E+04  0.15294330000E+03 0.  0.
<mgrwt>
<rscale>  0 0.54122142E+03</rscale>
<asrwt>0</asrwt>
<pdfrwt beam="1">  1        2 0.22935030E+00 0.69128767E+03</pdfrwt>
<pdfrwt beam="2">  1       -2 0.38838325E-01 0.69128767E+03</pdfrwt>
<totfact> 0.82511607E+01</totfact>
</mgrwt>
</event>
<event>
 4    5  0.1112901E-007  0.8206585E+03  0.7818608E-02  0.9667789E-01
          2   -1    0    0  501    0  0.00000000000E+00  0.00000000000E+00  0.11057031922E+04  0.11057031922E+04  0.25500000000E-02 0. -1.
         -2   -1    0    0    0  501 -0.00000000000E+00 -0.00000000000E+00 -0.10458264961E+04  0.10458264961E+04  0.25500000000E-02 0.  1.
    8880023    1    1    2    0    0 -0.30419703416E+03 -0.38358101408E+03 -0.80271775755E+03  0.11479704850E+04  0.65864270000E+03 0.  1.
    8880022    1    1    2    0    0  0.30419703416E+03  0.38358101408E+03  0.86259445367E+03  0.10035592033E+04  0.15294330000E+03 0.  0.
<mgrwt>
<rscale>  0 0.72967440E+03</rscale>
<asrwt>0</asrwt>
<pdfrwt beam="1">  1        2 0.17010818E+00 0.82065854E+03</pdfrwt>
<pdfrwt beam="2">  1       -2 0.16089638E+00 0.82065854E+03</pdfrwt>
<totfact> 0.54220477E+00</totfact>
</mgrwt>
</event>
<event>
 4    5  0.1112901E-007  0.7576922E+03  0.7818608E-02  0.9811119E-01
         -2   -1    0    0    0  501 -0.00000000000E+00  0.00000000000E+00  0.66471007354E+03  0.66471007354E+03  0.25500000000E-02 0.  1.
          2   -1    0    0  501    0  0.00000000000E+00 -0.00000000000E+00 -0.12188612378E+04  0.12188612378E+04  0.25500000000E-02 0. -1.
    8880023    1    1    2    0    0 -0.34046018766E+03 -0.15612225432E+03  0.39306013157E+03  0.85357704454E+03  0.65864270000E+03 0.  1.
    8880022    1    1    2    0    0  0.34046018766E+03  0.15612225432E+03 -0.94721129579E+03  0.10299942668E+04  0.15294330000E+03 0.  0.
<mgrwt>
<rscale>  0 0.64769229E+03</rscale>
<asrwt>0</asrwt>
<pdfrwt beam="1">  1        2 0.18751711E+00 0.75769222E+03</pdfrwt>
<pdfrwt beam="2">  1       -2 0.10226309E+00 0.75769222E+03</pdfrwt>
<totfact> 0.14724055E+01</totfact>
</mgrwt>
</event>
<event>
 4    5  0.1112901E-007  0.1540447E+04  0.7818608E-02  0.8881590E-01
          2   -1    0    0  501    0  0.00000000000E+00  0.00000000000E+00  0.23324727591E+04  0.23324727591E+04  0.25500000000E-02 0. -1.
         -2   -1    0    0    0  501 -0.00000000000E+00 -0.00000000000E+00 -0.14104856527E+04  0.14104856527E+04  0.25500000000E-02 0.  1.
    8880023    1    1    2    0    0 -0.13490216344E+04  0.34540999349E+03 -0.61918111870E+03  0.16602297726E+04  0.65864270000E+03 0.  0.
    8880022    1    1    2    0    0  0.13490216344E+04 -0.34540999349E+03  0.15411682251E+04  0.20827286393E+04  0.15294330000E+03 0.  0.
<mgrwt>
<rscale>  0 0.15043121E+04</rscale>
<asrwt>0</asrwt>
<pdfrwt beam="1">  1        2 0.35884196E+00 0.15404472E+04</pdfrwt>
<pdfrwt beam="2">  1       -2 0.21699779E+00 0.15404472E+04</pdfrwt>
<totfact> 0.41915635E-01</totfact>
</mgrwt>
</event>
<event>
 4    5  0.1112901E-007  0.8060453E+03  0.7818608E-02  0.9697874E-01
          2   -1    0    0  501    0  0.00000000000E+00  0.00000000000E+00  0.30645000289E+04  0.30645000289E+04  0.25500000000E-02 0. -1.
         -2   -1    0    0    0  501 -0.00000000000E+00 -0.00000000000E+00 -0.46220788345E+03  0.46220788345E+03  0.25500000000E-02 0.  1.
    8880023    1    1    2    0    0  0.11484563852E+03 -0.45023240866E+03 -0.70871479763E+02  0.80915493906E+03  0.65864270000E+03 0.  1.
    8880022    1    1    2    0    0 -0.11484563852E+03  0.45023240866E+03  0.26731636252E+04  0.27175529733E+04  0.15294330000E+03 0.  0.
<mgrwt>
<rscale>  0 0.71143500E+03</rscale>
<asrwt>0</asrwt>
<pdfrwt beam="1">  1        2 0.47146155E+00 0.80604525E+03</pdfrwt>
<pdfrwt beam="2">  1       -2 0.71108903E-01 0.80604525E+03</pdfrwt>
<totfact> 0.30115387E+00</totfact>
</mgrwt>
</event>
<event>
 4    5  0.1112901E-007  0.1157380E+04  0.7818608E-02  0.9199708E-01
         -2   -1    0    0    0  501 -0.00000000000E+00  0.00000000000E+00  0.11689781299E+04  0.11689781299E+04  0.25500000000E-02 0.  1.
          2   -1    0    0  501    0  0.00000000000E+00 -0.00000000000E+00 -0.26976659708E+04  0.26976659708E+04  0.25500000000E-02 0. -1.
    8880023    1    1    2    0    0  0.53250436396E+03 -0.78876934899E+03  0.75908517640E+03  0.13841020536E+04  0.65864270000E+03 0.  0.
    8880022    1    1    2    0    0 -0.53250436396E+03  0.78876934899E+03 -0.22877730173E+04  0.24825420470E+04  0.15294330000E+03 0.  0.
<mgrwt>
<rscale>  0 0.11056440E+04</rscale>
<asrwt>0</asrwt>
<pdfrwt beam="1">  1        2 0.41502553E+00 0.11573799E+04</pdfrwt>
<pdfrwt beam="2">  1       -2 0.17984279E+00 0.11573799E+04</pdfrwt>
<totfact> 0.47688456E-01</totfact>
</mgrwt>
</event>
<event>
 4    5  0.1112901E-007  0.1493152E+04  0.7818608E-02  0.8914487E-01
         -2   -1    0    0    0  501 -0.00000000000E+00  0.00000000000E+00  0.69969739053E+03  0.69969739054E+03  0.25500000000E-02 0.  1.
          2   -1    0    0  501    0  0.00000000000E+00 -0.00000000000E+00 -0.43531207854E+04  0.43531207854E+04  0.25500000000E-02 0. -1.
    8880023    1    1    2    0    0  0.84089557717E+03  0.10433534713E+04 -0.42264316638E+03  0.15518148375E+04  0.65864270000E+03 0.  0.
    8880022    1    1    2    0    0 -0.84089557717E+03 -0.10433534713E+04 -0.32307802285E+04  0.35010033384E+04  0.15294330000E+03 0.  0.
<mgrwt>
<rscale>  0 0.14556586E+04</rscale>
<asrwt>0</asrwt>
<pdfrwt beam="1">  1        2 0.66971087E+00 0.14931517E+04</pdfrwt>
<pdfrwt beam="2">  1       -2 0.10764576E+00 0.14931517E+04</pdfrwt>
<totfact> 0.11470408E-01</totfact>
</mgrwt>
</event>
<event>
 4    5  0.1112901E-007  0.6777169E+03  0.7818608E-02  0.1010646E+00
          2   -1    0    0  501    0  0.00000000000E+00  0.00000000000E+00  0.22453395579E+04  0.22453395579E+04  0.25500000000E-02 0. -1.
         -2   -1    0    0    0  501 -0.00000000000E+00 -0.00000000000E+00 -0.12584823993E+04  0.12584823993E+04  0.25500000000E-02 0.  1.
    8880023    1    1    2    0    0 -0.18485401064E+02  0.15858193734E+03 -0.11611540979E+04  0.13444623410E+04  0.65864270000E+03 0.  1.
    8880022    1    1    2    0    0  0.18485401064E+02 -0.15858193734E+03  0.21480112566E+04  0.21593596162E+04  0.15294330000E+03 0.  0.
<mgrwt>
<rscale>  0 0.51218799E+03</rscale>
<asrwt>0</asrwt>
<pdfrwt beam="1">  1        2 0.34543685E+00 0.67771686E+03</pdfrwt>
<pdfrwt beam="2">  1       -2 0.19361268E+00 0.67771686E+03</pdfrwt>
<totfact> 0.76166673E-01</totfact>
</mgrwt>
</event>
<event>
 4    5  0.1112901E-007  0.7758965E+03  0.7818608E-02  0.9765566E-01
         -2   -1    0    0    0  501 -0.00000000000E+00  0.00000000000E+00  0.50676985714E+03  0.50676985715E+03  0.25500000000E-02 0.  1.
          2   -1    0    0  501    0  0.00000000000E+00 -0.00000000000E+00 -0.15068346092E+04  0.15068346092E+04  0.25500000000E-02 0. -1.
    8880023    1    1    2    0    0  0.14044631293E+03  0.38533098367E+03  0.14356754557E+03  0.78906715823E+03  0.65864270000E+03 0.  1.
    8880022    1    1    2    0    0 -0.14044631293E+03 -0.38533098367E+03 -0.11436322976E+04  0.12245373081E+04  0.15294330000E+03 0.  0.
<mgrwt>
<rscale>  0 0.67243663E+03</rscale>
<asrwt>0</asrwt>
<pdfrwt beam="1">  1        2 0.23182071E+00 0.77589648E+03</pdfrwt>
<pdfrwt beam="2">  1       -2 0.77964594E-01 0.77589648E+03</pdfrwt>
<totfact> 0.18813274E+01</totfact>
</mgrwt>
</event>
<event>
 4    5  0.1112901E-007  0.8151062E+03  0.7818608E-02  0.9679037E-01
          2   -1    0    0  501    0  0.00000000000E+00  0.00000000000E+00  0.13991245147E+04  0.13991245147E+04  0.25500000000E-02 0. -1.
         -2   -1    0    0    0  501 -0.00000000000E+00 -0.00000000000E+00 -0.10195836966E+04  0.10195836966E+04  0.25500000000E-02 0.  1.
    8880023    1    1    2    0    0  0.33764046769E+03 -0.34144810047E+03 -0.79624131365E+03  0.11394728284E+04  0.65864270000E+03 0.  0.
    8880022    1    1    2    0    0 -0.33764046769E+03  0.34144810047E+03  0.11757821317E+04  0.12792353830E+04  0.15294330000E+03 0.  0.
<mgrwt>
<rscale>  0 0.72278725E+03</rscale>
<asrwt>0</asrwt>
<pdfrwt beam="1">  1        2 0.21524992E+00 0.81510619E+03</pdfrwt>
<pdfrwt beam="2">  1       -2 0.15685903E+00 0.81510619E+03</pdfrwt>
<totfact> 0.39106871E+00</totfact>
</mgrwt>
</event>
<event>
 4    5  0.1112901E-007  0.6713353E+03  0.7818608E-02  0.1014723E+00
          2   -1    0    0  501    0  0.00000000000E+00  0.00000000000E+00  0.10520581337E+04  0.10520581337E+04  0.25500000000E-02 0. -1.
         -2   -1    0    0    0  501 -0.00000000000E+00 -0.00000000000E+00 -0.20061358578E+03  0.20061358580E+03  0.25500000000E-02 0.  1.
    8880023    1    1    2    0    0 -0.93119125403E+02 -0.90607112654E+02  0.46318954192E+03  0.81561975110E+03  0.65864270000E+03 0.  1.
    8880022    1    1    2    0    0  0.93119125403E+02  0.90607112654E+02  0.38825500598E+03  0.43705196838E+03  0.15294330000E+03 0. -1.
<mgrwt>
<rscale>  0 0.49639869E+03</rscale>
<asrwt>0</asrwt>
<pdfrwt beam="1">  1        2 0.16185510E+00 0.67133526E+03</pdfrwt>
<pdfrwt beam="2">  1       -2 0.30863628E-01 0.67133526E+03</pdfrwt>
<totfact> 0.23017118E+02</totfact>
</mgrwt>
</event>
<event>
 4    5  0.1112901E-007  0.7746985E+03  0.7818608E-02  0.9768441E-01
         -2   -1    0    0    0  501 -0.00000000000E+00  0.00000000000E+00  0.61078928312E+03  0.61078928312E+03  0.25500000000E-02 0.  1.
          2   -1    0    0  501    0  0.00000000000E+00 -0.00000000000E+00 -0.87272108428E+03  0.87272108428E+03  0.25500000000E-02 0. -1.
    8880023    1    1    2    0    0  0.27634406895E+03 -0.29996917889E+03  0.24747007804E+03  0.81326453170E+03  0.65864270000E+03 0.  1.
    8880022    1    1    2    0    0 -0.27634406895E+03  0.29996917889E+03 -0.50940187920E+03  0.67024583571E+03  0.15294330000E+03 0.  0.
<mgrwt>
<rscale>  0 0.67084034E+03</rscale>
<asrwt>0</asrwt>
<pdfrwt beam="1">  1        2 0.13426478E+00 0.77469850E+03</pdfrwt>
<pdfrwt beam="2">  1       -2 0.93967582E-01 0.77469850E+03</pdfrwt>
<totfact> 0.29631315E+01</totfact>
</mgrwt>
</event>
<event>
 4    5  0.1112901E-007  0.1508328E+04  0.7818608E-02  0.8903777E-01
         -2   -1    0    0    0  501 -0.00000000000E+00  0.00000000000E+00  0.94359091505E+03  0.94359091505E+03  0.25500000000E-02 0.  1.
          2   -1    0    0  501    0  0.00000000000E+00 -0.00000000000E+00 -0.23188524396E+04  0.23188524396E+04  0.25500000000E-02 0. -1.
    8880023    1    1    2    0    0 -0.12819795460E+04 -0.44471668872E+03 -0.33309771746E+03  0.15446710929E+04  0.65864270000E+03 0.  0.
    8880022    1    1    2    0    0  0.12819795460E+04  0.44471668872E+03 -0.10421638071E+04  0.17177722618E+04  0.15294330000E+03 0.  0.
<mgrwt>
<rscale>  0 0.14712830E+04</rscale>
<asrwt>0</asrwt>
<pdfrwt beam="1">  1        2 0.35674653E+00 0.15083284E+04</pdfrwt>
<pdfrwt beam="2">  1       -2 0.14516783E+00 0.15083284E+04</pdfrwt>
<totfact> 0.13645865E+00</totfact>
</mgrwt>
</event>
<event>
 4    5  0.1112901E-007  0.9208442E+03  0.7818608E-02  0.9493366E-01
         -2   -1    0    0    0  501 -0.00000000000E+00  0.00000000000E+00  0.56844980955E+03  0.56844980955E+03  0.25500000000E-02 0.  1.
          2   -1    0    0  501    0  0.00000000000E+00 -0.00000000000E+00 -0.13577366759E+04  0.13577366759E+04  0.25500000000E-02 0. -1.
    8880023    1    1    2    0    0 -0.21316877396E+02 -0.64318688712E+03 -0.32986316144E+02  0.92143479658E+03  0.65864270000E+03 0.  0.
    8880022    1    1    2    0    0  0.21316877396E+02  0.64318688712E+03 -0.75630055017E+03  0.10047516888E+04  0.15294330000E+03 0.  0.
<mgrwt>
<rscale>  0 0.84774700E+03</rscale>
<asrwt>0</asrwt>
<pdfrwt beam="1">  1        2 0.20888256E+00 0.92084417E+03</pdfrwt>
<pdfrwt beam="2">  1       -2 0.87453817E-01 0.92084417E+03</pdfrwt>
<totfact> 0.17330263E+01</totfact>
</mgrwt>
</event>
<event>
 4    5  0.1112901E-007  0.1666117E+04  0.7818608E-02  0.8800451E-01
          2   -1    0    0  501    0  0.00000000000E+00  0.00000000000E+00  0.30262468233E+04  0.30262468233E+04  0.25500000000E-02 0. -1.
         -2   -1    0    0    0  501 -0.00000000000E+00 -0.00000000000E+00 -0.13251900936E+04  0.13251900936E+04  0.25500000000E-02 0.  1.
    8880023    1    1    2    0    0  0.13458867532E+04 -0.72850794562E+03 -0.43247030786E+03  0.17213296468E+04  0.65864270000E+03 0.  0.
    8880022    1    1    2    0    0 -0.13458867532E+04  0.72850794562E+03  0.21335270376E+04  0.26301072701E+04  0.15294330000E+03 0.  0.
<mgrwt>
<rscale>  0 0.16331274E+04</rscale>
<asrwt>0</asrwt>
<pdfrwt beam="1">  1        2 0.46557643E+00 0.16661168E+04</pdfrwt>
<pdfrwt beam="2">  1       -2 0.20387540E+00 0.16661168E+04</pdfrwt>
<totfact> 0.19434892E-01</totfact>
</mgrwt>
</event>
<event>
 4    5  0.1112901E-007  0.1035170E+04  0.7818608E-02  0.9336925E-01
          2   -1    0    0  501    0  0.00000000000E+00  0.00000000000E+00  0.23846032832E+04  0.23846032832E+04  0.25500000000E-02 0. -1.
         -2   -1    0    0    0  501 -0.00000000000E+00 -0.00000000000E+00 -0.15173097258E+04  0.15173097258E+04  0.25500000000E-02 0.  1.
    8880023    1    1    2    0    0  0.77880168242E+03 -0.17673164440E+03 -0.12563768980E+04  0.16279002582E+04  0.65864270000E+03 0.  1.
    8880022    1    1    2    0    0 -0.77880168242E+03  0.17673164440E+03  0.21236704553E+04  0.22740127507E+04  0.15294330000E+03 0.  0.
<mgrwt>
<rscale>  0 0.97453358E+03</rscale>
<asrwt>0</asrwt>
<pdfrwt beam="1">  1        2 0.36686204E+00 0.10351697E+04</pdfrwt>
<pdfrwt beam="2">  1       -2 0.23343227E+00 0.10351697E+04</pdfrwt>
<totfact> 0.33052241E-01</totfact>
</mgrwt>
</event>
<event>
 4    5  0.1112901E-007  0.9127896E+03  0.7818608E-02  0.9505804E-01
          2   -1    0    0  501    0  0.00000000000E+00  0.00000000000E+00  0.29695673259E+04  0.29695673259E+04  0.25500000000E-02 0. -1.
         -2   -1    0    0    0  501 -0.00000000000E+00 -0.00000000000E+00 -0.34621534906E+03  0.34621534907E+03  0.25500000000E-02 0.  1.
    8880023    1    1    2    0    0 -0.12366331106E+03 -0.61974349788E+03  0.39514723646E+03  0.99464876334E+03  0.65864270000E+03 0.  0.
    8880022    1    1    2    0    0  0.12366331106E+03  0.61974349788E+03  0.22282047404E+04  0.23211339116E+04  0.15294330000E+03 0.  0.
<mgrwt>
<rscale>  0 0.83857237E+03</rscale>
<asrwt>0</asrwt>
<pdfrwt beam="1">  1        2 0.45685651E+00 0.91278958E+03</pdfrwt>
<pdfrwt beam="2">  1       -2 0.53263900E-01 0.91278958E+03</pdfrwt>
<totfact> 0.62586053E+00</totfact>
</mgrwt>
</event>
<event>
 4    5  0.1112901E-007  0.9766822E+03  0.7818608E-02  0.9412721E-01
         -2   -1    0    0    0  501 -0.00000000000E+00  0.00000000000E+00  0.22033744020E+04  0.22033744020E+04  0.25500000000E-02 0.  1.
          2   -1    0    0  501    0  0.00000000000E+00 -0.00000000000E+00 -0.54168399619E+03  0.54168399620E+03  0.25500000000E-02 0. -1.
    8880023    1    1    2    0    0 -0.23819257308E+03  0.68070713921E+03  0.17484589387E+04  0.20027523006E+04  0.65864270000E+03 0.  1.
    8880022    1    1    2    0    0  0.23819257308E+03 -0.68070713921E+03 -0.86768532810E+02  0.74230609761E+03  0.15294330000E+03 0.  0.
<mgrwt>
<rscale>  0 0.91036144E+03</rscale>
<asrwt>0</asrwt>
<pdfrwt beam="1">  1        2 0.83336002E-01 0.97668220E+03</pdfrwt>
<pdfrwt beam="2">  1       -2 0.33898067E+00 0.97668220E+03</pdfrwt>
<totfact> 0.10389312E+00</totfact>
</mgrwt>
</event>
<event>
 4    5  0.1112901E-007  0.9280659E+03  0.7818608E-02  0.9482401E-01
          2   -1    0    0  501    0  0.00000000000E+00  0.00000000000E+00  0.16831832075E+04  0.16831832075E+04  0.25500000000E-02 0. -1.
         -2   -1    0    0    0  501 -0.00000000000E+00 -0.00000000000E+00 -0.67587211078E+03  0.67587211079E+03  0.25500000000E-02 0.  1.
    8880023    1    1    2    0    0  0.64892709115E+03 -0.79935540397E+02 -0.22564927580E+03  0.95510411065E+03  0.65864270000E+03 0.  1.
    8880022    1    1    2    0    0 -0.64892709115E+03  0.79935540397E+02  0.12329603726E+04  0.14039512077E+04  0.15294330000E+03 0.  0.
<mgrwt>
<rscale>  0 0.85593868E+03</rscale>
<asrwt>0</asrwt>
<pdfrwt beam="1">  1        2 0.25895126E+00 0.92806587E+03</pdfrwt>
<pdfrwt beam="2">  1       -2 0.10398032E+00 0.92806587E+03</pdfrwt>
<totfact> 0.75766779E+00</totfact>
</mgrwt>
</event>
<event>
 4    5  0.1112901E-007  0.8056600E+03  0.7818608E-02  0.9698689E-01
          2   -1    0    0  501    0  0.00000000000E+00  0.00000000000E+00  0.79224529396E+03  0.79224529396E+03  0.25500000000E-02 0. -1.
         -2   -1    0    0    0  501 -0.00000000000E+00 -0.00000000000E+00 -0.54318687959E+03  0.54318687959E+03  0.25500000000E-02 0.  1.
    8880023    1    1    2    0    0 -0.42116632195E+03  0.19467097298E+03  0.26059681909E+03  0.84675779704E+03  0.65864270000E+03 0.  0.
    8880022    1    1    2    0    0  0.42116632195E+03 -0.19467097298E+03 -0.11538404724E+02  0.48867437651E+03  0.15294330000E+03 0.  0.
<mgrwt>
<rscale>  0 0.71094905E+03</rscale>
<asrwt>0</asrwt>
<pdfrwt beam="1">  1        2 0.12188389E+00 0.80566002E+03</pdfrwt>
<pdfrwt beam="2">  1       -2 0.83567213E-01 0.80566002E+03</pdfrwt>
<totfact> 0.44111381E+01</totfact>
</mgrwt>
</event>
<event>
 4    5  0.1112901E-007  0.9871642E+03  0.7818608E-02  0.9398547E-01
          2   -1    0    0  501    0  0.00000000000E+00  0.00000000000E+00  0.72639446751E+03  0.72639446751E+03  0.25500000000E-02 0. -1.
         -2   -1    0    0    0  501 -0.00000000000E+00 -0.00000000000E+00 -0.19172652017E+04  0.19172652017E+04  0.25500000000E-02 0.  1.
    8880023    1    1    2    0    0 -0.58447153582E+03 -0.44617938950E+03 -0.15290189001E+04  0.18199978096E+04  0.65864270000E+03 0.  1.
    8880022    1    1    2    0    0  0.58447153582E+03  0.44617938950E+03  0.33814816594E+03  0.82366185959E+03  0.15294330000E+03 0.  0.
<mgrwt>
<rscale>  0 0.92195375E+03</rscale>
<asrwt>0</asrwt>
<pdfrwt beam="1">  1        2 0.11175300E+00 0.98716424E+03</pdfrwt>
<pdfrwt beam="2">  1       -2 0.29496388E+00 0.98716424E+03</pdfrwt>
<totfact> 0.13413971E+00</totfact>
</mgrwt>
</event>
<event>
 4    5  0.1112901E-007  0.1079844E+04  0.7818608E-02  0.9283836E-01
         -2   -1    0    0    0  501 -0.00000000000E+00  0.00000000000E+00  0.78874410894E+03  0.78874410895E+03  0.25500000000E-02 0.  1.
          2   -1    0    0  501    0  0.00000000000E+00 -0.00000000000E+00 -0.16522674171E+04  0.16522674171E+04  0.25500000000E-02 0. -1.
    8880023    1    1    2    0    0 -0.85557689659E+03 -0.15516044495E+02  0.16715066677E+03  0.10927040429E+04  0.65864270000E+03 0.  0.
    8880022    1    1    2    0    0  0.85557689659E+03  0.15516044495E+02 -0.10306739749E+04  0.13483074832E+04  0.15294330000E+03 0.  0.
<mgrwt>
<rscale>  0 0.10228463E+04</rscale>
<asrwt>0</asrwt>
<pdfrwt beam="1">  1        2 0.25419499E+00 0.10798439E+04</pdfrwt>
<pdfrwt beam="2">  1       -2 0.12134525E+00 0.10798439E+04</pdfrwt>
<totfact> 0.53121426E+00</totfact>
</mgrwt>
</event>
<event>
 4    5  0.1112901E-007  0.1247975E+04  0.7818608E-02  0.9111841E-01
         -2   -1    0    0    0  501 -0.00000000000E+00  0.00000000000E+00  0.14096334713E+04  0.14096334713E+04  0.25500000000E-02 0.  1.
          2   -1    0    0  501    0  0.00000000000E+00 -0.00000000000E+00 -0.18552207843E+04  0.18552207843E+04  0.25500000000E-02 0. -1.
    8880023    1    1    2    0    0  0.27277877680E+03 -0.10243162022E+04  0.90469653949E+03  0.15414013034E+04  0.65864270000E+03 0.  0.
    8880022    1    1    2    0    0 -0.27277877680E+03  0.10243162022E+04 -0.13502838525E+04  0.17234529523E+04  0.15294330000E+03 0.  0.
<mgrwt>
<rscale>  0 0.12011604E+04</rscale>
<asrwt>0</asrwt>
<pdfrwt beam="1">  1        2 0.28541858E+00 0.12479752E+04</pdfrwt>
<pdfrwt beam="2">  1       -2 0.21686669E+00 0.12479752E+04</pdfrwt>
<totfact> 0.80295993E-01</totfact>
</mgrwt>
</event>
<event>
 4    5  0.1112901E-007  0.9111663E+03  0.7818608E-02  0.9508339E-01
         -2   -1    0    0    0  501 -0.00000000000E+00  0.00000000000E+00  0.19477645227E+04  0.19477645227E+04  0.25500000000E-02 0.  1.
          2   -1    0    0  501    0  0.00000000000E+00 -0.00000000000E+00 -0.58827163986E+03  0.58827163986E+03  0.25500000000E-02 0. -1.
    8880023    1    1    2    0    0 -0.18862601106E+03 -0.60069468047E+03  0.16030009332E+04  0.18438644390E+04  0.65864270000E+03 0.  1.
    8880022    1    1    2    0    0  0.18862601106E+03  0.60069468047E+03 -0.24350805044E+03  0.69217172352E+03  0.15294330000E+03 0.  0.
<mgrwt>
<rscale>  0 0.83671830E+03</rscale>
<asrwt>0</asrwt>
<pdfrwt beam="1">  1        2 0.90503330E-01 0.91116633E+03</pdfrwt>
<pdfrwt beam="2">  1       -2 0.29965608E+00 0.91116633E+03</pdfrwt>
<totfact> 0.16507709E+00</totfact>
</mgrwt>
</event>
<event>
 4    5  0.1112901E-007  0.8807734E+03  0.7818608E-02  0.9557629E-01
         -2   -1    0    0    0  501 -0.00000000000E+00  0.00000000000E+00  0.78805001886E+03  0.78805001886E+03  0.25500000000E-02 0.  1.
          2   -1    0    0  501    0  0.00000000000E+00 -0.00000000000E+00 -0.19578716678E+04  0.19578716678E+04  0.25500000000E-02 0. -1.
    8880023    1    1    2    0    0 -0.57797556117E+03 -0.88857984193E+02 -0.17175593386E+04  0.19302258362E+04  0.65864270000E+03 0. -1.
    8880022    1    1    2    0    0  0.57797556117E+03  0.88857984193E+02  0.54773768973E+03  0.81569585045E+03  0.15294330000E+03 0.  0.
<mgrwt>
<rscale>  0 0.80165175E+03</rscale>
<asrwt>0</asrwt>
<pdfrwt beam="1">  1        2 0.30121102E+00 0.88077335E+03</pdfrwt>
<pdfrwt beam="2">  1       -2 0.12123846E+00 0.88077335E+03</pdfrwt>
<totfact> 0.37027018E+00</totfact>
</mgrwt>
</event>
<event>
 4    5  0.1112901E-007  0.8635241E+03  0.7818608E-02  0.9587325E-01
         -2   -1    0    0    0  501 -0.00000000000E+00  0.00000000000E+00  0.15809777951E+04  0.15809777951E+04  0.25500000000E-02 0.  1.
          2   -1    0    0  501    0  0.00000000000E+00 -0.00000000000E+00 -0.92533968951E+03  0.92533968952E+03  0.25500000000E-02 0. -1.
    8880023    1    1    2    0    0  0.38196173574E+03  0.40739278749E+03  0.13497931423E+04  0.16023780403E+04  0.65864270000E+03 0.  0.
    8880022    1    1    2    0    0 -0.38196173574E+03 -0.40739278749E+03 -0.69415503673E+03  0.90393944427E+03  0.15294330000E+03 0.  0.
<mgrwt>
<rscale>  0 0.78140791E+03</rscale>
<asrwt>0</asrwt>
<pdfrwt beam="1">  1        2 0.14235995E+00 0.86352409E+03</pdfrwt>
<pdfrwt beam="2">  1       -2 0.24322735E+00 0.86352409E+03</pdfrwt>
<totfact> 0.20224377E+00</totfact>
</mgrwt>
</event>
<event>
 4    5  0.1112901E-007  0.7535368E+03  0.7818608E-02  0.9822137E-01
         -2   -1    0    0    0  501 -0.00000000000E+00  0.00000000000E+00  0.23584692339E+03  0.23584692341E+03  0.25500000000E-02 0.  1.
          2   -1    0    0  501    0  0.00000000000E+00 -0.00000000000E+00 -0.14876370546E+04  0.14876370547E+04  0.25500000000E-02 0. -1.
    8880023    1    1    2    0    0  0.33917149894E+03 -0.13773219192E+03 -0.61238422473E+03  0.97099542087E+03  0.65864270000E+03 0.  0.
    8880022    1    1    2    0    0 -0.33917149894E+03  0.13773219192E+03 -0.63940590653E+03  0.75248855719E+03  0.15294330000E+03 0.  0.
<mgrwt>
<rscale>  0 0.64187968E+03</rscale>
<asrwt>0</asrwt>
<pdfrwt beam="1">  1        2 0.22886723E+00 0.75353677E+03</pdfrwt>
<pdfrwt beam="2">  1       -2 0.36284143E-01 0.75353677E+03</pdfrwt>
<totfact> 0.93882442E+01</totfact>
</mgrwt>
</event>
<event>
 4    5  0.1112901E-007  0.6691173E+03  0.7818608E-02  0.1016304E+00
          2   -1    0    0  501    0  0.00000000000E+00  0.00000000000E+00  0.44283327760E+04  0.44283327760E+04  0.25500000000E-02 0. -1.
         -2   -1    0    0    0  501 -0.00000000000E+00 -0.00000000000E+00 -0.10032925714E+03  0.10032925717E+03  0.25500000000E-02 0.  1.
    8880023    1    1    2    0    0  0.11788268449E+03 -0.33805461940E+01  0.10506676410E+04  0.12456405796E+04  0.65864270000E+03 0.  1.
    8880022    1    1    2    0    0 -0.11788268449E+03  0.33805461940E+01  0.32773358778E+04  0.32830214535E+04  0.15294330000E+03 0.  0.
<mgrwt>
<rscale>  0 0.49044401E+03</rscale>
<asrwt>0</asrwt>
<pdfrwt beam="1">  1        2 0.68128194E+00 0.66911730E+03</pdfrwt>
<pdfrwt beam="2">  1       -2 0.15435271E-01 0.66911730E+03</pdfrwt>
<totfact> 0.55339860E+00</totfact>
</mgrwt>
</event>
<event>
 4    5  0.1112901E-007  0.7694565E+03  0.7818608E-02  0.9781213E-01
          2   -1    0    0  501    0  0.00000000000E+00  0.00000000000E+00  0.13224378381E+04  0.13224378381E+04  0.25500000000E-02 0. -1.
         -2   -1    0    0    0  501 -0.00000000000E+00 -0.00000000000E+00 -0.45621800902E+03  0.45621800903E+03  0.25500000000E-02 0.  1.
    8880023    1    1    2    0    0  0.39780762903E+03  0.14693907075E+01 -0.46987518703E+02  0.77088981184E+03  0.65864270000E+03 0.  1.
    8880022    1    1    2    0    0 -0.39780762903E+03 -0.14693907075E+01  0.91320734778E+03  0.10077660353E+04  0.15294330000E+03 0.  0.
<mgrwt>
<rscale>  0 0.66380557E+03</rscale>
<asrwt>0</asrwt>
<pdfrwt beam="1">  1        2 0.20345197E+00 0.76945648E+03</pdfrwt>
<pdfrwt beam="2">  1       -2 0.70187387E-01 0.76945648E+03</pdfrwt>
<totfact> 0.30188607E+01</totfact>
</mgrwt>
</event>
<event>
 4    5  0.1112901E-007  0.9702091E+03  0.7818608E-02  0.9421615E-01
          2   -1    0    0  501    0  0.00000000000E+00  0.00000000000E+00  0.40030503536E+04  0.40030503536E+04  0.25500000000E-02 0. -1.
         -2   -1    0    0    0  501 -0.00000000000E+00 -0.00000000000E+00 -0.24355848256E+03  0.24355848258E+03  0.25500000000E-02 0.  1.
    8880023    1    1    2    0    0  0.31006793037E+03  0.64136834167E+03  0.31520645902E+04  0.32980019493E+04  0.65864270000E+03 0. -1.
    8880022    1    1    2    0    0 -0.31006793037E+03 -0.64136834167E+03  0.60742728085E+03  0.94860688680E+03  0.15294330000E+03 0.  0.
<mgrwt>
<rscale>  0 0.90317993E+03</rscale>
<asrwt>0</asrwt>
<pdfrwt beam="1">  1        2 0.61585386E+00 0.97020909E+03</pdfrwt>
<pdfrwt beam="2">  1       -2 0.37470538E-01 0.97020909E+03</pdfrwt>
<totfact> 0.24227238E+00</totfact>
</mgrwt>
</event>
<event>
 4    5  0.1112901E-007  0.8051586E+03  0.7818608E-02  0.9699751E-01
          2   -1    0    0  501    0  0.00000000000E+00  0.00000000000E+00  0.10152486641E+04  0.10152486641E+04  0.25500000000E-02 0. -1.
         -2   -1    0    0    0  501 -0.00000000000E+00 -0.00000000000E+00 -0.17176717810E+04  0.17176717810E+04  0.25500000000E-02 0.  1.
    8880023    1    1    2    0    0 -0.21173282404E+03  0.41187294610E+03 -0.15547819597E+04  0.17508932752E+04  0.65864270000E+03 0.  1.
    8880022    1    1    2    0    0  0.21173282404E+03 -0.41187294610E+03  0.85235884282E+03  0.98202716992E+03  0.15294330000E+03 0.  0.
<mgrwt>
<rscale>  0 0.71031608E+03</rscale>
<asrwt>0</asrwt>
<pdfrwt beam="1">  1        2 0.15619210E+00 0.80515857E+03</pdfrwt>
<pdfrwt beam="2">  1       -2 0.26425720E+00 0.80515857E+03</pdfrwt>
<totfact> 0.13300821E+00</totfact>
</mgrwt>
</event>
<event>
 4    5  0.1112901E-007  0.1325576E+04  0.7818608E-02  0.9043782E-01
         -2   -1    0    0    0  501 -0.00000000000E+00  0.00000000000E+00  0.97685549818E+03  0.97685549818E+03  0.25500000000E-02 0.  1.
          2   -1    0    0  501    0  0.00000000000E+00 -0.00000000000E+00 -0.23006344576E+04  0.23006344576E+04  0.25500000000E-02 0. -1.
    8880023    1    1    2    0    0  0.70260390087E+03 -0.91087329054E+03  0.22255527374E+03  0.13441292531E+04  0.65864270000E+03 0.  0.
    8880022    1    1    2    0    0 -0.70260390087E+03  0.91087329054E+03 -0.15463342331E+04  0.19333607026E+04  0.15294330000E+03 0.  0.
<mgrwt>
<rscale>  0 0.12822237E+04</rscale>
<asrwt>0</asrwt>
<pdfrwt beam="1">  1        2 0.35394376E+00 0.13255763E+04</pdfrwt>
<pdfrwt beam="2">  1       -2 0.15028546E+00 0.13255763E+04</pdfrwt>
<totfact> 0.12984376E+00</totfact>
</mgrwt>
</event>
<event>
 4    5  0.1112901E-007  0.1634650E+04  0.7818608E-02  0.8819978E-01
         -2   -1    0    0    0  501 -0.00000000000E+00  0.00000000000E+00  0.19565657381E+04  0.19565657381E+04  0.25500000000E-02 0.  1.
          2   -1    0    0  501    0  0.00000000000E+00 -0.00000000000E+00 -0.15410465082E+04  0.15410465082E+04  0.25500000000E-02 0. -1.
    8880023    1    1    2    0    0 -0.12783553311E+04  0.77722420702E+03 -0.53328720852E+03  0.17194403955E+04  0.65864270000E+03 0. -1.
    8880022    1    1    2    0    0  0.12783553311E+04 -0.77722420702E+03  0.94880643836E+03  0.17781718508E+04  0.15294330000E+03 0.  0.
<mgrwt>
<rscale>  0 0.16009287E+04</rscale>
<asrwt>0</asrwt>
<pdfrwt beam="1">  1        2 0.23708408E+00 0.16346498E+04</pdfrwt>
<pdfrwt beam="2">  1       -2 0.30101011E+00 0.16346498E+04</pdfrwt>
<totfact> 0.34978683E-01</totfact>
</mgrwt>
</event>
<event>
 4    5  0.1112901E-007  0.8534926E+03  0.7818608E-02  0.9605245E-01
         -2   -1    0    0    0  501 -0.00000000000E+00  0.00000000000E+00  0.30530163936E+03  0.30530163937E+03  0.25500000000E-02 0.  1.
          2   -1    0    0  501    0  0.00000000000E+00 -0.00000000000E+00 -0.19680004134E+04  0.19680004134E+04  0.25500000000E-02 0. -1.
    8880023    1    1    2    0    0  0.48331348029E+03 -0.24707786023E+03 -0.14255656750E+04  0.16615315493E+04  0.65864270000E+03 0.  0.
    8880022    1    1    2    0    0 -0.48331348029E+03  0.24707786023E+03 -0.23713309901E+03  0.61177050346E+03  0.15294330000E+03 0.  0.
<mgrwt>
<rscale>  0 0.76949979E+03</rscale>
<asrwt>0</asrwt>
<pdfrwt beam="1">  1        2 0.30276929E+00 0.85349259E+03</pdfrwt>
<pdfrwt beam="2">  1       -2 0.46969484E-01 0.85349259E+03</pdfrwt>
<totfact> 0.30475799E+01</totfact>
</mgrwt>
</event>
<event>
 4    5  0.1112901E-007  0.1825923E+04  0.7818608E-02  0.8708331E-01
         -2   -1    0    0    0  501 -0.00000000000E+00  0.00000000000E+00  0.13529312717E+04  0.13529312717E+04  0.25500000000E-02 0.  1.
          2   -1    0    0  501    0  0.00000000000E+00 -0.00000000000E+00 -0.43433757067E+04  0.43433757067E+04  0.25500000000E-02 0. -1.
    8880023    1    1    2    0    0 -0.12743535311E+04 -0.11296939690E+04 -0.34694801009E+04  0.39206233895E+04  0.65864270000E+03 0. -1.
    8880022    1    1    2    0    0  0.12743535311E+04  0.11296939690E+04  0.47903566580E+03  0.17756835889E+04  0.15294330000E+03 0.  0.
<mgrwt>
<rscale>  0 0.17961856E+04</rscale>
<asrwt>0</asrwt>
<pdfrwt beam="1">  1        2 0.66821164E+00 0.18259232E+04</pdfrwt>
<pdfrwt beam="2">  1       -2 0.20814327E+00 0.18259232E+04</pdfrwt>
<totfact> 0.18700372E-02</totfact>
</mgrwt>
</event>
<event>
 4    5  0.1112901E-007  0.1241908E+04  0.7818608E-02  0.9117423E-01
         -2   -1    0    0    0  501 -0.00000000000E+00  0.00000000000E+00  0.18735413269E+04  0.18735413269E+04  0.25500000000E-02 0.  1.
          2   -1    0    0  501    0  0.00000000000E+00 -0.00000000000E+00 -0.16952608980E+04  0.16952608980E+04  0.25500000000E-02 0. -1.
    8880023    1    1    2    0    0  0.10471521916E+04  0.10953650762E+03  0.14510409066E+04  0.19099360925E+04  0.65864270000E+03 0.  0.
    8880022    1    1    2    0    0 -0.10471521916E+04 -0.10953650762E+03 -0.12727604777E+04  0.16588661324E+04  0.15294330000E+03 0.  0.
<mgrwt>
<rscale>  0 0.11947966E+04</rscale>
<asrwt>0</asrwt>
<pdfrwt beam="1">  1        2 0.26080937E+00 0.12419083E+04</pdfrwt>
<pdfrwt beam="2">  1       -2 0.28823713E+00 0.12419083E+04</pdfrwt>
<totfact> 0.35862829E-01</totfact>
</mgrwt>
</event>
<event>
 4    5  0.1112901E-007  0.7956881E+03  0.7818608E-02  0.9720198E-01
         -2   -1    0    0    0  501 -0.00000000000E+00  0.00000000000E+00  0.48664115011E+03  0.48664115011E+03  0.25500000000E-02 0.  1.
          2   -1    0    0  501    0  0.00000000000E+00 -0.00000000000E+00 -0.98321784798E+03  0.98321784798E+03  0.25500000000E-02 0. -1.
    8880023    1    1    2    0    0 -0.39075311726E+03  0.21591974764E+03 -0.58774174152E+03  0.98922186442E+03  0.65864270000E+03 0. -1.
    8880022    1    1    2    0    0  0.39075311726E+03 -0.21591974764E+03  0.91165043642E+02  0.48063713367E+03  0.15294330000E+03 0.  0.
<mgrwt>
<rscale>  0 0.69826844E+03</rscale>
<asrwt>0</asrwt>
<pdfrwt beam="1">  1        2 0.15126428E+00 0.79568809E+03</pdfrwt>
<pdfrwt beam="2">  1       -2 0.74867870E-01 0.79568809E+03</pdfrwt>
<totfact> 0.41877709E+01</totfact>
</mgrwt>
</event>
<event>
 4    5  0.1112901E-007  0.2072685E+04  0.7818608E-02  0.8585033E-01
          2   -1    0    0  501    0  0.00000000000E+00  0.00000000000E+00  0.32494543007E+04  0.32494543007E+04  0.25500000000E-02 0. -1.
         -2   -1    0    0    0  501 -0.00000000000E+00 -0.00000000000E+00 -0.15902360477E+04  0.15902360477E+04  0.25500000000E-02 0.  1.
    8880023    1    1    2    0    0 -0.19642654693E+04  0.62235450658E+02 -0.25948878786E+03  0.20888649364E+04  0.65864270000E+03 0.  0.
    8880022    1    1    2    0    0  0.19642654693E+04 -0.62235450658E+02  0.19187070409E+04  0.27508254120E+04  0.15294330000E+03 0.  0.
<mgrwt>
<rscale>  0 0.20468323E+04</rscale>
<asrwt>0</asrwt>
<pdfrwt beam="1">  1        2 0.49991604E+00 0.20726848E+04</pdfrwt>
<pdfrwt beam="2">  1       -2 0.24465170E+00 0.20726848E+04</pdfrwt>
<totfact> 0.73579745E-02</totfact>
</mgrwt>
</event>
<event>
 4    5  0.1112901E-007  0.7310551E+03  0.7818608E-02  0.9886813E-01
          2   -1    0    0  501    0  0.00000000000E+00  0.00000000000E+00  0.11433913383E+04  0.11433913383E+04  0.25500000000E-02 0. -1.
         -2   -1    0    0    0  501 -0.00000000000E+00 -0.00000000000E+00 -0.28634456184E+03  0.28634456185E+03  0.25500000000E-02 0.  1.
    8880023    1    1    2    0    0  0.76125944769E+02  0.30795495165E+03  0.34524908877E+03  0.80847915946E+03  0.65864270000E+03 0.  0.
    8880022    1    1    2    0    0 -0.76125944769E+02 -0.30795495165E+03  0.51179768766E+03  0.62125674066E+03  0.15294330000E+03 0.  1.
<mgrwt>
<rscale>  0 0.60904644E+03</rscale>
<asrwt>0</asrwt>
<pdfrwt beam="1">  1        2 0.17590636E+00 0.73105514E+03</pdfrwt>
<pdfrwt beam="2">  1       -2 0.44053010E-01 0.73105514E+03</pdfrwt>
<totfact> 0.10174232E+02</totfact>
</mgrwt>
</event>
<event>
 4    5  0.1112901E-007  0.1073726E+04  0.7818608E-02  0.9290889E-01
          2   -1    0    0  501    0  0.00000000000E+00  0.00000000000E+00  0.15713540856E+04  0.15713540856E+04  0.25500000000E-02 0. -1.
         -2   -1    0    0    0  501 -0.00000000000E+00 -0.00000000000E+00 -0.64996828827E+03  0.64996828828E+03  0.25500000000E-02 0.  1.
    8880023    1    1    2    0    0 -0.84793892922E+03 -0.87138485319E+01  0.82542177582E+03  0.13543292336E+04  0.65864270000E+03 0.  0.
    8880022    1    1    2    0    0  0.84793892922E+03  0.87138485319E+01  0.95964021547E+02  0.86699314028E+03  0.15294330000E+03 0.  0.
<mgrwt>
<rscale>  0 0.10162597E+04</rscale>
<asrwt>0</asrwt>
<pdfrwt beam="1">  1        2 0.24174678E+00 0.10737256E+04</pdfrwt>
<pdfrwt beam="2">  1       -2 0.99995123E-01 0.10737256E+04</pdfrwt>
<totfact> 0.94521318E+00</totfact>
</mgrwt>
</event>
<event>
 4    5  0.1112901E-007  0.6631510E+03  0.7818608E-02  0.1021138E+00
         -2   -1    0    0    0  501 -0.00000000000E+00  0.00000000000E+00  0.34827946614E+03  0.34827946615E+03  0.25500000000E-02 0.  1.
          2   -1    0    0  501    0  0.00000000000E+00 -0.00000000000E+00 -0.29802726578E+04  0.29802726578E+04  0.25500000000E-02 0. -1.
    8880023    1    1    2    0    0 -0.77157820429E+02  0.24009689080E+01  0.27332134631E+02  0.66371405421E+03  0.65864270000E+03 0.  1.
    8880022    1    1    2    0    0  0.77157820429E+02 -0.24009689080E+01 -0.26593253262E+04  0.26648380697E+04  0.15294330000E+03 0.  0.
<mgrwt>
<rscale>  0 0.47278287E+03</rscale>
<asrwt>0</asrwt>
<pdfrwt beam="1">  1        2 0.45850347E+00 0.66315104E+03</pdfrwt>
<pdfrwt beam="2">  1       -2 0.53581458E-01 0.66315104E+03</pdfrwt>
<totfact> 0.63705220E+00</totfact>
</mgrwt>
</event>
<event>
 4    5  0.1112901E-007  0.1118718E+04  0.7818608E-02  0.9240497E-01
          2   -1    0    0  501    0  0.00000000000E+00  0.00000000000E+00  0.20265904896E+04  0.20265904896E+04  0.25500000000E-02 0. -1.
         -2   -1    0    0    0  501 -0.00000000000E+00 -0.00000000000E+00 -0.70992528004E+03  0.70992528004E+03  0.25500000000E-02 0.  1.
    8880023    1    1    2    0    0  0.43699036910E+03  0.79168075693E+03  0.14264885778E+04  0.18128427600E+04  0.65864270000E+03 0.  0.
    8880022    1    1    2    0    0 -0.43699036910E+03 -0.79168075693E+03 -0.10982336822E+03  0.92367300967E+03  0.15294330000E+03 0.  0.
<mgrwt>
<rscale>  0 0.10645033E+04</rscale>
<asrwt>0</asrwt>
<pdfrwt beam="1">  1        2 0.31178315E+00 0.11187177E+04</pdfrwt>
<pdfrwt beam="2">  1       -2 0.10921927E+00 0.11187177E+04</pdfrwt>
<totfact> 0.42574816E+00</totfact>
</mgrwt>
</event>
<event>
 4    5  0.1112901E-007  0.1082665E+04  0.7818608E-02  0.9280606E-01
         -2   -1    0    0    0  501 -0.00000000000E+00  0.00000000000E+00  0.73013693010E+03  0.73013693011E+03  0.25500000000E-02 0.  1.
          2   -1    0    0  501    0  0.00000000000E+00 -0.00000000000E+00 -0.14011558201E+04  0.14011558201E+04  0.25500000000E-02 0. -1.
    8880023    1    1    2    0    0  0.33354622889E+03  0.79189721198E+03 -0.97729590569E+02  0.10870674129E+04  0.65864270000E+03 0.  1.
    8880022    1    1    2    0    0 -0.33354622889E+03 -0.79189721198E+03 -0.57328929945E+03  0.10442253373E+04  0.15294330000E+03 0.  0.
<mgrwt>
<rscale>  0 0.10258810E+04</rscale>
<asrwt>0</asrwt>
<pdfrwt beam="1">  1        2 0.21556243E+00 0.10826655E+04</pdfrwt>
<pdfrwt beam="2">  1       -2 0.11232876E+00 0.10826655E+04</pdfrwt>
<totfact> 0.88970313E+00</totfact>
</mgrwt>
</event>
<event>
 4    5  0.1112901E-007  0.6929621E+03  0.7818608E-02  0.1002775E+00
         -2   -1    0    0    0  501 -0.00000000000E+00  0.00000000000E+00  0.10031418632E+04  0.10031418632E+04  0.25500000000E-02 0.  1.
          2   -1    0    0  501    0  0.00000000000E+00 -0.00000000000E+00 -0.84480444064E+03  0.84480444065E+03  0.25500000000E-02 0. -1.
    8880023    1    1    2    0    0 -0.20034346457E+03  0.79049176636E+02  0.85636058307E+03  0.11016124231E+04  0.65864270000E+03 0.  1.
    8880022    1    1    2    0    0  0.20034346457E+03 -0.79049176636E+02 -0.69802316047E+03  0.74633388084E+03  0.15294330000E+03 0.  0.
<mgrwt>
<rscale>  0 0.54449873E+03</rscale>
<asrwt>0</asrwt>
<pdfrwt beam="1">  1        2 0.12996992E+00 0.69296211E+03</pdfrwt>
<pdfrwt beam="2">  1       -2 0.15432952E+00 0.69296211E+03</pdfrwt>
<totfact> 0.91028172E+00</totfact>
</mgrwt>
</event>
<event>
 4    5  0.1112901E-007  0.1500050E+04  0.7818608E-02  0.8909601E-01
          2   -1    0    0  501    0  0.00000000000E+00  0.00000000000E+00  0.21918323690E+04  0.21918323690E+04  0.25500000000E-02 0. -1.
         -2   -1    0    0    0  501 -0.00000000000E+00 -0.00000000000E+00 -0.11503793611E+04  0.11503793611E+04  0.25500000000E-02 0.  1.
    8880023    1    1    2    0    0 -0.11327923692E+03 -0.13429469432E+04  0.12715506819E+04  0.19664663793E+04  0.65864270000E+03 0.  0.
    8880022    1    1    2    0    0  0.11327923692E+03  0.13429469432E+04 -0.23009767396E+03  0.13757453509E+04  0.15294330000E+03 0.  0.
<mgrwt>
<rscale>  0 0.14627614E+04</rscale>
<asrwt>0</asrwt>
<pdfrwt beam="1">  1        2 0.33720498E+00 0.15000496E+04</pdfrwt>
<pdfrwt beam="2">  1       -2 0.17698144E+00 0.15000496E+04</pdfrwt>
<totfact> 0.93463042E-01</totfact>
</mgrwt>
</event>
<event>
 4    5  0.1112901E-007  0.7181929E+03  0.7818608E-02  0.9928749E-01
         -2   -1    0    0    0  501 -0.00000000000E+00  0.00000000000E+00  0.76590155578E+03  0.76590155579E+03  0.25500000000E-02 0.  1.
          2   -1    0    0  501    0  0.00000000000E+00 -0.00000000000E+00 -0.63474339239E+03  0.63474339239E+03  0.25500000000E-02 0. -1.
    8880023    1    1    2    0    0 -0.14295775049E+03  0.24810060390E+03  0.52546812515E+03  0.88989762607E+03  0.65864270000E+03 0.  0.
    8880022    1    1    2    0    0  0.14295775049E+03 -0.24810060390E+03 -0.39430996176E+03  0.51074732210E+03  0.15294330000E+03 0.  0.
<mgrwt>
<rscale>  0 0.58888010E+03</rscale>
<asrwt>0</asrwt>
<pdfrwt beam="1">  1        2 0.97652830E-01 0.71819289E+03</pdfrwt>
<pdfrwt beam="2">  1       -2 0.11783101E+00 0.71819289E+03</pdfrwt>
<totfact> 0.26132595E+01</totfact>
</mgrwt>
</event>
<event>
 4    5  0.1112901E-007  0.9557327E+03  0.7818608E-02  0.9441913E-01
         -2   -1    0    0    0  501 -0.00000000000E+00  0.00000000000E+00  0.54136777525E+03  0.54136777525E+03  0.25500000000E-02 0.  1.
          2   -1    0    0  501    0  0.00000000000E+00 -0.00000000000E+00 -0.15943194937E+04  0.15943194937E+04  0.25500000000E-02 0. -1.
    8880023    1    1    2    0    0 -0.81052290521E+02 -0.68778291971E+03 -0.10589076551E+04  0.14264327698E+04  0.65864270000E+03 0. -1.
    8880022    1    1    2    0    0  0.81052290521E+02  0.68778291971E+03  0.59559365998E+01  0.70925449921E+03  0.15294330000E+03 0.  0.
<mgrwt>
<rscale>  0 0.88705191E+03</rscale>
<asrwt>0</asrwt>
<pdfrwt beam="1">  1        2 0.24527992E+00 0.95573272E+03</pdfrwt>
<pdfrwt beam="2">  1       -2 0.83287351E-01 0.95573272E+03</pdfrwt>
<totfact> 0.14205138E+01</totfact>
</mgrwt>
</event>
<event>
 4    5  0.1112901E-007  0.6996377E+03  0.7818608E-02  0.9998708E-01
          2   -1    0    0  501    0  0.00000000000E+00  0.00000000000E+00  0.96495342341E+03  0.96495342342E+03  0.25500000000E-02 0. -1.
         -2   -1    0    0    0  501 -0.00000000000E+00 -0.00000000000E+00 -0.47693615333E+03  0.47693615333E+03  0.25500000000E-02 0.  1.
    8880023    1    1    2    0    0 -0.23396736521E+03  0.30691017763E+02 -0.17544065057E+03  0.72129903278E+03  0.65864270000E+03 0.  1.
    8880022    1    1    2    0    0  0.23396736521E+03 -0.30691017763E+02  0.66345792066E+03  0.72059054397E+03  0.15294330000E+03 0.  0.
<mgrwt>
<rscale>  0 0.55706943E+03</rscale>
<asrwt>0</asrwt>
<pdfrwt beam="1">  1        2 0.14845437E+00 0.69963767E+03</pdfrwt>
<pdfrwt beam="2">  1       -2 0.73374794E-01 0.69963767E+03</pdfrwt>
<totfact> 0.45376432E+01</totfact>
</mgrwt>
</event>
<event>
 4    5  0.1112901E-007  0.8929633E+03  0.7818608E-02  0.9537423E-01
         -2   -1    0    0    0  501 -0.00000000000E+00  0.00000000000E+00  0.56960746325E+03  0.56960746326E+03  0.25500000000E-02 0.  1.
          2   -1    0    0  501    0  0.00000000000E+00 -0.00000000000E+00 -0.10543414739E+04  0.10543414739E+04  0.25500000000E-02 0. -1.
    8880023    1    1    2    0    0 -0.31971160816E+03  0.51123158677E+03 -0.11509974523E+03  0.90035071240E+03  0.65864270000E+03 0.  0.
    8880022    1    1    2    0    0  0.31971160816E+03 -0.51123158677E+03 -0.36963426546E+03  0.72359822480E+03  0.15294330000E+03 0.  0.
<mgrwt>
<rscale>  0 0.81580085E+03</rscale>
<asrwt>0</asrwt>
<pdfrwt beam="1">  1        2 0.16220638E+00 0.89296330E+03</pdfrwt>
<pdfrwt beam="2">  1       -2 0.87631917E-01 0.89296330E+03</pdfrwt>
<totfact> 0.26232596E+01</totfact>
</mgrwt>
</event>
<event>
 4    5  0.1112901E-007  0.8407102E+03  0.7818608E-02  0.9628843E-01
         -2   -1    0    0    0  501 -0.00000000000E+00  0.00000000000E+00  0.10350143755E+04  0.10350143755E+04  0.25500000000E-02 0.  1.
          2   -1    0    0  501    0  0.00000000000E+00 -0.00000000000E+00 -0.81414241096E+03  0.81414241096E+03  0.25500000000E-02 0. -1.
    8880023    1    1    2    0    0 -0.10406290774E+03 -0.51201004267E+03  0.72277848646E+03  0.11086939701E+04  0.65864270000E+03 0.  0.
    8880022    1    1    2    0    0  0.10406290774E+03  0.51201004267E+03 -0.50190652197E+03  0.74046281633E+03  0.15294330000E+03 0.  0.
<mgrwt>
<rscale>  0 0.75416248E+03</rscale>
<asrwt>0</asrwt>
<pdfrwt beam="1">  1        2 0.12525268E+00 0.84071016E+03</pdfrwt>
<pdfrwt beam="2">  1       -2 0.15923298E+00 0.84071016E+03</pdfrwt>
<totfact> 0.86466543E+00</totfact>
</mgrwt>
</event>
<event>
 4    5  0.1112901E-007  0.1384068E+04  0.7818608E-02  0.8996163E-01
          2   -1    0    0  501    0  0.00000000000E+00  0.00000000000E+00  0.27794410002E+04  0.27794410002E+04  0.25500000000E-02 0. -1.
         -2   -1    0    0    0  501 -0.00000000000E+00 -0.00000000000E+00 -0.65660564721E+03  0.65660564721E+03  0.25500000000E-02 0.  1.
    8880023    1    1    2    0    0  0.95739732324E+03  0.75181339897E+03  0.67994141000E+03  0.15420647032E+04  0.65864270000E+03 0.  0.
    8880022    1    1    2    0    0 -0.95739732324E+03 -0.75181339897E+03  0.14428939430E+04  0.18939819443E+04  0.15294330000E+03 0.  0.
<mgrwt>
<rscale>  0 0.13429757E+04</rscale>
<asrwt>0</asrwt>
<pdfrwt beam="1">  1        2 0.42760630E+00 0.13840676E+04</pdfrwt>
<pdfrwt beam="2">  1       -2 0.10101626E+00 0.13840676E+04</pdfrwt>
<totfact> 0.18540170E+00</totfact>
</mgrwt>
</event>
<event>
 4    5  0.1562566E-007  0.1611625E+04  0.7818608E-02  0.8834587E-01
         -2   -1    0    0    0  501 -0.00000000000E+00  0.00000000000E+00  0.31226877921E+04  0.31226877921E+04  0.25500000000E-02 0.  1.
          2   -1    0    0  501    0  0.00000000000E+00 -0.00000000000E+00 -0.18152594817E+04  0.18152594817E+04  0.25500000000E-02 0. -1.
    8880023    1    1    2    0    0 -0.62035584090E+03 -0.13336729759E+04  0.25431416872E+04  0.30107980376E+04  0.65864270000E+03 0.  0.
    8880022    1    1    2    0    0  0.62035584090E+03  0.13336729759E+04 -0.12357133768E+04  0.19271492361E+04  0.15294330000E+03 0.  0.
<mgrwt>
<rscale>  0 0.15773462E+04</rscale>
<asrwt>0</asrwt>
<pdfrwt beam="1">  1        2 0.27927069E+00 0.16116250E+04</pdfrwt>
<pdfrwt beam="2">  1       -2 0.48041350E+00 0.16116250E+04</pdfrwt>
<totfact> 0.17108326E-02</totfact>
</mgrwt>
</event>
<event>
 4    5  0.1112901E-007  0.7436965E+03  0.7818608E-02  0.9849307E-01
         -2   -1    0    0    0  501 -0.00000000000E+00  0.00000000000E+00  0.25266557104E+03  0.25266557105E+03  0.25500000000E-02 0.  1.
          2   -1    0    0  501    0  0.00000000000E+00 -0.00000000000E+00 -0.36739419478E+04  0.36739419478E+04  0.25500000000E-02 0. -1.
    8880023    1    1    2    0    0 -0.17442451663E+03 -0.29807775926E+03 -0.33219017454E+03  0.81451505873E+03  0.65864270000E+03 0.  0.
    8880022    1    1    2    0    0  0.17442451663E+03  0.29807775926E+03 -0.30890862022E+04  0.31120924601E+04  0.15294330000E+03 0.  0.
<mgrwt>
<rscale>  0 0.62782243E+03</rscale>
<asrwt>0</asrwt>
<pdfrwt beam="1">  1        2 0.56522180E+00 0.74369649E+03</pdfrwt>
<pdfrwt beam="2">  1       -2 0.38871629E-01 0.74369649E+03</pdfrwt>
<totfact> 0.41706726E+00</totfact>
</mgrwt>
</event>
<event>
 4    5  0.1112901E-007  0.6923099E+03  0.7818608E-02  0.1003073E+00
         -2   -1    0    0    0  501 -0.00000000000E+00  0.00000000000E+00  0.19212125959E+03  0.19212125961E+03  0.25500000000E-02 0.  1.
          2   -1    0    0  501    0  0.00000000000E+00 -0.00000000000E+00 -0.20104147377E+04  0.20104147377E+04  0.25500000000E-02 0. -1.
    8880023    1    1    2    0    0 -0.12036498780E+03  0.17605407768E+03 -0.48902298915E+03  0.84760631117E+03  0.65864270000E+03 0.  1.
    8880022    1    1    2    0    0  0.12036498780E+03 -0.17605407768E+03 -0.13292704890E+04  0.13549296862E+04  0.15294330000E+03 0.  0.
<mgrwt>
<rscale>  0 0.54322862E+03</rscale>
<asrwt>0</asrwt>
<pdfrwt beam="1">  1        2 0.30929456E+00 0.69230988E+03</pdfrwt>
<pdfrwt beam="2">  1       -2 0.29557118E-01 0.69230988E+03</pdfrwt>
<totfact> 0.71921454E+01</totfact>
</mgrwt>
</event>
<event>
 4    5  0.1112901E-007  0.1035001E+04  0.7818608E-02  0.9337133E-01
          2   -1    0    0  501    0  0.00000000000E+00  0.00000000000E+00  0.17735441368E+04  0.17735441368E+04  0.25500000000E-02 0. -1.
         -2   -1    0    0    0  501 -0.00000000000E+00 -0.00000000000E+00 -0.89568753610E+03  0.89568753610E+03  0.25500000000E-02 0.  1.
    8880023    1    1    2    0    0 -0.44512224863E+03  0.66278429421E+03 -0.43692363560E+03  0.11234452842E+04  0.65864270000E+03 0.  1.
    8880022    1    1    2    0    0  0.44512224863E+03 -0.66278429421E+03  0.13147802363E+04  0.15457863888E+04  0.15294330000E+03 0.  0.
<mgrwt>
<rscale>  0 0.97435008E+03</rscale>
<asrwt>0</asrwt>
<pdfrwt beam="1">  1        2 0.27285294E+00 0.10350010E+04</pdfrwt>
<pdfrwt beam="2">  1       -2 0.13779809E+00 0.10350010E+04</pdfrwt>
<totfact> 0.33109357E+00</totfact>
</mgrwt>
</event>
<event>
 4    5  0.1112901E-007  0.1035365E+04  0.7818608E-02  0.9336685E-01
         -2   -1    0    0    0  501 -0.00000000000E+00  0.00000000000E+00  0.22972437268E+04  0.22972437268E+04  0.25500000000E-02 0.  1.
          2   -1    0    0  501    0  0.00000000000E+00 -0.00000000000E+00 -0.10647305962E+04  0.10647305962E+04  0.25500000000E-02 0. -1.
    8880023    1    1    2    0    0 -0.79302445314E+03 -0.96346024643E+02  0.19946383858E+04  0.22473457313E+04  0.65864270000E+03 0.  1.
    8880022    1    1    2    0    0  0.79302445314E+03  0.96346024643E+02 -0.76212525515E+03  0.11146285916E+04  0.15294330000E+03 0.  0.
<mgrwt>
<rscale>  0 0.97474588E+03</rscale>
<asrwt>0</asrwt>
<pdfrwt beam="1">  1        2 0.16380471E+00 0.10353649E+04</pdfrwt>
<pdfrwt beam="2">  1       -2 0.35342211E+00 0.10353649E+04</pdfrwt>
<totfact> 0.34126244E-01</totfact>
</mgrwt>
</event>
<event>
 4    5  0.1112901E-007  0.1296555E+04  0.7818608E-02  0.9068540E-01
          2   -1    0    0  501    0  0.00000000000E+00  0.00000000000E+00  0.23277236150E+04  0.23277236150E+04  0.25500000000E-02 0. -1.
         -2   -1    0    0    0  501 -0.00000000000E+00 -0.00000000000E+00 -0.13160121102E+04  0.13160121102E+04  0.25500000000E-02 0.  1.
    8880023    1    1    2    0    0  0.11137471089E+04 -0.82539352346E+02 -0.79013527391E+03  0.15183442708E+04  0.65864270000E+03 0.  0.
    8880022    1    1    2    0    0 -0.11137471089E+04  0.82539352346E+02  0.18018467787E+04  0.21253914544E+04  0.15294330000E+03 0.  0.
<mgrwt>
<rscale>  0 0.12519759E+04</rscale>
<asrwt>0</asrwt>
<pdfrwt beam="1">  1        2 0.35811133E+00 0.12965553E+04</pdfrwt>
<pdfrwt beam="2">  1       -2 0.20246340E+00 0.12965553E+04</pdfrwt>
<totfact> 0.53876789E-01</totfact>
</mgrwt>
</event>
<event>
 4    5  0.1112901E-007  0.6924907E+03  0.7818608E-02  0.1002991E+00
          2   -1    0    0  501    0  0.00000000000E+00  0.00000000000E+00  0.14402737475E+04  0.14402737476E+04  0.25500000000E-02 0. -1.
         -2   -1    0    0    0  501 -0.00000000000E+00 -0.00000000000E+00 -0.75932754602E+03  0.75932754603E+03  0.25500000000E-02 0.  1.
    8880023    1    1    2    0    0  0.36620673277E+02 -0.21069428639E+03 -0.58507834282E+03  0.90656496156E+03  0.65864270000E+03 0.  1.
    8880022    1    1    2    0    0 -0.36620673277E+02  0.21069428639E+03  0.12660245443E+04  0.12930363320E+04  0.15294330000E+03 0.  0.
<mgrwt>
<rscale>  0 0.54358154E+03</rscale>
<asrwt>0</asrwt>
<pdfrwt beam="1">  1        2 0.22158057E+00 0.69249069E+03</pdfrwt>
<pdfrwt beam="2">  1       -2 0.11681963E+00 0.69249069E+03</pdfrwt>
<totfact> 0.80394137E+00</totfact>
</mgrwt>
</event>
<event>
 4    5  0.1112901E-007  0.1122412E+04  0.7818608E-02  0.9236504E-01
          2   -1    0    0  501    0  0.00000000000E+00  0.00000000000E+00  0.24986432800E+04  0.24986432800E+04  0.25500000000E-02 0. -1.
         -2   -1    0    0    0  501 -0.00000000000E+00 -0.00000000000E+00 -0.59558064742E+03  0.59558064743E+03  0.25500000000E-02 0.  1.
    8880023    1    1    2    0    0  0.66089342208E+03 -0.62387302545E+03  0.17529453567E+03  0.11360176265E+04  0.65864270000E+03 0.  1.
    8880022    1    1    2    0    0 -0.66089342208E+03  0.62387302545E+03  0.17277680969E+04  0.19582063009E+04  0.15294330000E+03 0.  0.
<mgrwt>
<rscale>  0 0.10684457E+04</rscale>
<asrwt>0</asrwt>
<pdfrwt beam="1">  1        2 0.38440666E+00 0.11224116E+04</pdfrwt>
<pdfrwt beam="2">  1       -2 0.91627793E-01 0.11224116E+04</pdfrwt>
<totfact> 0.35128887E+00</totfact>
</mgrwt>
</event>
<event>
 4    5  0.1112901E-007  0.7447577E+03  0.7818608E-02  0.9846299E-01
         -2   -1    0    0    0  501 -0.00000000000E+00  0.00000000000E+00  0.35490234306E+03  0.35490234307E+03  0.25500000000E-02 0.  1.
          2   -1    0    0  501    0  0.00000000000E+00 -0.00000000000E+00 -0.14305040822E+04  0.14305040822E+04  0.25500000000E-02 0. -1.
    8880023    1    1    2    0    0 -0.34643166514E+03  0.28964272557E+02 -0.11646230155E+03  0.75380866381E+03  0.65864270000E+03 0.  0.
    8880022    1    1    2    0    0  0.34643166514E+03 -0.28964272557E+02 -0.95913943756E+03  0.10315977614E+04  0.15294330000E+03 0.  0.
<mgrwt>
<rscale>  0 0.62935984E+03</rscale>
<asrwt>0</asrwt>
<pdfrwt beam="1">  1        2 0.22007755E+00 0.74475770E+03</pdfrwt>
<pdfrwt beam="2">  1       -2 0.54600361E-01 0.74475770E+03</pdfrwt>
<totfact> 0.44828750E+01</totfact>
</mgrwt>
</event>
<event>
 4    5  0.1112901E-007  0.1431711E+04  0.7818608E-02  0.8959426E-01
         -2   -1    0    0    0  501 -0.00000000000E+00  0.00000000000E+00  0.12429462821E+04  0.12429462821E+04  0.25500000000E-02 0.  1.
          2   -1    0    0  501    0  0.00000000000E+00 -0.00000000000E+00 -0.21760823473E+04  0.21760823473E+04  0.25500000000E-02 0. -1.
    8880023    1    1    2    0    0  0.12549744143E+04 -0.20254416694E+03  0.48196343061E+03  0.15106567693E+04  0.65864270000E+03 0.  0.
    8880022    1    1    2    0    0 -0.12549744143E+04  0.20254416694E+03 -0.14150994959E+04  0.19083718601E+04  0.15294330000E+03 0.  0.
<mgrwt>
<rscale>  0 0.13922790E+04</rscale>
<asrwt>0</asrwt>
<pdfrwt beam="1">  1        2 0.33478190E+00 0.14317106E+04</pdfrwt>
<pdfrwt beam="2">  1       -2 0.19122250E+00 0.14317106E+04</pdfrwt>
<totfact> 0.76686601E-01</totfact>
</mgrwt>
</event>
<event>
 4    5  0.1112901E-007  0.7114030E+03  0.7818608E-02  0.9952828E-01
         -2   -1    0    0    0  501 -0.00000000000E+00  0.00000000000E+00  0.85914310780E+03  0.85914310781E+03  0.25500000000E-02 0.  1.
          2   -1    0    0  501    0  0.00000000000E+00 -0.00000000000E+00 -0.75969686709E+03  0.75969686710E+03  0.25500000000E-02 0. -1.
    8880023    1    1    2    0    0 -0.24873854930E+03  0.10204462165E+03  0.66526249063E+03  0.97399607721E+03  0.65864270000E+03 0.  1.
    8880022    1    1    2    0    0  0.24873854930E+03 -0.10204462165E+03 -0.56581624992E+03  0.64484389770E+03  0.15294330000E+03 0.  0.
<mgrwt>
<rscale>  0 0.57767945E+03</rscale>
<asrwt>0</asrwt>
<pdfrwt beam="1">  1        2 0.11687644E+00 0.71140296E+03</pdfrwt>
<pdfrwt beam="2">  1       -2 0.13217586E+00 0.71140296E+03</pdfrwt>
<totfact> 0.15644084E+01</totfact>
</mgrwt>
</event>
<event>
 4    5  0.1112901E-007  0.8096455E+03  0.7818608E-02  0.9690316E-01
          2   -1    0    0  501    0  0.00000000000E+00  0.00000000000E+00  0.10531738332E+04  0.10531738332E+04  0.25500000000E-02 0. -1.
         -2   -1    0    0    0  501 -0.00000000000E+00 -0.00000000000E+00 -0.61203169418E+03  0.61203169419E+03  0.25500000000E-02 0.  1.
    8880023    1    1    2    0    0  0.26876722783E+03  0.38662617696E+03 -0.22022472434E+03  0.83906183261E+03  0.65864270000E+03 0.  1.
    8880022    1    1    2    0    0 -0.26876722783E+03 -0.38662617696E+03  0.66136686336E+03  0.82614369478E+03  0.15294330000E+03 0.  0.
<mgrwt>
<rscale>  0 0.71596321E+03</rscale>
<asrwt>0</asrwt>
<pdfrwt beam="1">  1        2 0.16202674E+00 0.80964550E+03</pdfrwt>
<pdfrwt beam="2">  1       -2 0.94158723E-01 0.80964550E+03</pdfrwt>
<totfact> 0.22416287E+01</totfact>
</mgrwt>
</event>
<event>
 4    5  0.1112901E-007  0.1051784E+04  0.7818608E-02  0.9316740E-01
         -2   -1    0    0    0  501 -0.00000000000E+00  0.00000000000E+00  0.40319476946E+03  0.40319476947E+03  0.25500000000E-02 0.  1.
          2   -1    0    0  501    0  0.00000000000E+00 -0.00000000000E+00 -0.28543068605E+04  0.28543068605E+04  0.25500000000E-02 0. -1.
    8880023    1    1    2    0    0  0.50679580222E+02  0.81845677118E+03 -0.56222380827E+03  0.11926213661E+04  0.65864270000E+03 0.  1.
    8880022    1    1    2    0    0 -0.50679580222E+02 -0.81845677118E+03 -0.18888882828E+04  0.20648802638E+04  0.15294330000E+03 0.  0.
<mgrwt>
<rscale>  0 0.99256284E+03</rscale>
<asrwt>0</asrwt>
<pdfrwt beam="1">  1        2 0.43912412E+00 0.10517843E+04</pdfrwt>
<pdfrwt beam="2">  1       -2 0.62029966E-01 0.10517843E+04</pdfrwt>
<totfact> 0.52334440E+00</totfact>
</mgrwt>
</event>
<event>
 4    5  0.1112901E-007  0.9855299E+03  0.7818608E-02  0.9400739E-01
         -2   -1    0    0    0  501 -0.00000000000E+00  0.00000000000E+00  0.72934704259E+03  0.72934704260E+03  0.25500000000E-02 0.  1.
          2   -1    0    0  501    0  0.00000000000E+00 -0.00000000000E+00 -0.23324040100E+04  0.23324040100E+04  0.25500000000E-02 0. -1.
    8880023    1    1    2    0    0  0.77642118010E+02  0.72899288130E+03  0.28887027514E+03  0.10269932627E+04  0.65864270000E+03 0.  0.
    8880022    1    1    2    0    0 -0.77642118010E+02 -0.72899288130E+03 -0.18919272425E+04  0.20347577899E+04  0.15294330000E+03 0.  0.
<mgrwt>
<rscale>  0 0.92014917E+03</rscale>
<asrwt>0</asrwt>
<pdfrwt beam="1">  1        2 0.35883138E+00 0.98552987E+03</pdfrwt>
<pdfrwt beam="2">  1       -2 0.11220724E+00 0.98552987E+03</pdfrwt>
<totfact> 0.27386124E+00</totfact>
</mgrwt>
</event>
<event>
 4    5  0.1112901E-007  0.7433981E+03  0.7818608E-02  0.9850157E-01
         -2   -1    0    0    0  501 -0.00000000000E+00  0.00000000000E+00  0.35741128632E+03  0.35741128633E+03  0.25500000000E-02 0.  1.
          2   -1    0    0  501    0  0.00000000000E+00 -0.00000000000E+00 -0.14827512869E+04  0.14827512869E+04  0.25500000000E-02 0. -1.
    8880023    1    1    2    0    0  0.25477990573E+03  0.23220203746E+03 -0.12401977028E+04  0.14459360757E+04  0.65864270000E+03 0.  0.
    8880022    1    1    2    0    0 -0.25477990573E+03 -0.23220203746E+03  0.11485770228E+03  0.39422649753E+03  0.15294330000E+03 0.  0.
<mgrwt>
<rscale>  0 0.62738920E+03</rscale>
<asrwt>0</asrwt>
<pdfrwt beam="1">  1        2 0.22811558E+00 0.74339814E+03</pdfrwt>
<pdfrwt beam="2">  1       -2 0.54986353E-01 0.74339814E+03</pdfrwt>
<totfact> 0.41305692E+01</totfact>
</mgrwt>
</event>
<event>
 4    5  0.1112901E-007  0.1052042E+04  0.7818608E-02  0.9316430E-01
         -2   -1    0    0    0  501 -0.00000000000E+00  0.00000000000E+00  0.37108353621E+04  0.37108353621E+04  0.25500000000E-02 0.  1.
          2   -1    0    0  501    0  0.00000000000E+00 -0.00000000000E+00 -0.42199192349E+03  0.42199192349E+03  0.25500000000E-02 0. -1.
    8880023    1    1    2    0    0 -0.66867809929E+03 -0.47523958791E+03  0.31049167473E+04  0.32783076854E+04  0.65864270000E+03 0.  0.
    8880022    1    1    2    0    0  0.66867809929E+03  0.47523958791E+03  0.18392669140E+03  0.85451960025E+03  0.15294330000E+03 0.  0.
<mgrwt>
<rscale>  0 0.99284240E+03</rscale>
<asrwt>0</asrwt>
<pdfrwt beam="1">  1        2 0.64921834E-01 0.10520424E+04</pdfrwt>
<pdfrwt beam="2">  1       -2 0.57089775E+00 0.10520424E+04</pdfrwt>
<totfact> 0.49658710E-02</totfact>
</mgrwt>
</event>
<event>
 4    5  0.1112901E-007  0.8756503E+03  0.7818608E-02  0.9566309E-01
         -2   -1    0    0    0  501 -0.00000000000E+00  0.00000000000E+00  0.45187966685E+03  0.45187966686E+03  0.25500000000E-02 0.  1.
          2   -1    0    0  501    0  0.00000000000E+00 -0.00000000000E+00 -0.15664112613E+04  0.15664112613E+04  0.25500000000E-02 0. -1.
    8880023    1    1    2    0    0  0.43707452303E+03 -0.37672154246E+03 -0.15653830908E+03  0.88953229717E+03  0.65864270000E+03 0.  1.
    8880022    1    1    2    0    0 -0.43707452303E+03  0.37672154246E+03 -0.95799328539E+03  0.11287586310E+04  0.15294330000E+03 0.  0.
<mgrwt>
<rscale>  0 0.79566792E+03</rscale>
<asrwt>0</asrwt>
<pdfrwt beam="1">  1        2 0.24098635E+00 0.87565031E+03</pdfrwt>
<pdfrwt beam="2">  1       -2 0.69519949E-01 0.87565031E+03</pdfrwt>
<totfact> 0.22209235E+01</totfact>
</mgrwt>
</event>
<event>
 4    5  0.1112901E-007  0.7556305E+03  0.7818608E-02  0.9816554E-01
          2   -1    0    0  501    0  0.00000000000E+00  0.00000000000E+00  0.17529351294E+04  0.17529351294E+04  0.25500000000E-02 0. -1.
         -2   -1    0    0    0  501 -0.00000000000E+00 -0.00000000000E+00 -0.71295535750E+03  0.71295535750E+03  0.25500000000E-02 0.  1.
    8880023    1    1    2    0    0 -0.36750501946E+03  0.45905645297E+02 -0.47919135215E+03  0.89476355862E+03  0.65864270000E+03 0.  1.
    8880022    1    1    2    0    0  0.36750501946E+03 -0.45905645297E+02  0.15191711241E+04  0.15711269283E+04  0.15294330000E+03 0.  0.
<mgrwt>
<rscale>  0 0.64481691E+03</rscale>
<asrwt>0</asrwt>
<pdfrwt beam="1">  1        2 0.26968233E+00 0.75563051E+03</pdfrwt>
<pdfrwt beam="2">  1       -2 0.10968544E+00 0.75563051E+03</pdfrwt>
<totfact> 0.62407061E+00</totfact>
</mgrwt>
</event>
<event>
 4    5  0.1112901E-007  0.1215754E+04  0.7818608E-02  0.9141958E-01
          2   -1    0    0  501    0  0.00000000000E+00  0.00000000000E+00  0.24486357883E+04  0.24486357883E+04  0.25500000000E-02 0. -1.
         -2   -1    0    0    0  501 -0.00000000000E+00 -0.00000000000E+00 -0.73094637939E+03  0.73094637940E+03  0.25500000000E-02 0.  1.
    8880023    1    1    2    0    0 -0.10133749166E+04 -0.13160438624E+03  0.48817774379E+02  0.12167340784E+04  0.65864270000E+03 0.  0.
    8880022    1    1    2    0    0  0.10133749166E+04  0.13160438624E+03  0.16688716345E+04  0.19628480893E+04  0.15294330000E+03 0.  0.
<mgrwt>
<rscale>  0 0.11673134E+04</rscale>
<asrwt>0</asrwt>
<pdfrwt beam="1">  1        2 0.37671319E+00 0.12157544E+04</pdfrwt>
<pdfrwt beam="2">  1       -2 0.11245329E+00 0.12157544E+04</pdfrwt>
<totfact> 0.22732940E+00</totfact>
</mgrwt>
</event>
<event>
 4    5  0.1112901E-007  0.9386321E+03  0.7818608E-02  0.9466662E-01
          2   -1    0    0  501    0  0.00000000000E+00  0.00000000000E+00  0.16758237375E+04  0.16758237375E+04  0.25500000000E-02 0. -1.
         -2   -1    0    0    0  501 -0.00000000000E+00 -0.00000000000E+00 -0.49284468446E+03  0.49284468446E+03  0.25500000000E-02 0.  1.
    8880023    1    1    2    0    0  0.44815483921E+03  0.49636399336E+03  0.18348509640E+03  0.95639790917E+03  0.65864270000E+03 0.  0.
    8880022    1    1    2    0    0 -0.44815483921E+03 -0.49636399336E+03  0.99949395669E+03  0.12122705128E+04  0.15294330000E+03 0.  0.
<mgrwt>
<rscale>  0 0.86786940E+03</rscale>
<asrwt>0</asrwt>
<pdfrwt beam="1">  1        2 0.25781904E+00 0.93863208E+03</pdfrwt>
<pdfrwt beam="2">  1       -2 0.75822258E-01 0.93863208E+03</pdfrwt>
<totfact> 0.15846644E+01</totfact>
</mgrwt>
</event>
<event>
 4    5  0.1112901E-007  0.1643530E+04  0.7818608E-02  0.8814417E-01
          2   -1    0    0  501    0  0.00000000000E+00  0.00000000000E+00  0.17008249653E+04  0.17008249653E+04  0.25500000000E-02 0. -1.
         -2   -1    0    0    0  501 -0.00000000000E+00 -0.00000000000E+00 -0.23082792328E+04  0.23082792328E+04  0.25500000000E-02 0.  1.
    8880023    1    1    2    0    0 -0.11806739588E+04 -0.93455250212E+03 -0.15225920636E+04  0.22404187498E+04  0.65864270000E+03 0.  0.
    8880022    1    1    2    0    0  0.11806739588E+04  0.93455250212E+03  0.91513779605E+03  0.17686854483E+04  0.15294330000E+03 0.  0.
<mgrwt>
<rscale>  0 0.16100185E+04</rscale>
<asrwt>0</asrwt>
<pdfrwt beam="1">  1        2 0.26166538E+00 0.16435296E+04</pdfrwt>
<pdfrwt beam="2">  1       -2 0.35511988E+00 0.16435296E+04</pdfrwt>
<totfact> 0.13087601E-01</totfact>
</mgrwt>
</event>
<event>
 4    5  0.1112901E-007  0.1048035E+04  0.7818608E-02  0.9321247E-01
         -2   -1    0    0    0  501 -0.00000000000E+00  0.00000000000E+00  0.36572730958E+03  0.36572730959E+03  0.25500000000E-02 0.  1.
          2   -1    0    0  501    0  0.00000000000E+00 -0.00000000000E+00 -0.41138796148E+04  0.41138796148E+04  0.25500000000E-02 0. -1.
    8880023    1    1    2    0    0  0.29887102208E+03 -0.75844842168E+03 -0.56594324676E+03  0.11910792841E+04  0.65864270000E+03 0.  1.
    8880022    1    1    2    0    0 -0.29887102208E+03  0.75844842168E+03 -0.31822090584E+04  0.32885276403E+04  0.15294330000E+03 0.  0.
<mgrwt>
<rscale>  0 0.98850145E+03</rscale>
<asrwt>0</asrwt>
<pdfrwt beam="1">  1        2 0.63290452E+00 0.10480354E+04</pdfrwt>
<pdfrwt beam="2">  1       -2 0.56265743E-01 0.10480354E+04</pdfrwt>
<totfact> 0.85742515E-01</totfact>
</mgrwt>
</event>
<event>
 4    5  0.1112901E-007  0.7988195E+03  0.7818608E-02  0.9713354E-01
         -2   -1    0    0    0  501 -0.00000000000E+00  0.00000000000E+00  0.12148261329E+04  0.12148261329E+04  0.25500000000E-02 0.  1.
          2   -1    0    0  501    0  0.00000000000E+00 -0.00000000000E+00 -0.64356192828E+03  0.64356192828E+03  0.25500000000E-02 0. -1.
    8880023    1    1    2    0    0 -0.21051242144E+03 -0.39998367906E+03  0.95572692161E+03  0.12456028974E+04  0.65864270000E+03 0.  0.
    8880022    1    1    2    0    0  0.21051242144E+03  0.39998367906E+03 -0.38446271702E+03  0.61278516373E+03  0.15294330000E+03 0.  0.
<mgrwt>
<rscale>  0 0.70227219E+03</rscale>
<asrwt>0</asrwt>
<pdfrwt beam="1">  1        2 0.99009529E-01 0.79881952E+03</pdfrwt>
<pdfrwt beam="2">  1       -2 0.18689633E+00 0.79881952E+03</pdfrwt>
<totfact> 0.75001798E+00</totfact>
</mgrwt>
</event>
<event>
 4    5  0.1112901E-007  0.7401940E+03  0.7818608E-02  0.9859382E-01
         -2   -1    0    0    0  501 -0.00000000000E+00  0.00000000000E+00  0.23290877375E+03  0.23290877376E+03  0.25500000000E-02 0.  1.
          2   -1    0    0  501    0  0.00000000000E+00 -0.00000000000E+00 -0.13753623153E+04  0.13753623153E+04  0.25500000000E-02 0. -1.
    8880023    1    1    2    0    0 -0.28911151688E+03  0.17461812727E+03 -0.60846218338E+03  0.95818233882E+03  0.65864270000E+03 0.  0.
    8880022    1    1    2    0    0  0.28911151688E+03 -0.17461812727E+03 -0.53399135816E+03  0.65008875022E+03  0.15294330000E+03 0.  0.
<mgrwt>
<rscale>  0 0.62270825E+03</rscale>
<asrwt>0</asrwt>
<pdfrwt beam="1">  1        2 0.21159420E+00 0.74019401E+03</pdfrwt>
<pdfrwt beam="2">  1       -2 0.35832120E-01 0.74019401E+03</pdfrwt>
<totfact> 0.11134320E+02</totfact>
</mgrwt>
</event>
<event>
 4    5  0.1112901E-007  0.9668694E+03  0.7818608E-02  0.9426247E-01
         -2   -1    0    0    0  501 -0.00000000000E+00  0.00000000000E+00  0.10727394929E+04  0.10727394929E+04  0.25500000000E-02 0.  1.
          2   -1    0    0  501    0  0.00000000000E+00 -0.00000000000E+00 -0.13226767455E+04  0.13226767455E+04  0.25500000000E-02 0. -1.
    8880023    1    1    2    0    0  0.65611935275E+03 -0.26558176859E+03  0.70524898793E+03  0.11967508605E+04  0.65864270000E+03 0.  0.
    8880022    1    1    2    0    0 -0.65611935275E+03  0.26558176859E+03 -0.95518624054E+03  0.11986653778E+04  0.15294330000E+03 0.  0.
<mgrwt>
<rscale>  0 0.89946768E+03</rscale>
<asrwt>0</asrwt>
<pdfrwt beam="1">  1        2 0.20348873E+00 0.96686943E+03</pdfrwt>
<pdfrwt beam="2">  1       -2 0.16503685E+00 0.96686943E+03</pdfrwt>
<totfact> 0.36933515E+00</totfact>
</mgrwt>
</event>
<event>
 4    5  0.1112901E-007  0.9845871E+03  0.7818608E-02  0.9402006E-01
         -2   -1    0    0    0  501 -0.00000000000E+00  0.00000000000E+00  0.71457442914E+03  0.71457442914E+03  0.25500000000E-02 0.  1.
          2   -1    0    0  501    0  0.00000000000E+00 -0.00000000000E+00 -0.17452210682E+04  0.17452210682E+04  0.25500000000E-02 0. -1.
    8880023    1    1    2    0    0  0.14217085950E+03  0.71790603421E+03  0.21425917030E+03  0.10076303020E+04  0.65864270000E+03 0. -1.
    8880022    1    1    2    0    0 -0.14217085950E+03 -0.71790603421E+03 -0.12449058093E+04  0.14521651953E+04  0.15294330000E+03 0.  0.
<mgrwt>
<rscale>  0 0.91910778E+03</rscale>
<asrwt>0</asrwt>
<pdfrwt beam="1">  1        2 0.26849555E+00 0.98458714E+03</pdfrwt>
<pdfrwt beam="2">  1       -2 0.10993453E+00 0.98458714E+03</pdfrwt>
<totfact> 0.60807110E+00</totfact>
</mgrwt>
</event>
<event>
 4    5  0.1112901E-007  0.7228397E+03  0.7818608E-02  0.9913092E-01
         -2   -1    0    0    0  501 -0.00000000000E+00  0.00000000000E+00  0.98018339816E+03  0.98018339816E+03  0.25500000000E-02 0.  1.
          2   -1    0    0  501    0  0.00000000000E+00 -0.00000000000E+00 -0.71479020300E+03  0.71479020300E+03  0.25500000000E-02 0. -1.
    8880023    1    1    2    0    0  0.13571632565E+03 -0.26508135550E+03  0.79117228850E+03  0.10716579876E+04  0.65864270000E+03 0.  0.
    8880022    1    1    2    0    0 -0.13571632565E+03  0.26508135550E+03 -0.52577909334E+03  0.62331561354E+03  0.15294330000E+03 0.  0.
<mgrwt>
<rscale>  0 0.59630972E+03</rscale>
<asrwt>0</asrwt>
<pdfrwt beam="1">  1        2 0.10996772E+00 0.72283971E+03</pdfrwt>
<pdfrwt beam="2">  1       -2 0.15079745E+00 0.72283971E+03</pdfrwt>
<totfact> 0.12003705E+01</totfact>
</mgrwt>
</event>
<event>
 4    5  0.1112901E-007  0.6754503E+03  0.7818608E-02  0.1012024E+00
          2   -1    0    0  501    0  0.00000000000E+00  0.00000000000E+00  0.25497611897E+04  0.25497611897E+04  0.25500000000E-02 0. -1.
         -2   -1    0    0    0  501 -0.00000000000E+00 -0.00000000000E+00 -0.57215921648E+03  0.57215921649E+03  0.25500000000E-02 0.  1.
    8880023    1    1    2    0    0  0.44656972435E+02 -0.14292875944E+03 -0.36622188612E+03  0.76834338131E+03  0.65864270000E+03 0.  1.
    8880022    1    1    2    0    0 -0.44656972435E+02  0.14292875944E+03  0.23438238593E+04  0.23535770248E+04  0.15294330000E+03 0.  0.
<mgrwt>
<rscale>  0 0.50678114E+03</rscale>
<asrwt>0</asrwt>
<pdfrwt beam="1">  1        2 0.39227096E+00 0.67545028E+03</pdfrwt>
<pdfrwt beam="2">  1       -2 0.88024494E-01 0.67545028E+03</pdfrwt>
<totfact> 0.38656582E+00</totfact>
</mgrwt>
</event>
<event>
 4    5  0.1112901E-007  0.8608645E+03  0.7818608E-02  0.9592028E-01
         -2   -1    0    0    0  501 -0.00000000000E+00  0.00000000000E+00  0.54492700671E+03  0.54492700671E+03  0.25500000000E-02 0.  1.
          2   -1    0    0  501    0  0.00000000000E+00 -0.00000000000E+00 -0.32556343607E+04  0.32556343607E+04  0.25500000000E-02 0. -1.
    8880023    1    1    2    0    0 -0.33647531316E+03  0.44052445311E+03  0.15760720258E+03  0.87517293532E+03  0.65864270000E+03 0.  0.
    8880022    1    1    2    0    0  0.33647531316E+03 -0.44052445311E+03 -0.28683145566E+04  0.29253884321E+04  0.15294330000E+03 0.  0.
<mgrwt>
<rscale>  0 0.77826103E+03</rscale>
<asrwt>0</asrwt>
<pdfrwt beam="1">  1        2 0.50086681E+00 0.86086447E+03</pdfrwt>
<pdfrwt beam="2">  1       -2 0.83834926E-01 0.86086447E+03</pdfrwt>
<totfact> 0.15609974E+00</totfact>
</mgrwt>
</event>
<event>
 4    5  0.1112901E-007  0.8306008E+03  0.7818608E-02  0.9648164E-01
         -2   -1    0    0    0  501 -0.00000000000E+00  0.00000000000E+00  0.29101132904E+03  0.29101132906E+03  0.25500000000E-02 0.  1.
          2   -1    0    0  501    0  0.00000000000E+00 -0.00000000000E+00 -0.30854529685E+04  0.30854529685E+04  0.25500000000E-02 0. -1.
    8880023    1    1    2    0    0  0.48902716593E+03 -0.13015372940E+03 -0.39548676580E+03  0.91994975432E+03  0.65864270000E+03 0.  1.
    8880022    1    1    2    0    0 -0.48902716593E+03  0.13015372940E+03 -0.23989548737E+04  0.24565145433E+04  0.15294330000E+03 0.  0.
<mgrwt>
<rscale>  0 0.74188735E+03</rscale>
<asrwt>0</asrwt>
<pdfrwt beam="1">  1        2 0.47468505E+00 0.83060085E+03</pdfrwt>
<pdfrwt beam="2">  1       -2 0.44770976E-01 0.83060085E+03</pdfrwt>
<totfact> 0.76525058E+00</totfact>
</mgrwt>
</event>
<event>
 4    5  0.1112901E-007  0.6813921E+03  0.7818608E-02  0.1008547E+00
          2   -1    0    0  501    0  0.00000000000E+00  0.00000000000E+00  0.63062807910E+03  0.63062807911E+03  0.25500000000E-02 0. -1.
         -2   -1    0    0    0  501 -0.00000000000E+00 -0.00000000000E+00 -0.93563339283E+03  0.93563339284E+03  0.25500000000E-02 0.  1.
    8880023    1    1    2    0    0  0.13580249368E+03 -0.10973906654E+03 -0.78113625828E+03  0.10365659845E+04  0.65864270000E+03 0.  1.
    8880022    1    1    2    0    0 -0.13580249368E+03  0.10973906654E+03  0.47613094455E+03  0.52969548742E+03  0.15294330000E+03 0.  0.
<mgrwt>
<rscale>  0 0.52056249E+03</rscale>
<asrwt>0</asrwt>
<pdfrwt beam="1">  1        2 0.97019704E-01 0.68139209E+03</pdfrwt>
<pdfrwt beam="2">  1       -2 0.14394360E+00 0.68139209E+03</pdfrwt>
<totfact> 0.15922945E+01</totfact>
</mgrwt>
</event>
<event>
 4    5  0.1112901E-007  0.7986987E+03  0.7818608E-02  0.9713617E-01
          2   -1    0    0  501    0  0.00000000000E+00  0.00000000000E+00  0.31345156580E+04  0.31345156580E+04  0.25500000000E-02 0. -1.
         -2   -1    0    0    0  501 -0.00000000000E+00 -0.00000000000E+00 -0.39609851027E+03  0.39609851027E+03  0.25500000000E-02 0.  1.
    8880023    1    1    2    0    0 -0.27971933002E+03 -0.35477673160E+03  0.50052855048E+02  0.80026553558E+03  0.65864270000E+03 0.  1.
    8880022    1    1    2    0    0  0.27971933002E+03  0.35477673160E+03  0.26883642927E+04  0.27303486327E+04  0.15294330000E+03 0.  0.
<mgrwt>
<rscale>  0 0.70211811E+03</rscale>
<asrwt>0</asrwt>
<pdfrwt beam="1">  1        2 0.48223320E+00 0.79869872E+03</pdfrwt>
<pdfrwt beam="2">  1       -2 0.60938229E-01 0.79869872E+03</pdfrwt>
<totfact> 0.38036006E+00</totfact>
</mgrwt>
</event>
<event>
 4    5  0.1112901E-007  0.8289009E+03  0.7818608E-02  0.9651475E-01
          2   -1    0    0  501    0  0.00000000000E+00  0.00000000000E+00  0.12972767847E+04  0.12972767847E+04  0.25500000000E-02 0. -1.
         -2   -1    0    0    0  501 -0.00000000000E+00 -0.00000000000E+00 -0.64325658686E+03  0.64325658686E+03  0.25500000000E-02 0.  1.
    8880023    1    1    2    0    0 -0.18999636419E+03  0.46601275144E+03 -0.27468006582E+03  0.87322726007E+03  0.65864270000E+03 0.  0.
    8880022    1    1    2    0    0  0.18999636419E+03 -0.46601275144E+03  0.92870026370E+03  0.10673061115E+04  0.15294330000E+03 0.  0.
<mgrwt>
<rscale>  0 0.73980948E+03</rscale>
<asrwt>0</asrwt>
<pdfrwt beam="1">  1        2 0.19958104E+00 0.82890090E+03</pdfrwt>
<pdfrwt beam="2">  1       -2 0.98962553E-01 0.82890090E+03</pdfrwt>
<totfact> 0.14210608E+01</totfact>
</mgrwt>
</event>
<event>
 4    5  0.1112901E-007  0.8522672E+03  0.7818608E-02  0.9607469E-01
          2   -1    0    0  501    0  0.00000000000E+00  0.00000000000E+00  0.84430497362E+03  0.84430497362E+03  0.25500000000E-02 0. -1.
         -2   -1    0    0    0  501 -0.00000000000E+00 -0.00000000000E+00 -0.11610837870E+04  0.11610837870E+04  0.25500000000E-02 0.  1.
    8880023    1    1    2    0    0  0.26542704706E+03  0.47127240085E+03 -0.86917413761E+03  0.12173015571E+04  0.65864270000E+03 0.  1.
    8880022    1    1    2    0    0 -0.26542704706E+03 -0.47127240085E+03  0.55239532424E+03  0.78808720353E+03  0.15294330000E+03 0.  0.
<mgrwt>
<rscale>  0 0.76803773E+03</rscale>
<asrwt>0</asrwt>
<pdfrwt beam="1">  1        2 0.12989307E+00 0.85226721E+03</pdfrwt>
<pdfrwt beam="2">  1       -2 0.17862828E+00 0.85226721E+03</pdfrwt>
<totfact> 0.59781734E+00</totfact>
</mgrwt>
</event>
<event>
 4    5  0.1112901E-007  0.8744236E+03  0.7818608E-02  0.9568404E-01
         -2   -1    0    0    0  501 -0.00000000000E+00  0.00000000000E+00  0.27237453127E+04  0.27237453127E+04  0.25500000000E-02 0.  1.
          2   -1    0    0  501    0  0.00000000000E+00 -0.00000000000E+00 -0.34185867771E+03  0.34185867772E+03  0.25500000000E-02 0. -1.
    8880023    1    1    2    0    0 -0.39906659062E+03  0.41418869855E+03  0.23052791596E+04  0.24655483430E+04  0.65864270000E+03 0.  1.
    8880022    1    1    2    0    0  0.39906659062E+03 -0.41418869855E+03  0.76607475447E+02  0.60005564747E+03  0.15294330000E+03 0.  0.
<mgrwt>
<rscale>  0 0.79423163E+03</rscale>
<asrwt>0</asrwt>
<pdfrwt beam="1">  1        2 0.52593641E-01 0.87442360E+03</pdfrwt>
<pdfrwt beam="2">  1       -2 0.41903775E+00 0.87442360E+03</pdfrwt>
<totfact> 0.55010652E-01</totfact>
</mgrwt>
</event>
<event>
 4    5  0.1112901E-007  0.1194392E+04  0.7818608E-02  0.9162593E-01
          2   -1    0    0  501    0  0.00000000000E+00  0.00000000000E+00  0.27418520275E+04  0.27418520275E+04  0.25500000000E-02 0. -1.
         -2   -1    0    0    0  501 -0.00000000000E+00 -0.00000000000E+00 -0.55001555285E+03  0.55001555285E+03  0.25500000000E-02 0.  1.
    8880023    1    1    2    0    0 -0.82069621577E+02  0.99298863689E+03  0.18968211694E+04  0.22415402318E+04  0.65864270000E+03 0.  0.
    8880022    1    1    2    0    0  0.82069621577E+02 -0.99298863689E+03  0.29501530524E+03  0.10503273486E+04  0.15294330000E+03 0.  0.
<mgrwt>
<rscale>  0 0.11448012E+04</rscale>
<asrwt>0</asrwt>
<pdfrwt beam="1">  1        2 0.42182339E+00 0.11943919E+04</pdfrwt>
<pdfrwt beam="2">  1       -2 0.84617778E-01 0.11943919E+04</pdfrwt>
<totfact> 0.30193290E+00</totfact>
</mgrwt>
</event>
<event>
 4    5  0.1112901E-007  0.8469275E+03  0.7818608E-02  0.9617254E-01
         -2   -1    0    0    0  501 -0.00000000000E+00  0.00000000000E+00  0.76835182715E+03  0.76835182716E+03  0.25500000000E-02 0.  1.
          2   -1    0    0  501    0  0.00000000000E+00 -0.00000000000E+00 -0.16559971243E+04  0.16559971243E+04  0.25500000000E-02 0. -1.
    8880023    1    1    2    0    0  0.43808777389E+03  0.30258077157E+03  0.46249720651E+03  0.96498180980E+03  0.65864270000E+03 0.  0.
    8880022    1    1    2    0    0 -0.43808777389E+03 -0.30258077157E+03 -0.13501425037E+04  0.14593671417E+04  0.15294330000E+03 0.  0.
<mgrwt>
<rscale>  0 0.76164672E+03</rscale>
<asrwt>0</asrwt>
<pdfrwt beam="1">  1        2 0.25476879E+00 0.84692752E+03</pdfrwt>
<pdfrwt beam="2">  1       -2 0.11820797E+00 0.84692752E+03</pdfrwt>
<totfact> 0.58004693E+00</totfact>
</mgrwt>
</event>
<event>
 4    5  0.1112901E-007  0.6911302E+03  0.7818608E-02  0.1003620E+00
          2   -1    0    0  501    0  0.00000000000E+00  0.00000000000E+00  0.19392767946E+04  0.19392767946E+04  0.25500000000E-02 0. -1.
         -2   -1    0    0    0  501 -0.00000000000E+00 -0.00000000000E+00 -0.32589142801E+03  0.32589142802E+03  0.25500000000E-02 0.  1.
    8880023    1    1    2    0    0  0.15169569608E+03 -0.14435769091E+03  0.63836832814E+02  0.69407209613E+03  0.65864270000E+03 0.  1.
    8880022    1    1    2    0    0 -0.15169569608E+03  0.14435769091E+03  0.15495485337E+04  0.15710961265E+04  0.15294330000E+03 0.  0.
<mgrwt>
<rscale>  0 0.54091034E+03</rscale>
<asrwt>0</asrwt>
<pdfrwt beam="1">  1        2 0.29835028E+00 0.69113019E+03</pdfrwt>
<pdfrwt beam="2">  1       -2 0.50137142E-01 0.69113019E+03</pdfrwt>
<totfact> 0.28258158E+01</totfact>
</mgrwt>
</event>
<event>
 4    5  0.1112901E-007  0.1328473E+04  0.7818608E-02  0.9041354E-01
         -2   -1    0    0    0  501 -0.00000000000E+00  0.00000000000E+00  0.53292335488E+03  0.53292335488E+03  0.25500000000E-02 0.  1.
          2   -1    0    0  501    0  0.00000000000E+00 -0.00000000000E+00 -0.33907687129E+04  0.33907687129E+04  0.25500000000E-02 0. -1.
    8880023    1    1    2    0    0 -0.51603223354E+03  0.10318628776E+04 -0.77566663369E+03  0.15383430037E+04  0.65864270000E+03 0.  0.
    8880022    1    1    2    0    0  0.51603223354E+03 -0.10318628776E+04 -0.20821787244E+04  0.23853490641E+04  0.15294330000E+03 0.  0.
<mgrwt>
<rscale>  0 0.12852387E+04</rscale>
<asrwt>0</asrwt>
<pdfrwt beam="1">  1        2 0.52165671E+00 0.13284730E+04</pdfrwt>
<pdfrwt beam="2">  1       -2 0.81988210E-01 0.13284730E+04</pdfrwt>
<totfact> 0.12448501E+00</totfact>
</mgrwt>
</event>
<event>
 4    5  0.1112901E-007  0.1206626E+04  0.7818608E-02  0.9150708E-01
         -2   -1    0    0    0  501 -0.00000000000E+00  0.00000000000E+00  0.14968569900E+04  0.14968569900E+04  0.25500000000E-02 0.  1.
          2   -1    0    0  501    0  0.00000000000E+00 -0.00000000000E+00 -0.24433157247E+04  0.24433157247E+04  0.25500000000E-02 0. -1.
    8880023    1    1    2    0    0 -0.35472547340E+03 -0.94673443386E+03  0.11125477072E+04  0.16412522222E+04  0.65864270000E+03 0.  1.
    8880022    1    1    2    0    0  0.35472547340E+03  0.94673443386E+03 -0.20590064420E+04  0.22989204925E+04  0.15294330000E+03 0.  0.
<mgrwt>
<rscale>  0 0.11577012E+04</rscale>
<asrwt>0</asrwt>
<pdfrwt beam="1">  1        2 0.37589473E+00 0.12066261E+04</pdfrwt>
<pdfrwt beam="2">  1       -2 0.23028569E+00 0.12066261E+04</pdfrwt>
<totfact> 0.31158557E-01</totfact>
</mgrwt>
</event>
<event>
 4    5  0.1112901E-007  0.7667922E+03  0.7818608E-02  0.9787830E-01
         -2   -1    0    0    0  501 -0.00000000000E+00  0.00000000000E+00  0.30737413105E+03  0.30737413106E+03  0.25500000000E-02 0.  1.
          2   -1    0    0  501    0  0.00000000000E+00 -0.00000000000E+00 -0.21371298749E+04  0.21371298749E+04  0.25500000000E-02 0. -1.
    8880023    1    1    2    0    0 -0.98872156504E+02 -0.37997948941E+03 -0.24544634891E+03  0.80511752693E+03  0.65864270000E+03 0.  1.
    8880022    1    1    2    0    0  0.98872156504E+02  0.37997948941E+03 -0.15843093949E+04  0.16393864790E+04  0.15294330000E+03 0.  0.
<mgrwt>
<rscale>  0 0.66019754E+03</rscale>
<asrwt>0</asrwt>
<pdfrwt beam="1">  1        2 0.32878920E+00 0.76679223E+03</pdfrwt>
<pdfrwt beam="2">  1       -2 0.47288329E-01 0.76679223E+03</pdfrwt>
<totfact> 0.24545071E+01</totfact>
</mgrwt>
</event>
<event>
 4    5  0.1112901E-007  0.7371866E+03  0.7818608E-02  0.9868219E-01
          2   -1    0    0  501    0  0.00000000000E+00  0.00000000000E+00  0.16379527127E+04  0.16379527127E+04  0.25500000000E-02 0. -1.
         -2   -1    0    0    0  501 -0.00000000000E+00 -0.00000000000E+00 -0.70968787630E+03  0.70968787631E+03  0.25500000000E-02 0.  1.
    8880023    1    1    2    0    0 -0.25638641326E+03  0.20952289406E+03 -0.48871772511E+03  0.88447106066E+03  0.65864270000E+03 0.  1.
    8880022    1    1    2    0    0  0.25638641326E+03 -0.20952289406E+03  0.14169825615E+04  0.14631695283E+04  0.15294330000E+03 0.  0.
<mgrwt>
<rscale>  0 0.61826537E+03</rscale>
<asrwt>0</asrwt>
<pdfrwt beam="1">  1        2 0.25199273E+00 0.73718657E+03</pdfrwt>
<pdfrwt beam="2">  1       -2 0.10918275E+00 0.73718657E+03</pdfrwt>
<totfact> 0.73149860E+00</totfact>
</mgrwt>
</event>
<event>
 4    5  0.1112901E-007  0.8788122E+03  0.7818608E-02  0.9560938E-01
         -2   -1    0    0    0  501 -0.00000000000E+00  0.00000000000E+00  0.18141352240E+04  0.18141352240E+04  0.25500000000E-02 0.  1.
          2   -1    0    0  501    0  0.00000000000E+00 -0.00000000000E+00 -0.74191593655E+03  0.74191593655E+03  0.25500000000E-02 0. -1.
    8880023    1    1    2    0    0 -0.55415102021E+03  0.17724913409E+03  0.15540357172E+04  0.17853116885E+04  0.65864270000E+03 0.  1.
    8880022    1    1    2    0    0  0.55415102021E+03 -0.17724913409E+03 -0.48181642972E+03  0.77073947200E+03  0.15294330000E+03 0.  0.
<mgrwt>
<rscale>  0 0.79936376E+03</rscale>
<asrwt>0</asrwt>
<pdfrwt beam="1">  1        2 0.11414091E+00 0.87881216E+03</pdfrwt>
<pdfrwt beam="2">  1       -2 0.27909773E+00 0.87881216E+03</pdfrwt>
<totfact> 0.16509803E+00</totfact>
</mgrwt>
</event>
<event>
 4    5  0.1112901E-007  0.1161498E+04  0.7818608E-02  0.9195489E-01
          2   -1    0    0  501    0  0.00000000000E+00  0.00000000000E+00  0.78714400267E+03  0.78714400267E+03  0.25500000000E-02 0. -1.
         -2   -1    0    0    0  501 -0.00000000000E+00 -0.00000000000E+00 -0.27492895595E+04  0.27492895595E+04  0.25500000000E-02 0.  1.
    8880023    1    1    2    0    0  0.79659640015E+03 -0.52981324906E+03  0.18937585790E+03  0.11768353009E+04  0.65864270000E+03 0.  0.
    8880022    1    1    2    0    0 -0.79659640015E+03  0.52981324906E+03 -0.21515214148E+04  0.23595982613E+04  0.15294330000E+03 0.  0.
<mgrwt>
<rscale>  0 0.11100114E+04</rscale>
<asrwt>0</asrwt>
<pdfrwt beam="1">  1        2 0.12109908E+00 0.11614982E+04</pdfrwt>
<pdfrwt beam="2">  1       -2 0.42296762E+00 0.11614982E+04</pdfrwt>
<totfact> 0.18338744E-01</totfact>
</mgrwt>
</event>
<event>
 4    5  0.1112901E-007  0.8993497E+03  0.7818608E-02  0.9527076E-01
          2   -1    0    0  501    0  0.00000000000E+00  0.00000000000E+00  0.16346182675E+04  0.16346182675E+04  0.25500000000E-02 0. -1.
         -2   -1    0    0    0  501 -0.00000000000E+00 -0.00000000000E+00 -0.16880383622E+04  0.16880383622E+04  0.25500000000E-02 0.  1.
    8880023    1    1    2    0    0 -0.46363269503E+03 -0.40008050053E+03 -0.14974146054E+04  0.17467342069E+04  0.65864270000E+03 0.  1.
    8880022    1    1    2    0    0  0.46363269503E+03  0.40008050053E+03  0.14439945107E+04  0.15759224228E+04  0.15294330000E+03 0.  0.
<mgrwt>
<rscale>  0 0.82316692E+03</rscale>
<asrwt>0</asrwt>
<pdfrwt beam="1">  1        2 0.25147973E+00 0.89934970E+03</pdfrwt>
<pdfrwt beam="2">  1       -2 0.25969821E+00 0.89934970E+03</pdfrwt>
<totfact> 0.60803513E-01</totfact>
</mgrwt>
</event>
<event>
 4    5  0.1112901E-007  0.1135631E+04  0.7818608E-02  0.9222385E-01
         -2   -1    0    0    0  501 -0.00000000000E+00  0.00000000000E+00  0.61121485963E+03  0.61121485964E+03  0.25500000000E-02 0.  1.
          2   -1    0    0  501    0  0.00000000000E+00 -0.00000000000E+00 -0.22696830872E+04  0.22696830872E+04  0.25500000000E-02 0. -1.
    8880023    1    1    2    0    0 -0.82570712382E+03  0.41720027490E+03 -0.20919787732E+03  0.11547390536E+04  0.65864270000E+03 0.  0.
    8880022    1    1    2    0    0  0.82570712382E+03 -0.41720027490E+03 -0.14492703503E+04  0.17261588933E+04  0.15294330000E+03 0.  0.
<mgrwt>
<rscale>  0 0.10825338E+04</rscale>
<asrwt>0</asrwt>
<pdfrwt beam="1">  1        2 0.34918201E+00 0.11356313E+04</pdfrwt>
<pdfrwt beam="2">  1       -2 0.94033057E-01 0.11356313E+04</pdfrwt>
<totfact> 0.44516303E+00</totfact>
</mgrwt>
</event>
<event>
 4    5  0.1112901E-007  0.1445477E+04  0.7818608E-02  0.8949128E-01
         -2   -1    0    0    0  501 -0.00000000000E+00  0.00000000000E+00  0.12153859726E+04  0.12153859726E+04  0.25500000000E-02 0.  1.
          2   -1    0    0  501    0  0.00000000000E+00 -0.00000000000E+00 -0.24382707478E+04  0.24382707478E+04  0.25500000000E-02 0. -1.
    8880023    1    1    2    0    0  0.12820157351E+04 -0.10967418614E+03  0.47165301764E+03  0.15204800385E+04  0.65864270000E+03 0.  0.
    8880022    1    1    2    0    0 -0.12820157351E+04  0.10967418614E+03 -0.16945377928E+04  0.21331766819E+04  0.15294330000E+03 0.  0.
<mgrwt>
<rscale>  0 0.14064981E+04</rscale>
<asrwt>0</asrwt>
<pdfrwt beam="1">  1        2 0.37511857E+00 0.14454767E+04</pdfrwt>
<pdfrwt beam="2">  1       -2 0.18698246E+00 0.14454767E+04</pdfrwt>
<totfact> 0.58083655E-01</totfact>
</mgrwt>
</event>
<event>
 4    5  0.1112901E-007  0.6724474E+03  0.7818608E-02  0.1013966E+00
          2   -1    0    0  501    0  0.00000000000E+00  0.00000000000E+00  0.10732527926E+04  0.10732527926E+04  0.25500000000E-02 0. -1.
         -2   -1    0    0    0  501 -0.00000000000E+00 -0.00000000000E+00 -0.49750857352E+03  0.49750857353E+03  0.25500000000E-02 0.  1.
    8880023    1    1    2    0    0 -0.29880968227E+02 -0.13222133600E+03 -0.25203453601E+03  0.71812740343E+03  0.65864270000E+03 0.  1.
    8880022    1    1    2    0    0  0.29880968227E+02  0.13222133600E+03  0.82777875505E+03  0.85263396266E+03  0.15294330000E+03 0.  0.
<mgrwt>
<rscale>  0 0.49928432E+03</rscale>
<asrwt>0</asrwt>
<pdfrwt beam="1">  1        2 0.16511581E+00 0.67244744E+03</pdfrwt>
<pdfrwt beam="2">  1       -2 0.76539782E-01 0.67244744E+03</pdfrwt>
<totfact> 0.35406853E+01</totfact>
</mgrwt>
</event>
<event>
 4    5  0.1112901E-007  0.7542484E+03  0.7818608E-02  0.9820232E-01
         -2   -1    0    0    0  501 -0.00000000000E+00  0.00000000000E+00  0.47989491155E+03  0.47989491155E+03  0.25500000000E-02 0.  1.
          2   -1    0    0  501    0  0.00000000000E+00 -0.00000000000E+00 -0.12900456596E+04  0.12900456596E+04  0.25500000000E-02 0. -1.
    8880023    1    1    2    0    0 -0.33978591003E+03 -0.14009261580E+03  0.11482530855E+03  0.76293870226E+03  0.65864270000E+03 0.  1.
    8880022    1    1    2    0    0  0.33978591003E+03  0.14009261580E+03 -0.92497605658E+03  0.10070018689E+04  0.15294330000E+03 0.  0.
<mgrwt>
<rscale>  0 0.64287994E+03</rscale>
<asrwt>0</asrwt>
<pdfrwt beam="1">  1        2 0.19846856E+00 0.75424838E+03</pdfrwt>
<pdfrwt beam="2">  1       -2 0.73829987E-01 0.75424838E+03</pdfrwt>
<totfact> 0.28244489E+01</totfact>
</mgrwt>
</event>
<event>
 4    5  0.1112901E-007  0.6962419E+03  0.7818608E-02  0.1001316E+00
         -2   -1    0    0    0  501 -0.00000000000E+00  0.00000000000E+00  0.43156361996E+03  0.43156361997E+03  0.25500000000E-02 0.  1.
          2   -1    0    0  501    0  0.00000000000E+00 -0.00000000000E+00 -0.18667921839E+04  0.18667921839E+04  0.25500000000E-02 0. -1.
    8880023    1    1    2    0    0 -0.13892452860E+03  0.17788350792E+03  0.13109852035E+03  0.70847695470E+03  0.65864270000E+03 0.  1.
    8880022    1    1    2    0    0  0.13892452860E+03 -0.17788350792E+03 -0.15663270843E+04  0.15898788492E+04  0.15294330000E+03 0.  0.
<mgrwt>
<rscale>  0 0.55076802E+03</rscale>
<asrwt>0</asrwt>
<pdfrwt beam="1">  1        2 0.28719879E+00 0.69624189E+03</pdfrwt>
<pdfrwt beam="2">  1       -2 0.66394404E-01 0.69624189E+03</pdfrwt>
<totfact> 0.17174064E+01</totfact>
</mgrwt>
</event>
<event>
 4    5  0.1112901E-007  0.8049374E+03  0.7818608E-02  0.9700220E-01
          2   -1    0    0  501    0  0.00000000000E+00  0.00000000000E+00  0.27288735395E+04  0.27288735395E+04  0.25500000000E-02 0. -1.
         -2   -1    0    0    0  501 -0.00000000000E+00 -0.00000000000E+00 -0.37365930949E+03  0.37365930950E+03  0.25500000000E-02 0.  1.
    8880023    1    1    2    0    0  0.28835446377E+03 -0.36189188412E+03  0.11882669152E+03  0.81366087619E+03  0.65864270000E+03 0.  0.
    8880022    1    1    2    0    0 -0.28835446377E+03  0.36189188412E+03  0.22363875385E+04  0.22888719728E+04  0.15294330000E+03 0.  0.
<mgrwt>
<rscale>  0 0.71003676E+03</rscale>
<asrwt>0</asrwt>
<pdfrwt beam="1">  1        2 0.41982672E+00 0.80493741E+03</pdfrwt>
<pdfrwt beam="2">  1       -2 0.57486045E-01 0.80493741E+03</pdfrwt>
<totfact> 0.75677785E+00</totfact>
</mgrwt>
</event>
<event>
 4    5  0.1112901E-007  0.1962655E+04  0.7818608E-02  0.8637526E-01
         -2   -1    0    0    0  501 -0.00000000000E+00  0.00000000000E+00  0.11221446465E+04  0.11221446465E+04  0.25500000000E-02 0.  1.
          2   -1    0    0  501    0  0.00000000000E+00 -0.00000000000E+00 -0.45027746467E+04  0.45027746467E+04  0.25500000000E-02 0. -1.
    8880023    1    1    2    0    0  0.17745862550E+04 -0.51869892089E+03 -0.23997074812E+03  0.19772711279E+04  0.65864270000E+03 0.  0.
    8880022    1    1    2    0    0 -0.17745862550E+04  0.51869892089E+03 -0.31406592521E+04  0.36476481653E+04  0.15294330000E+03 0.  0.
<mgrwt>
<rscale>  0 0.19352095E+04</rscale>
<asrwt>0</asrwt>
<pdfrwt beam="1">  1        2 0.69273455E+00 0.19626551E+04</pdfrwt>
<pdfrwt beam="2">  1       -2 0.17263764E+00 0.19626551E+04</pdfrwt>
<totfact> 0.22686055E-02</totfact>
</mgrwt>
</event>
<event>
 4    5  0.1112901E-007  0.1103049E+04  0.7818608E-02  0.9257669E-01
          2   -1    0    0  501    0  0.00000000000E+00  0.00000000000E+00  0.95921585639E+03  0.95921585640E+03  0.25500000000E-02 0. -1.
         -2   -1    0    0    0  501 -0.00000000000E+00 -0.00000000000E+00 -0.16942099822E+04  0.16942099822E+04  0.25500000000E-02 0.  1.
    8880023    1    1    2    0    0 -0.83604145004E+03  0.28972853548E+03 -0.12102202570E+04  0.16374831929E+04  0.65864270000E+03 0.  0.
    8880022    1    1    2    0    0  0.83604145004E+03 -0.28972853548E+03  0.47522613120E+03  0.10159426456E+04  0.15294330000E+03 0.  0.
<mgrwt>
<rscale>  0 0.10477515E+04</rscale>
<asrwt>0</asrwt>
<pdfrwt beam="1">  1        2 0.14757167E+00 0.11030495E+04</pdfrwt>
<pdfrwt beam="2">  1       -2 0.26064769E+00 0.11030495E+04</pdfrwt>
<totfact> 0.14592476E+00</totfact>
</mgrwt>
</event>
<event>
 4    5  0.1112901E-007  0.1036825E+04  0.7818608E-02  0.9334890E-01
         -2   -1    0    0    0  501 -0.00000000000E+00  0.00000000000E+00  0.20909018413E+04  0.20909018413E+04  0.25500000000E-02 0.  1.
          2   -1    0    0  501    0  0.00000000000E+00 -0.00000000000E+00 -0.70938567950E+03  0.70938567951E+03  0.25500000000E-02 0. -1.
    8880023    1    1    2    0    0 -0.52061654418E+02  0.79905248721E+03  0.16441813579E+04  0.19437947003E+04  0.65864270000E+03 0.  0.
    8880022    1    1    2    0    0  0.52061654418E+02 -0.79905248721E+03 -0.26266519613E+03  0.85649282043E+03  0.15294330000E+03 0.  0.
<mgrwt>
<rscale>  0 0.97633303E+03</rscale>
<asrwt>0</asrwt>
<pdfrwt beam="1">  1        2 0.10913626E+00 0.10368247E+04</pdfrwt>
<pdfrwt beam="2">  1       -2 0.32167720E+00 0.10368247E+04</pdfrwt>
<totfact> 0.94512926E-01</totfact>
</mgrwt>
</event>
<event>
 4    5  0.1112901E-007  0.1021423E+04  0.7818608E-02  0.9354051E-01
         -2   -1    0    0    0  501 -0.00000000000E+00  0.00000000000E+00  0.14403294034E+04  0.14403294034E+04  0.25500000000E-02 0.  1.
          2   -1    0    0  501    0  0.00000000000E+00 -0.00000000000E+00 -0.14157590687E+04  0.14157590687E+04  0.25500000000E-02 0. -1.
    8880023    1    1    2    0    0 -0.12960729155E+02  0.78059369935E+03  0.11112275127E+04  0.15093479702E+04  0.65864270000E+03 0.  1.
    8880022    1    1    2    0    0  0.12960729155E+02 -0.78059369935E+03 -0.10866571780E+04  0.13467405019E+04  0.15294330000E+03 0.  0.
<mgrwt>
<rscale>  0 0.95955503E+03</rscale>
<asrwt>0</asrwt>
<pdfrwt beam="1">  1        2 0.21780909E+00 0.10214229E+04</pdfrwt>
<pdfrwt beam="2">  1       -2 0.22158914E+00 0.10214229E+04</pdfrwt>
<totfact> 0.13575390E+00</totfact>
</mgrwt>
</event>
<event>
 4    5  0.1112901E-007  0.7602087E+03  0.7818608E-02  0.9804567E-01
          2   -1    0    0  501    0  0.00000000000E+00  0.00000000000E+00  0.17662190148E+04  0.17662190148E+04  0.25500000000E-02 0. -1.
         -2   -1    0    0    0  501 -0.00000000000E+00 -0.00000000000E+00 -0.44820215408E+03  0.44820215409E+03  0.25500000000E-02 0.  1.
    8880023    1    1    2    0    0  0.29029486225E+03  0.24461404233E+03 -0.73701896066E+02  0.76377307657E+03  0.65864270000E+03 0.  1.
    8880022    1    1    2    0    0 -0.29029486225E+03 -0.24461404233E+03  0.13917187568E+04  0.14506480923E+04  0.15294330000E+03 0.  0.
<mgrwt>
<rscale>  0 0.65118008E+03</rscale>
<asrwt>0</asrwt>
<pdfrwt beam="1">  1        2 0.27172601E+00 0.76020875E+03</pdfrwt>
<pdfrwt beam="2">  1       -2 0.68954177E-01 0.76020875E+03</pdfrwt>
<totfact> 0.17790923E+01</totfact>
</mgrwt>
</event>
<event>
 4    5  0.1112901E-007  0.7816735E+03  0.7818608E-02  0.9751920E-01
          2   -1    0    0  501    0  0.00000000000E+00  0.00000000000E+00  0.46017830110E+03  0.46017830110E+03  0.25500000000E-02 0. -1.
         -2   -1    0    0    0  501 -0.00000000000E+00 -0.00000000000E+00 -0.12353277297E+04  0.12353277297E+04  0.25500000000E-02 0.  1.
    8880023    1    1    2    0    0  0.22417435992E+03  0.35629925446E+03 -0.93613443085E+03  0.12195741803E+04  0.65864270000E+03 0.  1.
    8880022    1    1    2    0    0 -0.22417435992E+03 -0.35629925446E+03  0.16098500224E+03  0.47593185051E+03  0.15294330000E+03 0.  0.
<mgrwt>
<rscale>  0 0.68007852E+03</rscale>
<asrwt>0</asrwt>
<pdfrwt beam="1">  1        2 0.70796662E-01 0.78167353E+03</pdfrwt>
<pdfrwt beam="2">  1       -2 0.19005042E+00 0.78167353E+03</pdfrwt>
<totfact> 0.10649473E+01</totfact>
</mgrwt>
</event>
<event>
 4    5  0.1112901E-007  0.6606541E+03  0.7818608E-02  0.1023496E+00
         -2   -1    0    0    0  501 -0.00000000000E+00  0.00000000000E+00  0.10434395380E+04  0.10434395380E+04  0.25500000000E-02 0.  1.
          2   -1    0    0  501    0  0.00000000000E+00 -0.00000000000E+00 -0.47821630053E+03  0.47821630053E+03  0.25500000000E-02 0. -1.
    8880023    1    1    2    0    0 -0.47016591515E+02 -0.21047800596E+02  0.91957120503E+03  0.11322874976E+04  0.65864270000E+03 0.  0.
    8880022    1    1    2    0    0  0.47016591515E+02  0.21047800596E+02 -0.35434796758E+03  0.38936834094E+03  0.15294330000E+03 0.  0.
<mgrwt>
<rscale>  0 0.46445815E+03</rscale>
<asrwt>0</asrwt>
<pdfrwt beam="1">  1        2 0.73571739E-01 0.66065405E+03</pdfrwt>
<pdfrwt beam="2">  1       -2 0.16052916E+00 0.66065405E+03</pdfrwt>
<totfact> 0.16563297E+01</totfact>
</mgrwt>
</event>
<event>
 4    5  0.1112901E-007  0.9970255E+03  0.7818608E-02  0.9385460E-01
          2   -1    0    0  501    0  0.00000000000E+00  0.00000000000E+00  0.31600597992E+04  0.31600597992E+04  0.25500000000E-02 0. -1.
         -2   -1    0    0    0  501 -0.00000000000E+00 -0.00000000000E+00 -0.38496181008E+03  0.38496181009E+03  0.25500000000E-02 0.  1.
    8880023    1    1    2    0    0 -0.69119640411E+03 -0.28722308854E+03  0.44306090167E+03  0.10910374606E+04  0.65864270000E+03 0.  1.
    8880022    1    1    2    0    0  0.69119640411E+03  0.28722308854E+03  0.23320370874E+04  0.24539841486E+04  0.15294330000E+03 0.  0.
<mgrwt>
<rscale>  0 0.93282018E+03</rscale>
<asrwt>0</asrwt>
<pdfrwt beam="1">  1        2 0.48616305E+00 0.99702547E+03</pdfrwt>
<pdfrwt beam="2">  1       -2 0.59224894E-01 0.99702547E+03</pdfrwt>
<totfact> 0.37652721E+00</totfact>
</mgrwt>
</event>
<event>
 4    5  0.1112901E-007  0.8800098E+03  0.7818608E-02  0.9558916E-01
         -2   -1    0    0    0  501 -0.00000000000E+00  0.00000000000E+00  0.47580551631E+03  0.47580551632E+03  0.25500000000E-02 0.  1.
          2   -1    0    0  501    0  0.00000000000E+00 -0.00000000000E+00 -0.19254534522E+04  0.19254534522E+04  0.25500000000E-02 0. -1.
    8880023    1    1    2    0    0 -0.73522760339E+02  0.57896589695E+03 -0.55024577519E+02  0.88172842560E+03  0.65864270000E+03 0.  1.
    8880022    1    1    2    0    0  0.73522760339E+02 -0.57896589695E+03 -0.13946233584E+04  0.15195305429E+04  0.15294330000E+03 0.  0.
<mgrwt>
<rscale>  0 0.80076140E+03</rscale>
<asrwt>0</asrwt>
<pdfrwt beam="1">  1        2 0.29622360E+00 0.88000984E+03</pdfrwt>
<pdfrwt beam="2">  1       -2 0.73200850E-01 0.88000984E+03</pdfrwt>
<totfact> 0.12578044E+01</totfact>
</mgrwt>
</event>
<event>
 4    5  0.1112901E-007  0.7523558E+03  0.7818608E-02  0.9825315E-01
          2   -1    0    0  501    0  0.00000000000E+00  0.00000000000E+00  0.10360433052E+04  0.10360433052E+04  0.25500000000E-02 0. -1.
         -2   -1    0    0    0  501 -0.00000000000E+00 -0.00000000000E+00 -0.98654131704E+03  0.98654131704E+03  0.25500000000E-02 0.  1.
    8880023    1    1    2    0    0 -0.36899577603E+02  0.36175608649E+03 -0.79250342507E+03  0.10927492530E+04  0.65864270000E+03 0.  1.
    8880022    1    1    2    0    0  0.36899577603E+02 -0.36175608649E+03  0.84200541319E+03  0.92983536919E+03  0.15294330000E+03 0.  0.
<mgrwt>
<rscale>  0 0.64021504E+03</rscale>
<asrwt>0</asrwt>
<pdfrwt beam="1">  1        2 0.15939128E+00 0.75235580E+03</pdfrwt>
<pdfrwt beam="2">  1       -2 0.15177559E+00 0.75235580E+03</pdfrwt>
<totfact> 0.70669692E+00</totfact>
</mgrwt>
</event>
<event>
 4    5  0.1112901E-007  0.9126006E+03  0.7818608E-02  0.9506099E-01
          2   -1    0    0  501    0  0.00000000000E+00  0.00000000000E+00  0.36040928078E+04  0.36040928078E+04  0.25500000000E-02 0. -1.
         -2   -1    0    0    0  501 -0.00000000000E+00 -0.00000000000E+00 -0.31579127988E+03  0.31579127989E+03  0.25500000000E-02 0.  1.
    8880023    1    1    2    0    0 -0.58168810310E+03  0.24630995400E+03  0.46788850907E+03  0.10255532682E+04  0.65864270000E+03 0.  0.
    8880022    1    1    2    0    0  0.58168810310E+03 -0.24630995400E+03  0.28204130189E+04  0.28943308195E+04  0.15294330000E+03 0.  0.
<mgrwt>
<rscale>  0 0.83835660E+03</rscale>
<asrwt>0</asrwt>
<pdfrwt beam="1">  1        2 0.55447582E+00 0.91260060E+03</pdfrwt>
<pdfrwt beam="2">  1       -2 0.48583273E-01 0.91260060E+03</pdfrwt>
<totfact> 0.29056774E+00</totfact>
</mgrwt>
</event>
<event>
 4    5  0.1112901E-007  0.1106896E+04  0.7818608E-02  0.9253417E-01
          2   -1    0    0  501    0  0.00000000000E+00  0.00000000000E+00  0.18373631595E+04  0.18373631595E+04  0.25500000000E-02 0. -1.
         -2   -1    0    0    0  501 -0.00000000000E+00 -0.00000000000E+00 -0.99130822346E+03  0.99130822347E+03  0.25500000000E-02 0.  1.
    8880023    1    1    2    0    0  0.88757949453E+03 -0.60090303686E+02 -0.49466647399E+03  0.12123998229E+04  0.65864270000E+03 0.  0.
    8880022    1    1    2    0    0 -0.88757949453E+03  0.60090303686E+02  0.13407214100E+04  0.16162715601E+04  0.15294330000E+03 0.  0.
<mgrwt>
<rscale>  0 0.10518685E+04</rscale>
<asrwt>0</asrwt>
<pdfrwt beam="1">  1        2 0.28267125E+00 0.11068958E+04</pdfrwt>
<pdfrwt beam="2">  1       -2 0.15250896E+00 0.11068958E+04</pdfrwt>
<totfact> 0.23173297E+00</totfact>
</mgrwt>
</event>
<event>
 4    5  0.1112901E-007  0.7937385E+03  0.7818608E-02  0.9724502E-01
          2   -1    0    0  501    0  0.00000000000E+00  0.00000000000E+00  0.76435421379E+03  0.76435421380E+03  0.25500000000E-02 0. -1.
         -2   -1    0    0    0  501 -0.00000000000E+00 -0.00000000000E+00 -0.10590480077E+04  0.10590480077E+04  0.25500000000E-02 0.  1.
    8880023    1    1    2    0    0  0.17946337589E+03  0.40497350084E+03 -0.80504444141E+03  0.11305385436E+04  0.65864270000E+03 0.  1.
    8880022    1    1    2    0    0 -0.17946337589E+03 -0.40497350084E+03  0.51035064753E+03  0.69286367787E+03  0.15294330000E+03 0.  0.
<mgrwt>
<rscale>  0 0.69576520E+03</rscale>
<asrwt>0</asrwt>
<pdfrwt beam="1">  1        2 0.11759296E+00 0.79373852E+03</pdfrwt>
<pdfrwt beam="2">  1       -2 0.16293046E+00 0.79373852E+03</pdfrwt>
<totfact> 0.88737912E+00</totfact>
</mgrwt>
</event>
<event>
 4    5  0.1112901E-007  0.8760437E+03  0.7818608E-02  0.9565638E-01
          2   -1    0    0  501    0  0.00000000000E+00  0.00000000000E+00  0.23176807714E+04  0.23176807714E+04  0.25500000000E-02 0. -1.
         -2   -1    0    0    0  501 -0.00000000000E+00 -0.00000000000E+00 -0.29308738102E+03  0.29308738103E+03  0.25500000000E-02 0.  1.
    8880023    1    1    2    0    0 -0.28455835408E+03  0.50266181680E+03  0.58859130306E+03  0.10554109566E+04  0.65864270000E+03 0.  0.
    8880022    1    1    2    0    0  0.28455835408E+03 -0.50266181680E+03  0.14360020874E+04  0.15553571959E+04  0.15294330000E+03 0.  0.
<mgrwt>
<rscale>  0 0.79612824E+03</rscale>
<asrwt>0</asrwt>
<pdfrwt beam="1">  1        2 0.35656628E+00 0.87604370E+03</pdfrwt>
<pdfrwt beam="2">  1       -2 0.45090365E-01 0.87604370E+03</pdfrwt>
<totfact> 0.21147107E+01</totfact>
</mgrwt>
</event>
<event>
 4    5  0.1112901E-007  0.9701724E+03  0.7818608E-02  0.9421666E-01
          2   -1    0    0  501    0  0.00000000000E+00  0.00000000000E+00  0.40208357076E+04  0.40208357076E+04  0.25500000000E-02 0. -1.
         -2   -1    0    0    0  501 -0.00000000000E+00 -0.00000000000E+00 -0.59547372507E+03  0.59547372508E+03  0.25500000000E-02 0.  1.
    8880023    1    1    2    0    0  0.63401422425E+03 -0.32473090304E+03 -0.13736585912E+03  0.97984885644E+03  0.65864270000E+03 0.  1.
    8880022    1    1    2    0    0 -0.63401422425E+03  0.32473090304E+03  0.35627278416E+04  0.36364605762E+04  0.15294330000E+03 0.  0.
<mgrwt>
<rscale>  0 0.90313913E+03</rscale>
<asrwt>0</asrwt>
<pdfrwt beam="1">  1        2 0.61859012E+00 0.97017236E+03</pdfrwt>
<pdfrwt beam="2">  1       -2 0.91611341E-01 0.97017236E+03</pdfrwt>
<totfact> 0.35344707E-01</totfact>
</mgrwt>
</event>
<event>
 4    5  0.1112901E-007  0.1099633E+04  0.7818608E-02  0.9261465E-01
          2   -1    0    0  501    0  0.00000000000E+00  0.00000000000E+00  0.17872767097E+04  0.17872767097E+04  0.25500000000E-02 0. -1.
         -2   -1    0    0    0  501 -0.00000000000E+00 -0.00000000000E+00 -0.63376454290E+03  0.63376454291E+03  0.25500000000E-02 0.  1.
    8880023    1    1    2    0    0 -0.73619988826E+03  0.48310743870E+03  0.10515599043E+04  0.15215030435E+04  0.65864270000E+03 0.  0.
    8880022    1    1    2    0    0  0.73619988826E+03 -0.48310743870E+03  0.10195226251E+03  0.89953820911E+03  0.15294330000E+03 0.  0.
<mgrwt>
<rscale>  0 0.10440924E+04</rscale>
<asrwt>0</asrwt>
<pdfrwt beam="1">  1        2 0.27496565E+00 0.10996332E+04</pdfrwt>
<pdfrwt beam="2">  1       -2 0.97502238E-01 0.10996332E+04</pdfrwt>
<totfact> 0.75960571E+00</totfact>
</mgrwt>
</event>
<event>
 4    5  0.1112901E-007  0.1460438E+04  0.7818608E-02  0.8938089E-01
         -2   -1    0    0    0  501 -0.00000000000E+00  0.00000000000E+00  0.18411729285E+04  0.18411729285E+04  0.25500000000E-02 0.  1.
          2   -1    0    0  501    0  0.00000000000E+00 -0.00000000000E+00 -0.21236383649E+04  0.21236383649E+04  0.25500000000E-02 0. -1.
    8880023    1    1    2    0    0  0.48454115727E+03 -0.12100781534E+04  0.12675533079E+04  0.19337970072E+04  0.65864270000E+03 0.  1.
    8880022    1    1    2    0    0 -0.48454115727E+03  0.12100781534E+04 -0.15500187443E+04  0.20310142863E+04  0.15294330000E+03 0. -1.
<mgrwt>
<rscale>  0 0.14219392E+04</rscale>
<asrwt>0</asrwt>
<pdfrwt beam="1">  1        2 0.32671359E+00 0.14604381E+04</pdfrwt>
<pdfrwt beam="2">  1       -2 0.28325737E+00 0.14604381E+04</pdfrwt>
<totfact> 0.21600044E-01</totfact>
</mgrwt>
</event>
<event>
 4    5  0.1112901E-007  0.1765511E+04  0.7818608E-02  0.8741858E-01
         -2   -1    0    0    0  501 -0.00000000000E+00  0.00000000000E+00  0.21153812836E+04  0.21153812836E+04  0.25500000000E-02 0.  1.
          2   -1    0    0  501    0  0.00000000000E+00 -0.00000000000E+00 -0.15383768790E+04  0.15383768790E+04  0.25500000000E-02 0. -1.
    8880023    1    1    2    0    0 -0.16379656024E+04  0.16935463139E+02  0.89300659823E+03  0.19785067893E+04  0.65864270000E+03 0.  1.
    8880022    1    1    2    0    0  0.16379656024E+04 -0.16935463139E+02 -0.31600219362E+03  0.16752513733E+04  0.15294330000E+03 0.  0.
<mgrwt>
<rscale>  0 0.17346265E+04</rscale>
<asrwt>0</asrwt>
<pdfrwt beam="1">  1        2 0.23667337E+00 0.17655108E+04</pdfrwt>
<pdfrwt beam="2">  1       -2 0.32544327E+00 0.17655108E+04</pdfrwt>
<totfact> 0.24499995E-01</totfact>
</mgrwt>
</event>
<event>
 4    5  0.1112901E-007  0.2114140E+04  0.7818608E-02  0.8566176E-01
          2   -1    0    0  501    0  0.00000000000E+00  0.00000000000E+00  0.23748670843E+04  0.23748670843E+04  0.25500000000E-02 0. -1.
         -2   -1    0    0    0  501 -0.00000000000E+00 -0.00000000000E+00 -0.28545690111E+04  0.28545690111E+04  0.25500000000E-02 0.  1.
    8880023    1    1    2    0    0  0.14052241555E+04  0.14356617470E+04 -0.18365123896E+04  0.28004227435E+04  0.65864270000E+03 0.  1.
    8880022    1    1    2    0    0 -0.14052241555E+04 -0.14356617470E+04  0.13568104628E+04  0.24290133519E+04  0.15294330000E+03 0.  0.
<mgrwt>
<rscale>  0 0.20888394E+04</rscale>
<asrwt>0</asrwt>
<pdfrwt beam="1">  1        2 0.36536417E+00 0.21141404E+04</pdfrwt>
<pdfrwt beam="2">  1       -2 0.43916446E+00 0.21141404E+04</pdfrwt>
<totfact> 0.14624967E-02</totfact>
</mgrwt>
</event>
<event>
 4    5  0.1112901E-007  0.7349364E+03  0.7818608E-02  0.9874950E-01
         -2   -1    0    0    0  501 -0.00000000000E+00  0.00000000000E+00  0.12979076221E+03  0.12979076224E+03  0.25500000000E-02 0.  1.
          2   -1    0    0  501    0  0.00000000000E+00 -0.00000000000E+00 -0.25013975988E+04  0.25013975989E+04  0.25500000000E-02 0. -1.
    8880023    1    1    2    0    0  0.28244740904E+03  0.16292568217E+03 -0.12168281726E+04  0.14215492692E+04  0.65864270000E+03 0.  0.
    8880022    1    1    2    0    0 -0.28244740904E+03 -0.16292568217E+03 -0.11547786640E+04  0.12096390919E+04  0.15294330000E+03 0.  0.
<mgrwt>
<rscale>  0 0.61490815E+03</rscale>
<asrwt>0</asrwt>
<pdfrwt beam="1">  1        2 0.38483036E+00 0.73493641E+03</pdfrwt>
<pdfrwt beam="2">  1       -2 0.19967811E-01 0.73493641E+03</pdfrwt>
<totfact> 0.77406284E+01</totfact>
</mgrwt>
</event>
<event>
 4    5  0.1112901E-007  0.1049972E+04  0.7818608E-02  0.9318915E-01
         -2   -1    0    0    0  501 -0.00000000000E+00  0.00000000000E+00  0.47672239231E+03  0.47672239232E+03  0.25500000000E-02 0.  1.
          2   -1    0    0  501    0  0.00000000000E+00 -0.00000000000E+00 -0.20844203988E+04  0.20844203988E+04  0.25500000000E-02 0. -1.
    8880023    1    1    2    0    0  0.50985093297E+03 -0.63928336826E+03 -0.46653493624E+03  0.11489544168E+04  0.65864270000E+03 0.  0.
    8880022    1    1    2    0    0 -0.50985093297E+03  0.63928336826E+03 -0.11411630703E+04  0.14121883744E+04  0.15294330000E+03 0.  0.
<mgrwt>
<rscale>  0 0.99060011E+03</rscale>
<asrwt>0</asrwt>
<pdfrwt beam="1">  1        2 0.32068006E+00 0.10499721E+04</pdfrwt>
<pdfrwt beam="2">  1       -2 0.73341908E-01 0.10499721E+04</pdfrwt>
<totfact> 0.10041167E+01</totfact>
</mgrwt>
</event>
<event>
 4    5  0.1112901E-007  0.1301132E+04  0.7818608E-02  0.9064583E-01
          2   -1    0    0  501    0  0.00000000000E+00  0.00000000000E+00  0.20692843990E+04  0.20692843990E+04  0.25500000000E-02 0. -1.
         -2   -1    0    0    0  501 -0.00000000000E+00 -0.00000000000E+00 -0.84092619048E+03  0.84092619049E+03  0.25500000000E-02 0.  1.
    8880023    1    1    2    0    0 -0.68023891195E+03 -0.89241734734E+03  0.89633055425E+02  0.13042154692E+04  0.65864270000E+03 0.  0.
    8880022    1    1    2    0    0  0.68023891195E+03  0.89241734734E+03  0.11387251531E+04  0.16059951203E+04  0.15294330000E+03 0.  0.
<mgrwt>
<rscale>  0 0.12567509E+04</rscale>
<asrwt>0</asrwt>
<pdfrwt beam="1">  1        2 0.31835144E+00 0.13011318E+04</pdfrwt>
<pdfrwt beam="2">  1       -2 0.12937326E+00 0.13011318E+04</pdfrwt>
<totfact> 0.25944553E+00</totfact>
</mgrwt>
</event>
<event>
 4    5  0.1112901E-007  0.1250784E+04  0.7818608E-02  0.9109270E-01
          2   -1    0    0  501    0  0.00000000000E+00  0.00000000000E+00  0.23297745900E+04  0.23297745900E+04  0.25500000000E-02 0. -1.
         -2   -1    0    0    0  501 -0.00000000000E+00 -0.00000000000E+00 -0.64761754857E+03  0.64761754858E+03  0.25500000000E-02 0.  1.
    8880023    1    1    2    0    0 -0.92185099478E+03  0.52994537098E+03  0.41877809423E+03  0.13190286772E+04  0.65864270000E+03 0.  0.
    8880022    1    1    2    0    0  0.92185099478E+03 -0.52994537098E+03  0.12633789471E+04  0.16583634613E+04  0.15294330000E+03 0.  0.
<mgrwt>
<rscale>  0 0.12041056E+04</rscale>
<asrwt>0</asrwt>
<pdfrwt beam="1">  1        2 0.35842686E+00 0.12507844E+04</pdfrwt>
<pdfrwt beam="2">  1       -2 0.99633469E-01 0.12507844E+04</pdfrwt>
<totfact> 0.35466577E+00</totfact>
</mgrwt>
</event>
<event>
 4    5  0.1112901E-007  0.6792347E+03  0.7818608E-02  0.1009760E+00
          2   -1    0    0  501    0  0.00000000000E+00  0.00000000000E+00  0.35270129766E+04  0.35270129766E+04  0.25500000000E-02 0. -1.
         -2   -1    0    0    0  501 -0.00000000000E+00 -0.00000000000E+00 -0.12003372797E+03  0.12003372799E+03  0.25500000000E-02 0.  1.
    8880023    1    1    2    0    0 -0.13399429803E+03  0.97954320631E+02  0.88807305170E+03  0.11180489579E+04  0.65864270000E+03 0.  1.
    8880022    1    1    2    0    0  0.13399429803E+03 -0.97954320631E+02  0.25189061970E+04  0.25289977467E+04  0.15294330000E+03 0.  0.
<mgrwt>
<rscale>  0 0.51570162E+03</rscale>
<asrwt>0</asrwt>
<pdfrwt beam="1">  1        2 0.54261741E+00 0.67923466E+03</pdfrwt>
<pdfrwt beam="2">  1       -2 0.18466727E-01 0.67923466E+03</pdfrwt>
<totfact> 0.20846841E+01</totfact>
</mgrwt>
</event>
<event>
 4    5  0.1112901E-007  0.6753007E+03  0.7818608E-02  0.1012117E+00
         -2   -1    0    0    0  501 -0.00000000000E+00  0.00000000000E+00  0.29270964463E+03  0.29270964464E+03  0.25500000000E-02 0.  1.
          2   -1    0    0  501    0  0.00000000000E+00 -0.00000000000E+00 -0.29899386172E+04  0.29899386172E+04  0.25500000000E-02 0. -1.
    8880023    1    1    2    0    0  0.57473935299E+02 -0.13754097158E+03 -0.10711378147E+03  0.68374289067E+03  0.65864270000E+03 0.  1.
    8880022    1    1    2    0    0 -0.57473935299E+02  0.13754097158E+03 -0.25901151911E+04  0.25989053712E+04  0.15294330000E+03 0.  0.
<mgrwt>
<rscale>  0 0.50641700E+03</rscale>
<asrwt>0</asrwt>
<pdfrwt beam="1">  1        2 0.45999054E+00 0.67530066E+03</pdfrwt>
<pdfrwt beam="2">  1       -2 0.45032255E-01 0.67530066E+03</pdfrwt>
<totfact> 0.89139426E+00</totfact>
</mgrwt>
</event>
<event>
 4    5  0.1112901E-007  0.9093906E+03  0.7818608E-02  0.9511122E-01
          2   -1    0    0  501    0  0.00000000000E+00  0.00000000000E+00  0.38618010247E+04  0.38618010247E+04  0.25500000000E-02 0. -1.
         -2   -1    0    0    0  501 -0.00000000000E+00 -0.00000000000E+00 -0.24157766732E+03  0.24157766734E+03  0.25500000000E-02 0.  1.
    8880023    1    1    2    0    0  0.59287299486E+02 -0.62423239605E+03  0.80303247826E+03  0.12131992563E+04  0.65864270000E+03 0.  0.
    8880022    1    1    2    0    0 -0.59287299486E+02  0.62423239605E+03  0.28171908791E+04  0.28901794357E+04  0.15294330000E+03 0.  0.
<mgrwt>
<rscale>  0 0.83468806E+03</rscale>
<asrwt>0</asrwt>
<pdfrwt beam="1">  1        2 0.59412318E+00 0.90939061E+03</pdfrwt>
<pdfrwt beam="2">  1       -2 0.37165798E-01 0.90939061E+03</pdfrwt>
<totfact> 0.32024003E+00</totfact>
</mgrwt>
</event>
<event>
 4    5  0.1112901E-007  0.8853946E+03  0.7818608E-02  0.9549897E-01
         -2   -1    0    0    0  501 -0.00000000000E+00  0.00000000000E+00  0.70246620652E+03  0.70246620653E+03  0.25500000000E-02 0.  1.
          2   -1    0    0  501    0  0.00000000000E+00 -0.00000000000E+00 -0.15266553687E+04  0.15266553687E+04  0.25500000000E-02 0. -1.
    8880023    1    1    2    0    0 -0.21369502535E+03  0.55176783616E+03  0.31219361124E+03  0.93882286191E+03  0.65864270000E+03 0.  1.
    8880022    1    1    2    0    0  0.21369502535E+03 -0.55176783616E+03 -0.11363827734E+04  0.12902987134E+04  0.15294330000E+03 0.  0.
<mgrwt>
<rscale>  0 0.80703000E+03</rscale>
<asrwt>0</asrwt>
<pdfrwt beam="1">  1        2 0.23487006E+00 0.88539455E+03</pdfrwt>
<pdfrwt beam="2">  1       -2 0.10807172E+00 0.88539455E+03</pdfrwt>
<totfact> 0.84730560E+00</totfact>
</mgrwt>
</event>
<event>
 4    5  0.1112901E-007  0.1265293E+04  0.7818608E-02  0.9096127E-01
         -2   -1    0    0    0  501 -0.00000000000E+00  0.00000000000E+00  0.14949317427E+04  0.14949317427E+04  0.25500000000E-02 0.  1.
          2   -1    0    0  501    0  0.00000000000E+00 -0.00000000000E+00 -0.21363781672E+04  0.21363781672E+04  0.25500000000E-02 0. -1.
    8880023    1    1    2    0    0  0.84585165683E+03  0.67207923057E+03  0.10325325563E+04  0.16331225317E+04  0.65864270000E+03 0.  0.
    8880022    1    1    2    0    0 -0.84585165683E+03 -0.67207923057E+03 -0.16739789808E+04  0.19981873782E+04  0.15294330000E+03 0.  0.
<mgrwt>
<rscale>  0 0.12193028E+04</rscale>
<asrwt>0</asrwt>
<pdfrwt beam="1">  1        2 0.32867357E+00 0.12652927E+04</pdfrwt>
<pdfrwt beam="2">  1       -2 0.22998950E+00 0.12652927E+04</pdfrwt>
<totfact> 0.46232409E-01</totfact>
</mgrwt>
</event>
<event>
 4    5  0.1112901E-007  0.7079986E+03  0.7818608E-02  0.9965509E-01
         -2   -1    0    0    0  501 -0.00000000000E+00  0.00000000000E+00  0.34641616389E+03  0.34641616390E+03  0.25500000000E-02 0.  1.
          2   -1    0    0  501    0  0.00000000000E+00 -0.00000000000E+00 -0.43997813373E+04  0.43997813373E+04  0.25500000000E-02 0. -1.
    8880023    1    1    2    0    0 -0.13860646466E+03 -0.21963629916E+03 -0.26943981478E+02  0.70851114343E+03  0.65864270000E+03 0.  1.
    8880022    1    1    2    0    0  0.13860646466E+03  0.21963629916E+03 -0.40264211919E+04  0.40376863577E+04  0.15294330000E+03 0.  0.
<mgrwt>
<rscale>  0 0.57188809E+03</rscale>
<asrwt>0</asrwt>
<pdfrwt beam="1">  1        2 0.67688940E+00 0.70799863E+03</pdfrwt>
<pdfrwt beam="2">  1       -2 0.53294797E-01 0.70799863E+03</pdfrwt>
<totfact> 0.58567533E-01</totfact>
</mgrwt>
</event>
<event>
 4    5  0.1112901E-007  0.8193549E+03  0.7818608E-02  0.9670411E-01
         -2   -1    0    0    0  501 -0.00000000000E+00  0.00000000000E+00  0.12947129923E+04  0.12947129923E+04  0.25500000000E-02 0.  1.
          2   -1    0    0  501    0  0.00000000000E+00 -0.00000000000E+00 -0.25862428893E+04  0.25862428893E+04  0.25500000000E-02 0. -1.
    8880023    1    1    2    0    0  0.36505981130E+03  0.32289870983E+03  0.11357814911E+04  0.14004792196E+04  0.65864270000E+03 0.  1.
    8880022    1    1    2    0    0 -0.36505981130E+03 -0.32289870983E+03 -0.24273113882E+04  0.24804766620E+04  0.15294330000E+03 0.  0.
<mgrwt>
<rscale>  0 0.72806185E+03</rscale>
<asrwt>0</asrwt>
<pdfrwt beam="1">  1        2 0.39788352E+00 0.81935490E+03</pdfrwt>
<pdfrwt beam="2">  1       -2 0.19918662E+00 0.81935490E+03</pdfrwt>
<totfact> 0.43601175E-01</totfact>
</mgrwt>
</event>
<event>
 4    5  0.1112901E-007  0.1400459E+04  0.7818608E-02  0.8983326E-01
          2   -1    0    0  501    0  0.00000000000E+00  0.00000000000E+00  0.26609554294E+04  0.26609554294E+04  0.25500000000E-02 0. -1.
         -2   -1    0    0    0  501 -0.00000000000E+00 -0.00000000000E+00 -0.78042546478E+03  0.78042546479E+03  0.25500000000E-02 0.  1.
    8880023    1    1    2    0    0  0.12341994973E+04 -0.65022088169E+02  0.30531419540E+03  0.14333538416E+04  0.65864270000E+03 0.  0.
    8880022    1    1    2    0    0 -0.12341994973E+04  0.65022088169E+02  0.15752157693E+04  0.20080270526E+04  0.15294330000E+03 0.  0.
<mgrwt>
<rscale>  0 0.13599556E+04</rscale>
<asrwt>0</asrwt>
<pdfrwt beam="1">  1        2 0.40937775E+00 0.14004594E+04</pdfrwt>
<pdfrwt beam="2">  1       -2 0.12006546E+00 0.14004594E+04</pdfrwt>
<totfact> 0.14264062E+00</totfact>
</mgrwt>
</event>
<event>
 4    5  0.1112901E-007  0.6649645E+03  0.7818608E-02  0.1019563E+00
          2   -1    0    0  501    0  0.00000000000E+00  0.00000000000E+00  0.18170535511E+04  0.18170535511E+04  0.25500000000E-02 0. -1.
         -2   -1    0    0    0  501 -0.00000000000E+00 -0.00000000000E+00 -0.23872637293E+03  0.23872637295E+03  0.25500000000E-02 0.  1.
    8880023    1    1    2    0    0 -0.26806560904E+02  0.87458563992E+02  0.24201392014E+03  0.70763587807E+03  0.65864270000E+03 0.  1.
    8880022    1    1    2    0    0  0.26806560904E+02 -0.87458563992E+02  0.13363132580E+04  0.13481440460E+04  0.15294330000E+03 0.  0.
<mgrwt>
<rscale>  0 0.47844566E+03</rscale>
<asrwt>0</asrwt>
<pdfrwt beam="1">  1        2 0.27954670E+00 0.66496451E+03</pdfrwt>
<pdfrwt beam="2">  1       -2 0.36727134E-01 0.66496451E+03</pdfrwt>
<totfact> 0.61072910E+01</totfact>
</mgrwt>
</event>
<event>
 4    5  0.1112901E-007  0.6935478E+03  0.7818608E-02  0.1002510E+00
          2   -1    0    0  501    0  0.00000000000E+00  0.00000000000E+00  0.19691827142E+04  0.19691827142E+04  0.25500000000E-02 0. -1.
         -2   -1    0    0    0  501 -0.00000000000E+00 -0.00000000000E+00 -0.26755312135E+03  0.26755312136E+03  0.25500000000E-02 0.  1.
    8880023    1    1    2    0    0 -0.49200170262E+00  0.21725131832E+03  0.21435721042E+03  0.72591845086E+03  0.65864270000E+03 0.  1.
    8880022    1    1    2    0    0  0.49200170262E+00 -0.21725131832E+03  0.14872723824E+04  0.15108173847E+04  0.15294330000E+03 0. -1.
<mgrwt>
<rscale>  0 0.54563250E+03</rscale>
<asrwt>0</asrwt>
<pdfrwt beam="1">  1        2 0.30295119E+00 0.69354782E+03</pdfrwt>
<pdfrwt beam="2">  1       -2 0.41162018E-01 0.69354782E+03</pdfrwt>
<totfact> 0.40334462E+01</totfact>
</mgrwt>
</event>
<event>
 4    5  0.1112901E-007  0.1107200E+04  0.7818608E-02  0.9253082E-01
          2   -1    0    0  501    0  0.00000000000E+00  0.00000000000E+00  0.10194477814E+04  0.10194477814E+04  0.25500000000E-02 0. -1.
         -2   -1    0    0    0  501 -0.00000000000E+00 -0.00000000000E+00 -0.13720368764E+04  0.13720368764E+04  0.25500000000E-02 0.  1.
    8880023    1    1    2    0    0  0.48661650144E+02  0.88865775244E+03 -0.81702652039E+03  0.13760171142E+04  0.65864270000E+03 0.  0.
    8880022    1    1    2    0    0 -0.48661650144E+02 -0.88865775244E+03  0.46443742539E+03  0.10154675437E+04  0.15294330000E+03 0.  0.
<mgrwt>
<rscale>  0 0.10521934E+04</rscale>
<asrwt>0</asrwt>
<pdfrwt beam="1">  1        2 0.15683812E+00 0.11071995E+04</pdfrwt>
<pdfrwt beam="2">  1       -2 0.21108260E+00 0.11071995E+04</pdfrwt>
<totfact> 0.27069059E+00</totfact>
</mgrwt>
</event>
<event>
 4    5  0.1112901E-007  0.1034773E+04  0.7818608E-02  0.9337415E-01
         -2   -1    0    0    0  501 -0.00000000000E+00  0.00000000000E+00  0.60327777363E+03  0.60327777364E+03  0.25500000000E-02 0.  1.
          2   -1    0    0  501    0  0.00000000000E+00 -0.00000000000E+00 -0.40877315853E+04  0.40877315853E+04  0.25500000000E-02 0. -1.
    8880023    1    1    2    0    0 -0.72543490536E+03 -0.33269845383E+03  0.77373850294E+02  0.10376613041E+04  0.65864270000E+03 0.  1.
    8880022    1    1    2    0    0  0.72543490536E+03  0.33269845383E+03 -0.35618276619E+04  0.36533480548E+04  0.15294330000E+03 0.  0.
<mgrwt>
<rscale>  0 0.97410165E+03</rscale>
<asrwt>0</asrwt>
<pdfrwt beam="1">  1        2 0.62888176E+00 0.10347726E+04</pdfrwt>
<pdfrwt beam="2">  1       -2 0.92811968E-01 0.10347726E+04</pdfrwt>
<totfact> 0.29879117E-01</totfact>
</mgrwt>
</event>
<event>
 4    5  0.1112901E-007  0.8641382E+03  0.7818608E-02  0.9586244E-01
          2   -1    0    0  501    0  0.00000000000E+00  0.00000000000E+00  0.16435462614E+04  0.16435462614E+04  0.25500000000E-02 0. -1.
         -2   -1    0    0    0  501 -0.00000000000E+00 -0.00000000000E+00 -0.39886746061E+03  0.39886746062E+03  0.25500000000E-02 0.  1.
    8880023    1    1    2    0    0  0.21485095808E+03  0.51649165116E+03  0.26482837180E+03  0.90380796228E+03  0.65864270000E+03 0.  1.
    8880022    1    1    2    0    0 -0.21485095808E+03 -0.51649165116E+03  0.97985042898E+03  0.11386057597E+04  0.15294330000E+03 0. -1.
<mgrwt>
<rscale>  0 0.78213346E+03</rscale>
<asrwt>0</asrwt>
<pdfrwt beam="1">  1        2 0.25285327E+00 0.86413816E+03</pdfrwt>
<pdfrwt beam="2">  1       -2 0.61364224E-01 0.86413816E+03</pdfrwt>
<totfact> 0.26371709E+01</totfact>
</mgrwt>
</event>
<event>
 4    5  0.1112901E-007  0.1434548E+04  0.7818608E-02  0.8957292E-01
         -2   -1    0    0    0  501 -0.00000000000E+00  0.00000000000E+00  0.16755187900E+04  0.16755187900E+04  0.25500000000E-02 0.  1.
          2   -1    0    0  501    0  0.00000000000E+00 -0.00000000000E+00 -0.19021868471E+04  0.19021868471E+04  0.25500000000E-02 0. -1.
    8880023    1    1    2    0    0 -0.12223379775E+04 -0.36056758365E+03  0.10419497205E+04  0.17730167906E+04  0.65864270000E+03 0.  0.
    8880022    1    1    2    0    0  0.12223379775E+04  0.36056758365E+03 -0.12686177776E+04  0.18046888464E+04  0.15294330000E+03 0.  0.
<mgrwt>
<rscale>  0 0.13952112E+04</rscale>
<asrwt>0</asrwt>
<pdfrwt beam="1">  1        2 0.29264413E+00 0.14345485E+04</pdfrwt>
<pdfrwt beam="2">  1       -2 0.25777212E+00 0.14345485E+04</pdfrwt>
<totfact> 0.41186994E-01</totfact>
</mgrwt>
</event>
<event>
 4    5  0.1112901E-007  0.8144873E+03  0.7818608E-02  0.9680305E-01
          2   -1    0    0  501    0  0.00000000000E+00  0.00000000000E+00  0.25939988925E+04  0.25939988925E+04  0.25500000000E-02 0. -1.
         -2   -1    0    0    0  501 -0.00000000000E+00 -0.00000000000E+00 -0.32564338473E+03  0.32564338474E+03  0.25500000000E-02 0.  1.
    8880023    1    1    2    0    0 -0.44374017525E+03  0.18075950913E+03  0.26864194750E+03  0.85764680696E+03  0.65864270000E+03 0.  1.
    8880022    1    1    2    0    0  0.44374017525E+03 -0.18075950913E+03  0.19997135603E+04  0.20619954703E+04  0.15294330000E+03 0.  0.
<mgrwt>
<rscale>  0 0.72201642E+03</rscale>
<asrwt>0</asrwt>
<pdfrwt beam="1">  1        2 0.39907674E+00 0.81448729E+03</pdfrwt>
<pdfrwt beam="2">  1       -2 0.50098984E-01 0.81448729E+03</pdfrwt>
<totfact> 0.12024416E+01</totfact>
</mgrwt>
</event>
<event>
 4    5  0.1112901E-007  0.7114601E+03  0.7818608E-02  0.9952619E-01
          2   -1    0    0  501    0  0.00000000000E+00  0.00000000000E+00  0.17300223329E+04  0.17300223329E+04  0.25500000000E-02 0. -1.
         -2   -1    0    0    0  501 -0.00000000000E+00 -0.00000000000E+00 -0.52548179514E+03  0.52548179515E+03  0.25500000000E-02 0.  1.
    8880023    1    1    2    0    0 -0.12904381449E+03 -0.23603586491E+03 -0.26086910270E+03  0.75777841787E+03  0.65864270000E+03 0.  1.
    8880022    1    1    2    0    0  0.12904381449E+03  0.23603586491E+03  0.14654096404E+04  0.14977257102E+04  0.15294330000E+03 0.  0.
<mgrwt>
<rscale>  0 0.57777554E+03</rscale>
<asrwt>0</asrwt>
<pdfrwt beam="1">  1        2 0.26615729E+00 0.71146008E+03</pdfrwt>
<pdfrwt beam="2">  1       -2 0.80843352E-01 0.71146008E+03</pdfrwt>
<totfact> 0.13180436E+01</totfact>
</mgrwt>
</event>
<event>
 4    5  0.1112901E-007  0.1099672E+04  0.7818608E-02  0.9261421E-01
          2   -1    0    0  501    0  0.00000000000E+00  0.00000000000E+00  0.69489812222E+03  0.69489812222E+03  0.25500000000E-02 0. -1.
         -2   -1    0    0    0  501 -0.00000000000E+00 -0.00000000000E+00 -0.15325101816E+04  0.15325101816E+04  0.25500000000E-02 0.  1.
    8880023    1    1    2    0    0 -0.62731913749E+03  0.61801278955E+03 -0.74622432659E+03  0.13289582613E+04  0.65864270000E+03 0.  0.
    8880022    1    1    2    0    0  0.62731913749E+03 -0.61801278955E+03 -0.91387732820E+02  0.89845004260E+03  0.15294330000E+03 0.  0.
<mgrwt>
<rscale>  0 0.10441343E+04</rscale>
<asrwt>0</asrwt>
<pdfrwt beam="1">  1        2 0.10690740E+00 0.10996724E+04</pdfrwt>
<pdfrwt beam="2">  1       -2 0.23577080E+00 0.10996724E+04</pdfrwt>
<totfact> 0.32106280E+00</totfact>
</mgrwt>
</event>
<event>
 4    5  0.1112901E-007  0.7091918E+03  0.7818608E-02  0.9961015E-01
          2   -1    0    0  501    0  0.00000000000E+00  0.00000000000E+00  0.28390376269E+04  0.28390376269E+04  0.25500000000E-02 0. -1.
         -2   -1    0    0    0  501 -0.00000000000E+00 -0.00000000000E+00 -0.43239100827E+03  0.43239100828E+03  0.25500000000E-02 0.  1.
    8880023    1    1    2    0    0  0.21651086173E+03  0.14921723455E+03 -0.12624084666E+03  0.72033998498E+03  0.65864270000E+03 0.  1.
    8880022    1    1    2    0    0 -0.21651086173E+03 -0.14921723455E+03  0.25328874653E+04  0.25510886502E+04  0.15294330000E+03 0.  0.
<mgrwt>
<rscale>  0 0.57393228E+03</rscale>
<asrwt>0</asrwt>
<pdfrwt beam="1">  1        2 0.43677502E+00 0.70919175E+03</pdfrwt>
<pdfrwt beam="2">  1       -2 0.66521693E-01 0.70919175E+03</pdfrwt>
<totfact> 0.48615597E+00</totfact>
</mgrwt>
</event>
<event>
 4    5  0.1112901E-007  0.7322660E+03  0.7818608E-02  0.9883077E-01
          2   -1    0    0  501    0  0.00000000000E+00  0.00000000000E+00  0.79099028299E+03  0.79099028299E+03  0.25500000000E-02 0. -1.
         -2   -1    0    0    0  501 -0.00000000000E+00 -0.00000000000E+00 -0.18263646861E+04  0.18263646861E+04  0.25500000000E-02 0.  1.
    8880023    1    1    2    0    0  0.31022774006E+03 -0.78498320682E+02 -0.17072202452E+04  0.18576367807E+04  0.65864270000E+03 0.  1.
    8880022    1    1    2    0    0 -0.31022774006E+03  0.78498320682E+02  0.67184584216E+03  0.75971818834E+03  0.15294330000E+03 0.  0.
<mgrwt>
<rscale>  0 0.61088507E+03</rscale>
<asrwt>0</asrwt>
<pdfrwt beam="1">  1        2 0.12169081E+00 0.73226596E+03</pdfrwt>
<pdfrwt beam="2">  1       -2 0.28097918E+00 0.73226596E+03</pdfrwt>
<totfact> 0.15139581E+00</totfact>
</mgrwt>
</event>
<event>
 4    5  0.1112901E-007  0.8295958E+03  0.7818608E-02  0.9650119E-01
         -2   -1    0    0    0  501 -0.00000000000E+00  0.00000000000E+00  0.63654251103E+03  0.63654251104E+03  0.25500000000E-02 0.  1.
          2   -1    0    0  501    0  0.00000000000E+00 -0.00000000000E+00 -0.11525432957E+04  0.11525432957E+04  0.25500000000E-02 0. -1.
    8880023    1    1    2    0    0  0.20626111346E+03  0.46029916137E+03  0.24351691318E+03  0.86459797487E+03  0.65864270000E+03 0.  0.
    8880022    1    1    2    0    0 -0.20626111346E+03 -0.46029916137E+03 -0.75951769781E+03  0.92448783183E+03  0.15294330000E+03 0.  0.
<mgrwt>
<rscale>  0 0.74065935E+03</rscale>
<asrwt>0</asrwt>
<pdfrwt beam="1">  1        2 0.17731435E+00 0.82959579E+03</pdfrwt>
<pdfrwt beam="2">  1       -2 0.97929618E-01 0.82959579E+03</pdfrwt>
<totfact> 0.17731560E+01</totfact>
</mgrwt>
</event>
<event>
 4    5  0.1112901E-007  0.7355622E+03  0.7818608E-02  0.9873068E-01
         -2   -1    0    0    0  501 -0.00000000000E+00  0.00000000000E+00  0.55375497221E+03  0.55375497222E+03  0.25500000000E-02 0.  1.
          2   -1    0    0  501    0  0.00000000000E+00 -0.00000000000E+00 -0.26236989108E+04  0.26236989108E+04  0.25500000000E-02 0. -1.
    8880023    1    1    2    0    0  0.18321981173E+03 -0.27142597655E+03  0.28950389363E+03  0.79048356772E+03  0.65864270000E+03 0.  1.
    8880022    1    1    2    0    0 -0.18321981173E+03  0.27142597655E+03 -0.23594478322E+04  0.23869703153E+04  0.15294330000E+03 0.  0.
<mgrwt>
<rscale>  0 0.61584477E+03</rscale>
<asrwt>0</asrwt>
<pdfrwt beam="1">  1        2 0.40364598E+00 0.73556221E+03</pdfrwt>
<pdfrwt beam="2">  1       -2 0.85193074E-01 0.73556221E+03</pdfrwt>
<totfact> 0.37335473E+00</totfact>
</mgrwt>
</event>
<event>
 4    5  0.1112901E-007  0.7776357E+03  0.7818608E-02  0.9761420E-01
         -2   -1    0    0    0  501 -0.00000000000E+00  0.00000000000E+00  0.12440452437E+04  0.12440452437E+04  0.25500000000E-02 0.  1.
          2   -1    0    0  501    0  0.00000000000E+00 -0.00000000000E+00 -0.14229729285E+04  0.14229729285E+04  0.25500000000E-02 0. -1.
    8880023    1    1    2    0    0  0.40370631528E+03 -0.89041324552E+02  0.10813210220E+04  0.13319055917E+04  0.65864270000E+03 0.  1.
    8880022    1    1    2    0    0 -0.40370631528E+03  0.89041324552E+02 -0.12602487068E+04  0.13351125805E+04  0.15294330000E+03 0.  0.
<mgrwt>
<rscale>  0 0.67474694E+03</rscale>
<asrwt>0</asrwt>
<pdfrwt beam="1">  1        2 0.21891891E+00 0.77763575E+03</pdfrwt>
<pdfrwt beam="2">  1       -2 0.19139158E+00 0.77763575E+03</pdfrwt>
<totfact> 0.21828187E+00</totfact>
</mgrwt>
</event>
<event>
 4    5  0.1112901E-007  0.1087945E+04  0.7818608E-02  0.9274598E-01
         -2   -1    0    0    0  501 -0.00000000000E+00  0.00000000000E+00  0.15205603921E+04  0.15205603921E+04  0.25500000000E-02 0.  1.
          2   -1    0    0  501    0  0.00000000000E+00 -0.00000000000E+00 -0.14397245103E+04  0.14397245103E+04  0.25500000000E-02 0. -1.
    8880023    1    1    2    0    0 -0.75199290509E+03 -0.42932623341E+03  0.11452578096E+04  0.15796328690E+04  0.65864270000E+03 0.  0.
    8880022    1    1    2    0    0  0.75199290509E+03  0.42932623341E+03 -0.10644219278E+04  0.13806520334E+04  0.15294330000E+03 0.  0.
<mgrwt>
<rscale>  0 0.10315544E+04</rscale>
<asrwt>0</asrwt>
<pdfrwt beam="1">  1        2 0.22149608E+00 0.10879451E+04</pdfrwt>
<pdfrwt beam="2">  1       -2 0.23393237E+00 0.10879451E+04</pdfrwt>
<totfact> 0.10922140E+00</totfact>
</mgrwt>
</event>
<event>
 4    5  0.1112901E-007  0.7165509E+03  0.7818608E-02  0.9934434E-01
          2   -1    0    0  501    0  0.00000000000E+00  0.00000000000E+00  0.22463992754E+04  0.22463992754E+04  0.25500000000E-02 0. -1.
         -2   -1    0    0    0  501 -0.00000000000E+00 -0.00000000000E+00 -0.35648718760E+03  0.35648718761E+03  0.25500000000E-02 0.  1.
    8880023    1    1    2    0    0  0.27427966526E+03  0.66375491171E+02  0.31801638666E+02  0.71725629387E+03  0.65864270000E+03 0.  1.
    8880022    1    1    2    0    0 -0.27427966526E+03 -0.66375491171E+02  0.18581104491E+04  0.18856301692E+04  0.15294330000E+03 0.  0.
<mgrwt>
<rscale>  0 0.58621108E+03</rscale>
<asrwt>0</asrwt>
<pdfrwt beam="1">  1        2 0.34559989E+00 0.71655094E+03</pdfrwt>
<pdfrwt beam="2">  1       -2 0.54844183E-01 0.71655094E+03</pdfrwt>
<totfact> 0.15901325E+01</totfact>
</mgrwt>
</event>
<event>
 4    5  0.1112901E-007  0.7782772E+03  0.7818608E-02  0.9759900E-01
         -2   -1    0    0    0  501 -0.00000000000E+00  0.00000000000E+00  0.18833780002E+03  0.18833780004E+03  0.25500000000E-02 0.  1.
          2   -1    0    0  501    0  0.00000000000E+00 -0.00000000000E+00 -0.23225961202E+04  0.23225961202E+04  0.25500000000E-02 0. -1.
    8880023    1    1    2    0    0  0.18100844846E+03 -0.37301629712E+03 -0.17862403882E+04  0.19484276088E+04  0.65864270000E+03 0. -1.
    8880022    1    1    2    0    0 -0.18100844846E+03  0.37301629712E+03 -0.34801793199E+03  0.56250631137E+03  0.15294330000E+03 0.  0.
<mgrwt>
<rscale>  0 0.67559690E+03</rscale>
<asrwt>0</asrwt>
<pdfrwt beam="1">  1        2 0.35732246E+00 0.77827721E+03</pdfrwt>
<pdfrwt beam="2">  1       -2 0.28975048E-01 0.77827721E+03</pdfrwt>
<totfact> 0.49717743E+01</totfact>
</mgrwt>
</event>
<event>
 4    5  0.1112901E-007  0.7401218E+03  0.7818608E-02  0.9859593E-01
         -2   -1    0    0    0  501 -0.00000000000E+00  0.00000000000E+00  0.16634937056E+04  0.16634937056E+04  0.25500000000E-02 0.  1.
          2   -1    0    0  501    0  0.00000000000E+00 -0.00000000000E+00 -0.17248066213E+04  0.17248066213E+04  0.25500000000E-02 0. -1.
    8880023    1    1    2    0    0  0.33731096810E+03  0.13832466347E+02  0.15592004271E+04  0.17259450178E+04  0.65864270000E+03 0.  1.
    8880022    1    1    2    0    0 -0.33731096810E+03 -0.13832466347E+02 -0.16205133428E+04  0.16623553090E+04  0.15294330000E+03 0.  0.
<mgrwt>
<rscale>  0 0.62260210E+03</rscale>
<asrwt>0</asrwt>
<pdfrwt beam="1">  1        2 0.26535487E+00 0.74012177E+03</pdfrwt>
<pdfrwt beam="2">  1       -2 0.25592211E+00 0.74012177E+03</pdfrwt>
<totfact> 0.58992705E-01</totfact>
</mgrwt>
</event>
<event>
 4    5  0.1112901E-007  0.7366117E+03  0.7818608E-02  0.9869929E-01
         -2   -1    0    0    0  501 -0.00000000000E+00  0.00000000000E+00  0.93425134612E+03  0.93425134612E+03  0.25500000000E-02 0.  1.
          2   -1    0    0  501    0  0.00000000000E+00 -0.00000000000E+00 -0.21312278156E+04  0.21312278156E+04  0.25500000000E-02 0. -1.
    8880023    1    1    2    0    0  0.19337287116E+03 -0.26719573723E+03  0.76975881540E+03  0.10654226717E+04  0.65864270000E+03 0.  1.
    8880022    1    1    2    0    0 -0.19337287116E+03  0.26719573723E+03 -0.19667352849E+04  0.20000564900E+04  0.15294330000E+03 0.  0.
<mgrwt>
<rscale>  0 0.61741046E+03</rscale>
<asrwt>0</asrwt>
<pdfrwt beam="1">  1        2 0.32788120E+00 0.73661173E+03</pdfrwt>
<pdfrwt beam="2">  1       -2 0.14373098E+00 0.73661173E+03</pdfrwt>
<totfact> 0.19752677E+00</totfact>
</mgrwt>
</event>
<event>
 4    5  0.1112901E-007  0.1235890E+04  0.7818608E-02  0.9123000E-01
          2   -1    0    0  501    0  0.00000000000E+00  0.00000000000E+00  0.21591469948E+04  0.21591469948E+04  0.25500000000E-02 0. -1.
         -2   -1    0    0    0  501 -0.00000000000E+00 -0.00000000000E+00 -0.11433404089E+04  0.11433404089E+04  0.25500000000E-02 0.  1.
    8880023    1    1    2    0    0 -0.59657994024E+03 -0.85889841030E+03 -0.59834338013E+03  0.13731129273E+04  0.65864270000E+03 0.  0.
    8880022    1    1    2    0    0  0.59657994024E+03  0.85889841030E+03  0.16141499661E+04  0.19293744764E+04  0.15294330000E+03 0.  0.
<mgrwt>
<rscale>  0 0.11884798E+04</rscale>
<asrwt>0</asrwt>
<pdfrwt beam="1">  1        2 0.33217646E+00 0.12358901E+04</pdfrwt>
<pdfrwt beam="2">  1       -2 0.17589853E+00 0.12358901E+04</pdfrwt>
<totfact> 0.10211934E+00</totfact>
</mgrwt>
</event>
<event>
 4    5  0.1112901E-007  0.7939607E+03  0.7818608E-02  0.9724010E-01
         -2   -1    0    0    0  501 -0.00000000000E+00  0.00000000000E+00  0.18715047330E+03  0.18715047332E+03  0.25500000000E-02 0.  1.
          2   -1    0    0  501    0  0.00000000000E+00 -0.00000000000E+00 -0.41894441340E+04  0.41894441340E+04  0.25500000000E-02 0. -1.
    8880023    1    1    2    0    0  0.40766274205E+03 -0.17428262883E+03 -0.75506223471E+03  0.10956699003E+04  0.65864270000E+03 0.  0.
    8880022    1    1    2    0    0 -0.40766274205E+03  0.17428262883E+03 -0.32472314260E+04  0.32809247070E+04  0.15294330000E+03 0.  0.
<mgrwt>
<rscale>  0 0.69605086E+03</rscale>
<asrwt>0</asrwt>
<pdfrwt beam="1">  1        2 0.64452980E+00 0.79396067E+03</pdfrwt>
<pdfrwt beam="2">  1       -2 0.28792384E-01 0.79396067E+03</pdfrwt>
<totfact> 0.29042744E+00</totfact>
</mgrwt>
</event>
<event>
 4    5  0.1112901E-007  0.1058655E+04  0.7818608E-02  0.9308549E-01
          2   -1    0    0  501    0  0.00000000000E+00  0.00000000000E+00  0.97461241130E+03  0.97461241131E+03  0.25500000000E-02 0. -1.
         -2   -1    0    0    0  501 -0.00000000000E+00 -0.00000000000E+00 -0.11934416972E+04  0.11934416972E+04  0.25500000000E-02 0.  1.
    8880023    1    1    2    0    0  0.38868829770E+03  0.73202503235E+03 -0.62827722806E+03  0.12310490333E+04  0.65864270000E+03 0.  0.
    8880022    1    1    2    0    0 -0.38868829770E+03 -0.73202503235E+03  0.40944794213E+03  0.93700507527E+03  0.15294330000E+03 0.  0.
<mgrwt>
<rscale>  0 0.99999606E+03</rscale>
<asrwt>0</asrwt>
<pdfrwt beam="1">  1        2 0.14994037E+00 0.10586545E+04</pdfrwt>
<pdfrwt beam="2">  1       -2 0.18360641E+00 0.10586545E+04</pdfrwt>
<totfact> 0.44160563E+00</totfact>
</mgrwt>
</event>
<event>
 4    5  0.1112901E-007  0.7429405E+03  0.7818608E-02  0.9851463E-01
          2   -1    0    0  501    0  0.00000000000E+00  0.00000000000E+00  0.99559215090E+03  0.99559215090E+03  0.25500000000E-02 0. -1.
         -2   -1    0    0    0  501 -0.00000000000E+00 -0.00000000000E+00 -0.43831462872E+03  0.43831462873E+03  0.25500000000E-02 0.  1.
    8880023    1    1    2    0    0 -0.30415347093E+03 -0.16012809580E+03 -0.21899986049E+02  0.74326318124E+03  0.65864270000E+03 0. -1.
    8880022    1    1    2    0    0  0.30415347093E+03  0.16012809580E+03  0.57917750822E+03  0.69064359838E+03  0.15294330000E+03 0.  0.
<mgrwt>
<rscale>  0 0.62672379E+03</rscale>
<asrwt>0</asrwt>
<pdfrwt beam="1">  1        2 0.15316802E+00 0.74294047E+03</pdfrwt>
<pdfrwt beam="2">  1       -2 0.67433020E-01 0.74294047E+03</pdfrwt>
<totfact> 0.51942569E+01</totfact>
</mgrwt>
</event>
<event>
 4    5  0.1112901E-007  0.8377302E+03  0.7818608E-02  0.9634475E-01
         -2   -1    0    0    0  501 -0.00000000000E+00  0.00000000000E+00  0.28396583651E+04  0.28396583651E+04  0.25500000000E-02 0.  1.
          2   -1    0    0  501    0  0.00000000000E+00 -0.00000000000E+00 -0.59518692459E+03  0.59518692460E+03  0.25500000000E-02 0. -1.
    8880023    1    1    2    0    0 -0.41444968899E+03 -0.31018233535E+03  0.26373600729E+04  0.27672115905E+04  0.65864270000E+03 0.  0.
    8880022    1    1    2    0    0  0.41444968899E+03  0.31018233535E+03 -0.39288863241E+03  0.66763369924E+03  0.15294330000E+03 0.  0.
<mgrwt>
<rscale>  0 0.75055813E+03</rscale>
<asrwt>0</asrwt>
<pdfrwt beam="1">  1        2 0.91567220E-01 0.83773017E+03</pdfrwt>
<pdfrwt beam="2">  1       -2 0.43687051E+00 0.83773017E+03</pdfrwt>
<totfact> 0.22276674E-01</totfact>
</mgrwt>
</event>
<event>
 4    5  0.1112901E-007  0.1816715E+04  0.7818608E-02  0.8713346E-01
          2   -1    0    0  501    0  0.00000000000E+00  0.00000000000E+00  0.18438696516E+04  0.18438696516E+04  0.25500000000E-02 0. -1.
         -2   -1    0    0    0  501 -0.00000000000E+00 -0.00000000000E+00 -0.21672440057E+04  0.21672440057E+04  0.25500000000E-02 0.  1.
    8880023    1    1    2    0    0  0.60549982450E+03 -0.15811432018E+04 -0.11194716784E+04  0.21339332012E+04  0.65864270000E+03 0.  0.
    8880022    1    1    2    0    0 -0.60549982450E+03  0.15811432018E+04  0.79609732422E+03  0.18771804561E+04  0.15294330000E+03 0.  0.
<mgrwt>
<rscale>  0 0.17868086E+04</rscale>
<asrwt>0</asrwt>
<pdfrwt beam="1">  1        2 0.28367225E+00 0.18167152E+04</pdfrwt>
<pdfrwt beam="2">  1       -2 0.33342216E+00 0.18167152E+04</pdfrwt>
<totfact> 0.14624898E-01</totfact>
</mgrwt>
</event>
<event>
 4    5  0.1112901E-007  0.1338826E+04  0.7818608E-02  0.9032736E-01
         -2   -1    0    0    0  501 -0.00000000000E+00  0.00000000000E+00  0.94941815803E+03  0.94941815803E+03  0.25500000000E-02 0.  1.
          2   -1    0    0  501    0  0.00000000000E+00 -0.00000000000E+00 -0.19513072901E+04  0.19513072901E+04  0.25500000000E-02 0. -1.
    8880023    1    1    2    0    0  0.87396989572E+03  0.77124648592E+03  0.26070649460E+02  0.13390796861E+04  0.65864270000E+03 0.  1.
    8880022    1    1    2    0    0 -0.87396989572E+03 -0.77124648592E+03 -0.10279597815E+04  0.15616457621E+04  0.15294330000E+03 0.  0.
<mgrwt>
<rscale>  0 0.12960089E+04</rscale>
<asrwt>0</asrwt>
<pdfrwt beam="1">  1        2 0.30020112E+00 0.13388259E+04</pdfrwt>
<pdfrwt beam="2">  1       -2 0.14606433E+00 0.13388259E+04</pdfrwt>
<totfact> 0.21931477E+00</totfact>
</mgrwt>
</event>
<event>
 4    5  0.1112901E-007  0.1552666E+04  0.7818608E-02  0.8873315E-01
          2   -1    0    0  501    0  0.00000000000E+00  0.00000000000E+00  0.21140274698E+04  0.21140274698E+04  0.25500000000E-02 0. -1.
         -2   -1    0    0    0  501 -0.00000000000E+00 -0.00000000000E+00 -0.14753450668E+04  0.14753450668E+04  0.25500000000E-02 0.  1.
    8880023    1    1    2    0    0  0.29022186821E+03  0.13757664271E+04 -0.64314184488E+03  0.16805962138E+04  0.65864270000E+03 0.  0.
    8880022    1    1    2    0    0 -0.29022186821E+03 -0.13757664271E+04  0.12818242479E+04  0.19087763228E+04  0.15294330000E+03 0.  0.
<mgrwt>
<rscale>  0 0.15168649E+04</rscale>
<asrwt>0</asrwt>
<pdfrwt beam="1">  1        2 0.32523500E+00 0.15526662E+04</pdfrwt>
<pdfrwt beam="2">  1       -2 0.22697616E+00 0.15526662E+04</pdfrwt>
<totfact> 0.48067105E-01</totfact>
</mgrwt>
</event>
<event>
 4    5  0.1112901E-007  0.1485015E+04  0.7818608E-02  0.8920290E-01
          2   -1    0    0  501    0  0.00000000000E+00  0.00000000000E+00  0.45964597611E+04  0.45964597611E+04  0.25500000000E-02 0. -1.
         -2   -1    0    0    0  501 -0.00000000000E+00 -0.00000000000E+00 -0.57538095749E+03  0.57538095750E+03  0.25500000000E-02 0.  1.
    8880023    1    1    2    0    0 -0.31740719518E+03  0.12925602967E+04  0.33691776346E+04  0.36819325887E+04  0.65864270000E+03 0.  0.
    8880022    1    1    2    0    0  0.31740719518E+03 -0.12925602967E+04  0.65190116897E+03  0.14899081298E+04  0.15294330000E+03 0.  0.
<mgrwt>
<rscale>  0 0.14472771E+04</rscale>
<asrwt>0</asrwt>
<pdfrwt beam="1">  1        2 0.70714765E+00 0.14850150E+04</pdfrwt>
<pdfrwt beam="2">  1       -2 0.88520148E-01 0.14850150E+04</pdfrwt>
<totfact> 0.10685578E-01</totfact>
</mgrwt>
</event>
<event>
 4    5  0.1112901E-007  0.9726945E+03  0.7818608E-02  0.9418187E-01
          2   -1    0    0  501    0  0.00000000000E+00  0.00000000000E+00  0.18179181410E+04  0.18179181410E+04  0.25500000000E-02 0. -1.
         -2   -1    0    0    0  501 -0.00000000000E+00 -0.00000000000E+00 -0.45159235871E+03  0.45159235871E+03  0.25500000000E-02 0.  1.
    8880023    1    1    2    0    0 -0.26228259942E+03  0.66598210743E+03  0.38691120174E+03  0.10468212902E+04  0.65864270000E+03 0.  1.
    8880022    1    1    2    0    0  0.26228259942E+03 -0.66598210743E+03  0.97941458052E+03  0.12226892095E+04  0.15294330000E+03 0.  0.
<mgrwt>
<rscale>  0 0.90593943E+03</rscale>
<asrwt>0</asrwt>
<pdfrwt beam="1">  1        2 0.27967972E+00 0.97269447E+03</pdfrwt>
<pdfrwt beam="2">  1       -2 0.69475747E-01 0.97269447E+03</pdfrwt>
<totfact> 0.15994157E+01</totfact>
</mgrwt>
</event>
<event>
 4    5  0.1112901E-007  0.8740258E+03  0.7818608E-02  0.9569085E-01
          2   -1    0    0  501    0  0.00000000000E+00  0.00000000000E+00  0.12457636807E+04  0.12457636807E+04  0.25500000000E-02 0. -1.
         -2   -1    0    0    0  501 -0.00000000000E+00 -0.00000000000E+00 -0.76237502194E+03  0.76237502194E+03  0.25500000000E-02 0.  1.
    8880023    1    1    2    0    0  0.51857677686E+03  0.24736426323E+03 -0.38552810305E+03  0.95527643995E+03  0.65864270000E+03 0.  1.
    8880022    1    1    2    0    0 -0.51857677686E+03 -0.24736426323E+03  0.86891676180E+03  0.10528622627E+04  0.15294330000E+03 0.  0.
<mgrwt>
<rscale>  0 0.79376561E+03</rscale>
<asrwt>0</asrwt>
<pdfrwt beam="1">  1        2 0.19165595E+00 0.87402583E+03</pdfrwt>
<pdfrwt beam="2">  1       -2 0.11728847E+00 0.87402583E+03</pdfrwt>
<totfact> 0.10052536E+01</totfact>
</mgrwt>
</event>
<event>
 4    5  0.1112901E-007  0.1653414E+04  0.7818608E-02  0.8808274E-01
         -2   -1    0    0    0  501 -0.00000000000E+00  0.00000000000E+00  0.10608652590E+04  0.10608652590E+04  0.25500000000E-02 0.  1.
          2   -1    0    0  501    0  0.00000000000E+00 -0.00000000000E+00 -0.35680595898E+04  0.35680595898E+04  0.25500000000E-02 0. -1.
    8880023    1    1    2    0    0  0.14981024671E+04 -0.23591658312E+03  0.47458966964E+02  0.16540949779E+04  0.65864270000E+03 0.  0.
    8880022    1    1    2    0    0 -0.14981024671E+04  0.23591658312E+03 -0.25546532978E+04  0.29748298709E+04  0.15294330000E+03 0.  0.
<mgrwt>
<rscale>  0 0.16201333E+04</rscale>
<asrwt>0</asrwt>
<pdfrwt beam="1">  1        2 0.54893224E+00 0.16534140E+04</pdfrwt>
<pdfrwt beam="2">  1       -2 0.16321004E+00 0.16534140E+04</pdfrwt>
<totfact> 0.16222260E-01</totfact>
</mgrwt>
</event>
<event>
 4    5  0.1112901E-007  0.1856208E+04  0.7818608E-02  0.8692065E-01
          2   -1    0    0  501    0  0.00000000000E+00  0.00000000000E+00  0.24542152612E+04  0.24542152612E+04  0.25500000000E-02 0. -1.
         -2   -1    0    0    0  501 -0.00000000000E+00 -0.00000000000E+00 -0.19473364924E+04  0.19473364925E+04  0.25500000000E-02 0.  1.
    8880023    1    1    2    0    0 -0.10945150977E+04  0.13467490871E+04 -0.99083964972E+03  0.21041078443E+04  0.65864270000E+03 0.  1.
    8880022    1    1    2    0    0  0.10945150977E+04 -0.13467490871E+04  0.14977184185E+04  0.22974439094E+04  0.15294330000E+03 0.  0.
<mgrwt>
<rscale>  0 0.18270117E+04</rscale>
<asrwt>0</asrwt>
<pdfrwt beam="1">  1        2 0.37757158E+00 0.18562076E+04</pdfrwt>
<pdfrwt beam="2">  1       -2 0.29959023E+00 0.18562076E+04</pdfrwt>
<totfact> 0.10642060E-01</totfact>
</mgrwt>
</event>
<event>
 4    5  0.1112901E-007  0.9228377E+03  0.7818608E-02  0.9490322E-01
         -2   -1    0    0    0  501 -0.00000000000E+00  0.00000000000E+00  0.91824321777E+03  0.91824321777E+03  0.25500000000E-02 0.  1.
          2   -1    0    0  501    0  0.00000000000E+00 -0.00000000000E+00 -0.12602211474E+04  0.12602211474E+04  0.25500000000E-02 0. -1.
    8880023    1    1    2    0    0 -0.56428392287E+03 -0.31528212699E+03  0.54391972967E+03  0.10712040160E+04  0.65864270000E+03 0.  0.
    8880022    1    1    2    0    0  0.56428392287E+03  0.31528212699E+03 -0.88589765935E+03  0.11072603493E+04  0.15294330000E+03 0.  0.
<mgrwt>
<rscale>  0 0.85001141E+03</rscale>
<asrwt>0</asrwt>
<pdfrwt beam="1">  1        2 0.19388018E+00 0.92283767E+03</pdfrwt>
<pdfrwt beam="2">  1       -2 0.14126819E+00 0.92283767E+03</pdfrwt>
<totfact> 0.61198096E+00</totfact>
</mgrwt>
</event>
<event>
 4    5  0.1112901E-007  0.7407107E+03  0.7818608E-02  0.9857882E-01
          2   -1    0    0  501    0  0.00000000000E+00  0.00000000000E+00  0.14403400951E+04  0.14403400951E+04  0.25500000000E-02 0. -1.
         -2   -1    0    0    0  501 -0.00000000000E+00 -0.00000000000E+00 -0.60421499183E+03  0.60421499184E+03  0.25500000000E-02 0.  1.
    8880023    1    1    2    0    0 -0.12027649175E+03 -0.31682120798E+03 -0.33711173985E+03  0.81381609944E+03  0.65864270000E+03 0.  1.
    8880022    1    1    2    0    0  0.12027649175E+03  0.31682120798E+03  0.11732368431E+04  0.12307389875E+04  0.15294330000E+03 0.  0.
<mgrwt>
<rscale>  0 0.62346665E+03</rscale>
<asrwt>0</asrwt>
<pdfrwt beam="1">  1        2 0.22159078E+00 0.74071068E+03</pdfrwt>
<pdfrwt beam="2">  1       -2 0.92956154E-01 0.74071068E+03</pdfrwt>
<totfact> 0.13785340E+01</totfact>
</mgrwt>
</event>
<event>
 4    5  0.1112901E-007  0.1001842E+04  0.7818608E-02  0.9379151E-01
         -2   -1    0    0    0  501 -0.00000000000E+00  0.00000000000E+00  0.43011919226E+03  0.43011919227E+03  0.25500000000E-02 0.  1.
          2   -1    0    0  501    0  0.00000000000E+00 -0.00000000000E+00 -0.33531956493E+04  0.33531956493E+04  0.25500000000E-02 0. -1.
    8880023    1    1    2    0    0 -0.52733107429E+03 -0.54018524860E+03 -0.29452810977E+03  0.10442390428E+04  0.65864270000E+03 0.  0.
    8880022    1    1    2    0    0  0.52733107429E+03  0.54018524860E+03 -0.26285483472E+04  0.27390757988E+04  0.15294330000E+03 0.  0.
<mgrwt>
<rscale>  0 0.93811508E+03</rscale>
<asrwt>0</asrwt>
<pdfrwt beam="1">  1        2 0.51587624E+00 0.10018425E+04</pdfrwt>
<pdfrwt beam="2">  1       -2 0.66172186E-01 0.10018425E+04</pdfrwt>
<totfact> 0.22229888E+00</totfact>
</mgrwt>
</event>
<event>
 4    5  0.1112901E-007  0.1468381E+04  0.7818608E-02  0.8932292E-01
         -2   -1    0    0    0  501 -0.00000000000E+00  0.00000000000E+00  0.18424041578E+04  0.18424041578E+04  0.25500000000E-02 0.  1.
          2   -1    0    0  501    0  0.00000000000E+00 -0.00000000000E+00 -0.22968812330E+04  0.22968812330E+04  0.25500000000E-02 0. -1.
    8880023    1    1    2    0    0  0.18370289297E+03 -0.12994556059E+04 -0.17530115593E+04  0.22867425211E+04  0.65864270000E+03 0.  0.
    8880022    1    1    2    0    0 -0.18370289297E+03  0.12994556059E+04  0.12985344841E+04  0.18525428697E+04  0.15294330000E+03 0.  0.
<mgrwt>
<rscale>  0 0.14301313E+04</rscale>
<asrwt>0</asrwt>
<pdfrwt beam="1">  1        2 0.35336634E+00 0.14683807E+04</pdfrwt>
<pdfrwt beam="2">  1       -2 0.28344679E+00 0.14683807E+04</pdfrwt>
<totfact> 0.17191462E-01</totfact>
</mgrwt>
</event>
<event>
 4    5  0.1112901E-007  0.8665469E+03  0.7818608E-02  0.9582022E-01
          2   -1    0    0  501    0  0.00000000000E+00  0.00000000000E+00  0.15272902917E+04  0.15272902917E+04  0.25500000000E-02 0. -1.
         -2   -1    0    0    0  501 -0.00000000000E+00 -0.00000000000E+00 -0.10097819277E+04  0.10097819277E+04  0.25500000000E-02 0.  1.
    8880023    1    1    2    0    0 -0.54785978362E+03  0.13016508729E+03 -0.74722283096E+03  0.11442226435E+04  0.65864270000E+03 0.  0.
    8880022    1    1    2    0    0  0.54785978362E+03 -0.13016508729E+03  0.12647311950E+04  0.13928495759E+04  0.15294330000E+03 0. -1.
<mgrwt>
<rscale>  0 0.78497583E+03</rscale>
<asrwt>0</asrwt>
<pdfrwt beam="1">  1        2 0.23496774E+00 0.86654688E+03</pdfrwt>
<pdfrwt beam="2">  1       -2 0.15535107E+00 0.86654688E+03</pdfrwt>
<totfact> 0.33758500E+00</totfact>
</mgrwt>
</event>
<event>
 4    5  0.1112901E-007  0.1357370E+04  0.7818608E-02  0.9017536E-01
          2   -1    0    0  501    0  0.00000000000E+00  0.00000000000E+00  0.24205566683E+04  0.24205566683E+04  0.25500000000E-02 0. -1.
         -2   -1    0    0    0  501 -0.00000000000E+00 -0.00000000000E+00 -0.73420606604E+03  0.73420606604E+03  0.25500000000E-02 0.  1.
    8880023    1    1    2    0    0  0.26146347754E+03 -0.11577045089E+04  0.43994829244E+03  0.14268873769E+04  0.65864270000E+03 0.  1.
    8880022    1    1    2    0    0 -0.26146347754E+03  0.11577045089E+04  0.12464023099E+04  0.17278753575E+04  0.15294330000E+03 0.  0.
<mgrwt>
<rscale>  0 0.13152789E+04</rscale>
<asrwt>0</asrwt>
<pdfrwt beam="1">  1        2 0.37239334E+00 0.13573699E+04</pdfrwt>
<pdfrwt beam="2">  1       -2 0.11295478E+00 0.13573699E+04</pdfrwt>
<totfact> 0.22978112E+00</totfact>
</mgrwt>
</event>
<event>
 4    5  0.1112901E-007  0.1053254E+04  0.7818608E-02  0.9314979E-01
         -2   -1    0    0    0  501 -0.00000000000E+00  0.00000000000E+00  0.11784556046E+04  0.11784556046E+04  0.25500000000E-02 0.  1.
          2   -1    0    0  501    0  0.00000000000E+00 -0.00000000000E+00 -0.22620968083E+04  0.22620968083E+04  0.25500000000E-02 0. -1.
    8880023    1    1    2    0    0 -0.72262930733E+03 -0.39158816918E+03  0.83733602708E+03  0.13455393857E+04  0.65864270000E+03 0.  0.
    8880022    1    1    2    0    0  0.72262930733E+03  0.39158816918E+03 -0.19209772307E+04  0.20950130272E+04  0.15294330000E+03 0.  0.
<mgrwt>
<rscale>  0 0.99415439E+03</rscale>
<asrwt>0</asrwt>
<pdfrwt beam="1">  1        2 0.34801489E+00 0.10532543E+04</pdfrwt>
<pdfrwt beam="2">  1       -2 0.18130086E+00 0.10532543E+04</pdfrwt>
<totfact> 0.84059966E-01</totfact>
</mgrwt>
</event>
<event>
 4    5  0.1112901E-007  0.8774698E+03  0.7818608E-02  0.9563213E-01
         -2   -1    0    0    0  501 -0.00000000000E+00  0.00000000000E+00  0.39784544660E+03  0.39784544661E+03  0.25500000000E-02 0.  1.
          2   -1    0    0  501    0  0.00000000000E+00 -0.00000000000E+00 -0.23903587645E+04  0.23903587645E+04  0.25500000000E-02 0. -1.
    8880023    1    1    2    0    0  0.55887894209E+03  0.15426415774E+03 -0.20263900227E+03  0.90056419748E+03  0.65864270000E+03 0.  1.
    8880022    1    1    2    0    0 -0.55887894209E+03 -0.15426415774E+03 -0.17898743156E+04  0.18876400136E+04  0.15294330000E+03 0.  0.
<mgrwt>
<rscale>  0 0.79779582E+03</rscale>
<asrwt>0</asrwt>
<pdfrwt beam="1">  1        2 0.36774749E+00 0.87746983E+03</pdfrwt>
<pdfrwt beam="2">  1       -2 0.61206993E-01 0.87746983E+03</pdfrwt>
<totfact> 0.10252967E+01</totfact>
</mgrwt>
</event>
<event>
 4    5  0.1112901E-007  0.1084344E+04  0.7818608E-02  0.9278690E-01
         -2   -1    0    0    0  501 -0.00000000000E+00  0.00000000000E+00  0.74436657769E+03  0.74436657770E+03  0.25500000000E-02 0.  1.
          2   -1    0    0  501    0  0.00000000000E+00 -0.00000000000E+00 -0.35574273513E+04  0.35574273513E+04  0.25500000000E-02 0. -1.
    8880023    1    1    2    0    0 -0.86132365378E+03 -0.10687115726E+02  0.25290855250E+03  0.11134476158E+04  0.65864270000E+03 0.  0.
    8880022    1    1    2    0    0  0.86132365378E+03  0.10687115726E+02 -0.30659693261E+04  0.31883463131E+04  0.15294330000E+03 0.  0.
<mgrwt>
<rscale>  0 0.10276859E+04</rscale>
<asrwt>0</asrwt>
<pdfrwt beam="1">  1        2 0.54729651E+00 0.10843444E+04</pdfrwt>
<pdfrwt beam="2">  1       -2 0.11451794E+00 0.10843444E+04</pdfrwt>
<totfact> 0.44941592E-01</totfact>
</mgrwt>
</event>
<event>
 4    5  0.1112901E-007  0.6652175E+03  0.7818608E-02  0.1019352E+00
          2   -1    0    0  501    0  0.00000000000E+00  0.00000000000E+00  0.10405396910E+04  0.10405396910E+04  0.25500000000E-02 0. -1.
         -2   -1    0    0    0  501 -0.00000000000E+00 -0.00000000000E+00 -0.27073403969E+03  0.27073403970E+03  0.25500000000E-02 0.  1.
    8880023    1    1    2    0    0 -0.22565682393E+00 -0.93295393540E+02  0.17184956229E+03  0.68705644579E+03  0.65864270000E+03 0.  1.
    8880022    1    1    2    0    0  0.22565682393E+00  0.93295393540E+02  0.59795608901E+03  0.62421728491E+03  0.15294330000E+03 0.  0.
<mgrwt>
<rscale>  0 0.47921307E+03</rscale>
<asrwt>0</asrwt>
<pdfrwt beam="1">  1        2 0.16008303E+00 0.66521747E+03</pdfrwt>
<pdfrwt beam="2">  1       -2 0.41651390E-01 0.66521747E+03</pdfrwt>
<totfact> 0.13206931E+02</totfact>
</mgrwt>
</event>
<event>
 4    5  0.1112901E-007  0.9078699E+03  0.7818608E-02  0.9513514E-01
          2   -1    0    0  501    0  0.00000000000E+00  0.00000000000E+00  0.21226125903E+04  0.21226125903E+04  0.25500000000E-02 0. -1.
         -2   -1    0    0    0  501 -0.00000000000E+00 -0.00000000000E+00 -0.29047398546E+03  0.29047398547E+03  0.25500000000E-02 0.  1.
    8880023    1    1    2    0    0  0.49499271253E+03 -0.38131311600E+03  0.12543089461E+04  0.15483922682E+04  0.65864270000E+03 0. -1.
    8880022    1    1    2    0    0 -0.49499271253E+03  0.38131311600E+03  0.57782965874E+03  0.86469430751E+03  0.15294330000E+03 0.  1.
<mgrwt>
<rscale>  0 0.83294765E+03</rscale>
<asrwt>0</asrwt>
<pdfrwt beam="1">  1        2 0.32655578E+00 0.90786986E+03</pdfrwt>
<pdfrwt beam="2">  1       -2 0.44688306E-01 0.90786986E+03</pdfrwt>
<totfact> 0.27524266E+01</totfact>
</mgrwt>
</event>
<event>
 4    5  0.1112901E-007  0.1016690E+04  0.7818608E-02  0.9360040E-01
          2   -1    0    0  501    0  0.00000000000E+00  0.00000000000E+00  0.25612993895E+04  0.25612993895E+04  0.25500000000E-02 0. -1.
         -2   -1    0    0    0  501 -0.00000000000E+00 -0.00000000000E+00 -0.54324891977E+03  0.54324891978E+03  0.25500000000E-02 0.  1.
    8880023    1    1    2    0    0  0.48795654893E+03 -0.60145449320E+03  0.89442550600E+02  0.10206171060E+04  0.65864270000E+03 0.  0.
    8880022    1    1    2    0    0 -0.48795654893E+03  0.60145449320E+03  0.19286079191E+04  0.20839312032E+04  0.15294330000E+03 0.  0.
<mgrwt>
<rscale>  0 0.95438480E+03</rscale>
<asrwt>0</asrwt>
<pdfrwt beam="1">  1        2 0.39404605E+00 0.10166904E+04</pdfrwt>
<pdfrwt beam="2">  1       -2 0.83576758E-01 0.10166904E+04</pdfrwt>
<totfact> 0.40503552E+00</totfact>
</mgrwt>
</event>
<event>
 4    5  0.1112901E-007  0.7493796E+03  0.7818608E-02  0.9833422E-01
          2   -1    0    0  501    0  0.00000000000E+00  0.00000000000E+00  0.96355509118E+03  0.96355509118E+03  0.25500000000E-02 0. -1.
         -2   -1    0    0    0  501 -0.00000000000E+00 -0.00000000000E+00 -0.35280505766E+03  0.35280505767E+03  0.25500000000E-02 0.  1.
    8880023    1    1    2    0    0 -0.31614688141E+03 -0.16676541629E+03  0.26135353411E+03  0.79364691819E+03  0.65864270000E+03 0.  1.
    8880022    1    1    2    0    0  0.31614688141E+03  0.16676541629E+03  0.34939649940E+03  0.52271323066E+03  0.15294330000E+03 0. -1.
<mgrwt>
<rscale>  0 0.63599375E+03</rscale>
<asrwt>0</asrwt>
<pdfrwt beam="1">  1        2 0.14823924E+00 0.74937958E+03</pdfrwt>
<pdfrwt beam="2">  1       -2 0.54277702E-01 0.74937958E+03</pdfrwt>
<totfact> 0.86176356E+01</totfact>
</mgrwt>
</event>
<event>
 4    5  0.1112901E-007  0.6652585E+03  0.7818608E-02  0.1019318E+00
          2   -1    0    0  501    0  0.00000000000E+00  0.00000000000E+00  0.54555964584E+03  0.54555964585E+03  0.25500000000E-02 0. -1.
         -2   -1    0    0    0  501 -0.00000000000E+00 -0.00000000000E+00 -0.33881767148E+03  0.33881767149E+03  0.25500000000E-02 0.  1.
    8880023    1    1    2    0    0 -0.57116960747E+02  0.74137018012E+02  0.92219354736E+02  0.67161987783E+03  0.65864270000E+03 0.  1.
    8880022    1    1    2    0    0  0.57116960747E+02 -0.74137018012E+02  0.11452261962E+03  0.21275743951E+03  0.15294330000E+03 0. -1.
<mgrwt>
<rscale>  0 0.47933699E+03</rscale>
<asrwt>0</asrwt>
<pdfrwt beam="1">  1        2 0.83932252E-01 0.66525848E+03</pdfrwt>
<pdfrwt beam="2">  1       -2 0.52125796E-01 0.66525848E+03</pdfrwt>
<totfact> 0.19570414E+02</totfact>
</mgrwt>
</event>
<event>
 4    5  0.1112901E-007  0.9880264E+03  0.7818608E-02  0.9397393E-01
          2   -1    0    0  501    0  0.00000000000E+00  0.00000000000E+00  0.16659815855E+04  0.16659815855E+04  0.25500000000E-02 0. -1.
         -2   -1    0    0    0  501 -0.00000000000E+00 -0.00000000000E+00 -0.94076721445E+03  0.94076721445E+03  0.25500000000E-02 0.  1.
    8880023    1    1    2    0    0 -0.13199514900E+03 -0.72454352508E+03 -0.54660611993E+03  0.11291476855E+04  0.65864270000E+03 0.  1.
    8880022    1    1    2    0    0  0.13199514900E+03  0.72454352508E+03  0.12718204910E+04  0.14776011144E+04  0.15294330000E+03 0.  0.
<mgrwt>
<rscale>  0 0.92290533E+03</rscale>
<asrwt>0</asrwt>
<pdfrwt beam="1">  1        2 0.25630486E+00 0.98802644E+03</pdfrwt>
<pdfrwt beam="2">  1       -2 0.14473342E+00 0.98802644E+03</pdfrwt>
<totfact> 0.33583111E+00</totfact>
</mgrwt>
</event>
<event>
 4    5  0.1112901E-007  0.7429275E+03  0.7818608E-02  0.9851500E-01
          2   -1    0    0  501    0  0.00000000000E+00  0.00000000000E+00  0.14453532877E+04  0.14453532877E+04  0.25500000000E-02 0. -1.
         -2   -1    0    0    0  501 -0.00000000000E+00 -0.00000000000E+00 -0.31779741934E+03  0.31779741935E+03  0.25500000000E-02 0.  1.
    8880023    1    1    2    0    0 -0.75820327078E+02 -0.33523485539E+03  0.21086967566E+03  0.77227414604E+03  0.65864270000E+03 0.  0.
    8880022    1    1    2    0    0  0.75820327078E+02  0.33523485539E+03  0.91668619273E+03  0.99087656105E+03  0.15294330000E+03 0.  0.
<mgrwt>
<rscale>  0 0.62670497E+03</rscale>
<asrwt>0</asrwt>
<pdfrwt beam="1">  1        2 0.22236204E+00 0.74292754E+03</pdfrwt>
<pdfrwt beam="2">  1       -2 0.48891912E-01 0.74292754E+03</pdfrwt>
<totfact> 0.55151476E+01</totfact>
</mgrwt>
</event>
<event>
 4    5  0.1112901E-007  0.9647168E+03  0.7818608E-02  0.9429249E-01
          2   -1    0    0  501    0  0.00000000000E+00  0.00000000000E+00  0.68700079549E+03  0.68700079549E+03  0.25500000000E-02 0. -1.
         -2   -1    0    0    0  501 -0.00000000000E+00 -0.00000000000E+00 -0.16469238251E+04  0.16469238251E+04  0.25500000000E-02 0.  1.
    8880023    1    1    2    0    0 -0.60564359178E+03 -0.36064393609E+03 -0.12304692880E+04  0.15635642245E+04  0.65864270000E+03 0.  1.
    8880022    1    1    2    0    0  0.60564359178E+03  0.36064393609E+03  0.27054625847E+03  0.77036039610E+03  0.15294330000E+03 0.  0.
<mgrwt>
<rscale>  0 0.89707222E+03</rscale>
<asrwt>0</asrwt>
<pdfrwt beam="1">  1        2 0.10569243E+00 0.96471675E+03</pdfrwt>
<pdfrwt beam="2">  1       -2 0.25337290E+00 0.96471675E+03</pdfrwt>
<totfact> 0.25773781E+00</totfact>
</mgrwt>
</event>
<event>
 4    5  0.1112901E-007  0.6957289E+03  0.7818608E-02  0.1001540E+00
         -2   -1    0    0    0  501 -0.00000000000E+00  0.00000000000E+00  0.41760138110E+03  0.41760138111E+03  0.25500000000E-02 0.  1.
          2   -1    0    0  501    0  0.00000000000E+00 -0.00000000000E+00 -0.11495446052E+04  0.11495446052E+04  0.25500000000E-02 0. -1.
    8880023    1    1    2    0    0  0.11187311729E+03 -0.19419797597E+03  0.90046775435E+02  0.70153194957E+03  0.65864270000E+03 0.  1.
    8880022    1    1    2    0    0 -0.11187311729E+03  0.19419797597E+03 -0.82198999957E+03  0.86561403677E+03  0.15294330000E+03 0.  0.
<mgrwt>
<rscale>  0 0.54979979E+03</rscale>
<asrwt>0</asrwt>
<pdfrwt beam="1">  1        2 0.17685301E+00 0.69572887E+03</pdfrwt>
<pdfrwt beam="2">  1       -2 0.64246367E-01 0.69572887E+03</pdfrwt>
<totfact> 0.46508932E+01</totfact>
</mgrwt>
</event>
<event>
 4    5  0.1112901E-007  0.1133708E+04  0.7818608E-02  0.9224423E-01
          2   -1    0    0  501    0  0.00000000000E+00  0.00000000000E+00  0.34490260286E+04  0.34490260286E+04  0.25500000000E-02 0. -1.
         -2   -1    0    0    0  501 -0.00000000000E+00 -0.00000000000E+00 -0.53689688963E+03  0.53689688963E+03  0.25500000000E-02 0.  1.
    8880023    1    1    2    0    0 -0.37909859466E+03  0.84128989023E+03  0.24546643727E+03  0.11599777593E+04  0.65864270000E+03 0.  0.
    8880022    1    1    2    0    0  0.37909859466E+03 -0.84128989023E+03  0.26666627017E+04  0.28259451590E+04  0.15294330000E+03 0.  0.
<mgrwt>
<rscale>  0 0.10804865E+04</rscale>
<asrwt>0</asrwt>
<pdfrwt beam="1">  1        2 0.53061939E+00 0.11337084E+04</pdfrwt>
<pdfrwt beam="2">  1       -2 0.82599522E-01 0.11337084E+04</pdfrwt>
<totfact> 0.11476489E+00</totfact>
</mgrwt>
</event>
<event>
 4    5  0.1112901E-007  0.8075036E+03  0.7818608E-02  0.9694801E-01
          2   -1    0    0  501    0  0.00000000000E+00  0.00000000000E+00  0.22943044539E+04  0.22943044539E+04  0.25500000000E-02 0. -1.
         -2   -1    0    0    0  501 -0.00000000000E+00 -0.00000000000E+00 -0.14842328998E+04  0.14842328998E+04  0.25500000000E-02 0.  1.
    8880023    1    1    2    0    0  0.39416095950E+03  0.25077678645E+03 -0.13446329882E+04  0.15684705728E+04  0.65864270000E+03 0.  1.
    8880022    1    1    2    0    0 -0.39416095950E+03 -0.25077678645E+03  0.21547045422E+04  0.22100667809E+04  0.15294330000E+03 0.  0.
<mgrwt>
<rscale>  0 0.71327211E+03</rscale>
<asrwt>0</asrwt>
<pdfrwt beam="1">  1        2 0.35296992E+00 0.80750360E+03</pdfrwt>
<pdfrwt beam="2">  1       -2 0.22834352E+00 0.80750360E+03</pdfrwt>
<totfact> 0.41740435E-01</totfact>
</mgrwt>
</event>
<event>
 4    5  0.1112901E-007  0.6613777E+03  0.7818608E-02  0.1022787E+00
          2   -1    0    0  501    0  0.00000000000E+00  0.00000000000E+00  0.15982346520E+04  0.15982346520E+04  0.25500000000E-02 0. -1.
         -2   -1    0    0    0  501 -0.00000000000E+00 -0.00000000000E+00 -0.17207843812E+03  0.17207843814E+03  0.25500000000E-02 0.  1.
    8880023    1    1    2    0    0 -0.74820043042E+01 -0.59617473691E+02  0.49847132155E+03  0.82818723018E+03  0.65864270000E+03 0.  1.
    8880022    1    1    2    0    0  0.74820043042E+01  0.59617473691E+02  0.92768489227E+03  0.94212585992E+03  0.15294330000E+03 0.  0.
<mgrwt>
<rscale>  0 0.46694034E+03</rscale>
<asrwt>0</asrwt>
<pdfrwt beam="1">  1        2 0.24588225E+00 0.66137768E+03</pdfrwt>
<pdfrwt beam="2">  1       -2 0.26473607E-01 0.66137768E+03</pdfrwt>
<totfact> 0.14806961E+02</totfact>
</mgrwt>
</event>
<event>
 4    5  0.1112901E-007  0.1485809E+04  0.7818608E-02  0.8919722E-01
          2   -1    0    0  501    0  0.00000000000E+00  0.00000000000E+00  0.27461343768E+04  0.27461343768E+04  0.25500000000E-02 0. -1.
         -2   -1    0    0    0  501 -0.00000000000E+00 -0.00000000000E+00 -0.10170783726E+04  0.10170783726E+04  0.25500000000E-02 0.  1.
    8880023    1    1    2    0    0 -0.12940788430E+04  0.31492729758E+03 -0.10718564994E+03  0.14896705087E+04  0.65864270000E+03 0.  1.
    8880022    1    1    2    0    0  0.12940788430E+04 -0.31492729758E+03  0.18362416542E+04  0.22735422407E+04  0.15294330000E+03 0.  0.
<mgrwt>
<rscale>  0 0.14480955E+04</rscale>
<asrwt>0</asrwt>
<pdfrwt beam="1">  1        2 0.42248221E+00 0.14858094E+04</pdfrwt>
<pdfrwt beam="2">  1       -2 0.15647360E+00 0.14858094E+04</pdfrwt>
<totfact> 0.63124797E-01</totfact>
</mgrwt>
</event>
<event>
 4    5  0.1112901E-007  0.1577711E+04  0.7818608E-02  0.8856625E-01
          2   -1    0    0  501    0  0.00000000000E+00  0.00000000000E+00  0.19717656801E+04  0.19717656801E+04  0.25500000000E-02 0. -1.
         -2   -1    0    0    0  501 -0.00000000000E+00 -0.00000000000E+00 -0.16495997874E+04  0.16495997874E+04  0.25500000000E-02 0.  1.
    8880023    1    1    2    0    0 -0.51931264275E+03 -0.13362922542E+04 -0.82360870321E+03  0.17797483283E+04  0.65864270000E+03 0.  1.
    8880022    1    1    2    0    0  0.51931264275E+03  0.13362922542E+04  0.11457745959E+04  0.18416171392E+04  0.15294330000E+03 0.  0.
<mgrwt>
<rscale>  0 0.15425741E+04</rscale>
<asrwt>0</asrwt>
<pdfrwt beam="1">  1        2 0.30334857E+00 0.15777113E+04</pdfrwt>
<pdfrwt beam="2">  1       -2 0.25378458E+00 0.15777113E+04</pdfrwt>
<totfact> 0.39234050E-01</totfact>
</mgrwt>
</event>
<event>
 4    5  0.1112901E-007  0.8180140E+03  0.7818608E-02  0.9673120E-01
         -2   -1    0    0    0  501 -0.00000000000E+00  0.00000000000E+00  0.47605065616E+03  0.47605065616E+03  0.25500000000E-02 0.  1.
          2   -1    0    0  501    0  0.00000000000E+00 -0.00000000000E+00 -0.11844199818E+04  0.11844199818E+04  0.25500000000E-02 0. -1.
    8880023    1    1    2    0    0 -0.38029778139E+03 -0.30118141382E+03 -0.37901539205E+02  0.81889155539E+03  0.65864270000E+03 0.  0.
    8880022    1    1    2    0    0  0.38029778139E+03  0.30118141382E+03 -0.67046778645E+03  0.84157908259E+03  0.15294330000E+03 0.  0.
<mgrwt>
<rscale>  0 0.72640033E+03</rscale>
<asrwt>0</asrwt>
<pdfrwt beam="1">  1        2 0.18221846E+00 0.81801397E+03</pdfrwt>
<pdfrwt beam="2">  1       -2 0.73238563E-01 0.81801397E+03</pdfrwt>
<totfact> 0.32950646E+01</totfact>
</mgrwt>
</event>
<event>
 4    5  0.1112901E-007  0.1084123E+04  0.7818608E-02  0.9278943E-01
          2   -1    0    0  501    0  0.00000000000E+00  0.00000000000E+00  0.21853525003E+04  0.21853525003E+04  0.25500000000E-02 0. -1.
         -2   -1    0    0    0  501 -0.00000000000E+00 -0.00000000000E+00 -0.54385330942E+03  0.54385330942E+03  0.25500000000E-02 0.  1.
    8880023    1    1    2    0    0  0.32234339242E+03 -0.79850290393E+03  0.29489657017E+03  0.11235151728E+04  0.65864270000E+03 0.  0.
    8880022    1    1    2    0    0 -0.32234339242E+03  0.79850290393E+03  0.13466026207E+04  0.16056906368E+04  0.15294330000E+03 0.  0.
<mgrwt>
<rscale>  0 0.10274477E+04</rscale>
<asrwt>0</asrwt>
<pdfrwt beam="1">  1        2 0.33620808E+00 0.10841229E+04</pdfrwt>
<pdfrwt beam="2">  1       -2 0.83669740E-01 0.10841229E+04</pdfrwt>
<totfact> 0.65380363E+00</totfact>
</mgrwt>
</event>
<event>
 4    5  0.1112901E-007  0.9911185E+03  0.7818608E-02  0.9393271E-01
          2   -1    0    0  501    0  0.00000000000E+00  0.00000000000E+00  0.12983545177E+04  0.12983545177E+04  0.25500000000E-02 0. -1.
         -2   -1    0    0    0  501 -0.00000000000E+00 -0.00000000000E+00 -0.15947821205E+04  0.15947821205E+04  0.25500000000E-02 0.  1.
    8880023    1    1    2    0    0  0.21209663519E+03  0.70959195884E+03 -0.13011354704E+04  0.16356250944E+04  0.65864270000E+03 0.  1.
    8880022    1    1    2    0    0 -0.21209663519E+03 -0.70959195884E+03  0.10047078676E+04  0.12575115438E+04  0.15294330000E+03 0.  0.
<mgrwt>
<rscale>  0 0.92631556E+03</rscale>
<asrwt>0</asrwt>
<pdfrwt beam="1">  1        2 0.19974685E+00 0.99111853E+03</pdfrwt>
<pdfrwt beam="2">  1       -2 0.24535110E+00 0.99111853E+03</pdfrwt>
<totfact> 0.11348869E+00</totfact>
</mgrwt>
</event>
<event>
 4    5  0.1112901E-007  0.1363486E+04  0.7818608E-02  0.9012587E-01
          2   -1    0    0  501    0  0.00000000000E+00  0.00000000000E+00  0.23748257688E+04  0.23748257688E+04  0.25500000000E-02 0. -1.
         -2   -1    0    0    0  501 -0.00000000000E+00 -0.00000000000E+00 -0.10002584220E+04  0.10002584220E+04  0.25500000000E-02 0.  1.
    8880023    1    1    2    0    0  0.93268298041E+03 -0.74524318765E+03 -0.21595454660E+03  0.13804823516E+04  0.65864270000E+03 0.  0.
    8880022    1    1    2    0    0 -0.93268298041E+03  0.74524318765E+03  0.15905218933E+04  0.19946018392E+04  0.15294330000E+03 0.  0.
<mgrwt>
<rscale>  0 0.13216289E+04</rscale>
<asrwt>0</asrwt>
<pdfrwt beam="1">  1        2 0.36535780E+00 0.13634864E+04</pdfrwt>
<pdfrwt beam="2">  1       -2 0.15388591E+00 0.13634864E+04</pdfrwt>
<totfact> 0.11014233E+00</totfact>
</mgrwt>
</event>
<event>
 4    5  0.1112901E-007  0.1464175E+04  0.7818608E-02  0.8935356E-01
          2   -1    0    0  501    0  0.00000000000E+00  0.00000000000E+00  0.20449082374E+04  0.20449082374E+04  0.25500000000E-02 0. -1.
         -2   -1    0    0    0  501 -0.00000000000E+00 -0.00000000000E+00 -0.11622230602E+04  0.11622230602E+04  0.25500000000E-02 0.  1.
    8880023    1    1    2    0    0 -0.11538879287E+04  0.61525702759E+03 -0.23150930407E+03  0.14823647750E+04  0.65864270000E+03 0.  0.
    8880022    1    1    2    0    0  0.11538879287E+04 -0.61525702759E+03  0.11141944813E+04  0.17247665225E+04  0.15294330000E+03 0.  0.
<mgrwt>
<rscale>  0 0.14257941E+04</rscale>
<asrwt>0</asrwt>
<pdfrwt beam="1">  1        2 0.31460127E+00 0.14641751E+04</pdfrwt>
<pdfrwt beam="2">  1       -2 0.17880355E+00 0.14641751E+04</pdfrwt>
<totfact> 0.11008706E+00</totfact>
</mgrwt>
</event>
<event>
 4    5  0.1112901E-007  0.7274821E+03  0.7818608E-02  0.9898037E-01
          2   -1    0    0  501    0  0.00000000000E+00  0.00000000000E+00  0.28000239428E+04  0.28000239428E+04  0.25500000000E-02 0. -1.
         -2   -1    0    0    0  501 -0.00000000000E+00 -0.00000000000E+00 -0.11012461075E+03  0.11012461078E+03  0.25500000000E-02 0.  1.
    8880023    1    1    2    0    0 -0.21215802609E+01  0.30889394683E+03  0.14363405528E+04  0.16100634650E+04  0.65864270000E+03 0.  0.
    8880022    1    1    2    0    0  0.21215802609E+01 -0.30889394683E+03  0.12535587793E+04  0.13000850886E+04  0.15294330000E+03 0.  0.
<mgrwt>
<rscale>  0 0.60356506E+03</rscale>
<asrwt>0</asrwt>
<pdfrwt beam="1">  1        2 0.43077291E+00 0.72748208E+03</pdfrwt>
<pdfrwt beam="2">  1       -2 0.16942248E-01 0.72748208E+03</pdfrwt>
<totfact> 0.69202772E+01</totfact>
</mgrwt>
</event>
<event>
 4    5  0.1112901E-007  0.9176481E+03  0.7818608E-02  0.9498275E-01
          2   -1    0    0  501    0  0.00000000000E+00  0.00000000000E+00  0.20957441483E+04  0.20957441483E+04  0.25500000000E-02 0. -1.
         -2   -1    0    0    0  501 -0.00000000000E+00 -0.00000000000E+00 -0.51721702598E+03  0.51721702599E+03  0.25500000000E-02 0.  1.
    8880023    1    1    2    0    0 -0.44293318111E+03 -0.46051924284E+03  0.15848946200E+02  0.91778492650E+03  0.65864270000E+03 0.  0.
    8880022    1    1    2    0    0  0.44293318111E+03  0.46051924284E+03  0.15626781761E+04  0.16951762478E+04  0.15294330000E+03 0. -1.
<mgrwt>
<rscale>  0 0.84411141E+03</rscale>
<asrwt>0</asrwt>
<pdfrwt beam="1">  1        2 0.32242217E+00 0.91764807E+03</pdfrwt>
<pdfrwt beam="2">  1       -2 0.79571852E-01 0.91764807E+03</pdfrwt>
<totfact> 0.83787276E+00</totfact>
</mgrwt>
</event>
<event>
 4    5  0.1112901E-007  0.6947301E+03  0.7818608E-02  0.1001981E+00
          2   -1    0    0  501    0  0.00000000000E+00  0.00000000000E+00  0.13359244348E+04  0.13359244348E+04  0.25500000000E-02 0. -1.
         -2   -1    0    0    0  501 -0.00000000000E+00 -0.00000000000E+00 -0.46833867206E+03  0.46833867207E+03  0.25500000000E-02 0.  1.
    8880023    1    1    2    0    0 -0.18085209647E+03  0.12701272653E+03 -0.18415762169E+03  0.71872383388E+03  0.65864270000E+03 0.  1.
    8880022    1    1    2    0    0  0.18085209647E+03 -0.12701272653E+03  0.10517433844E+04  0.10855392730E+04  0.15294330000E+03 0.  0.
<mgrwt>
<rscale>  0 0.54790191E+03</rscale>
<asrwt>0</asrwt>
<pdfrwt beam="1">  1        2 0.20552683E+00 0.69473011E+03</pdfrwt>
<pdfrwt beam="2">  1       -2 0.72052104E-01 0.69473011E+03</pdfrwt>
<totfact> 0.28236918E+01</totfact>
</mgrwt>
</event>
<event>
 4    5  0.1112901E-007  0.6647965E+03  0.7818608E-02  0.1019705E+00
          2   -1    0    0  501    0  0.00000000000E+00  0.00000000000E+00  0.11884852217E+04  0.11884852217E+04  0.25500000000E-02 0. -1.
         -2   -1    0    0    0  501 -0.00000000000E+00 -0.00000000000E+00 -0.49565968622E+03  0.49565968623E+03  0.25500000000E-02 0.  1.
    8880023    1    1    2    0    0  0.85806039419E+02 -0.27955998866E+02 -0.26080221188E+03  0.71412338868E+03  0.65864270000E+03 0.  1.
    8880022    1    1    2    0    0 -0.85806039419E+02  0.27955998866E+02  0.95362774739E+03  0.97002151929E+03  0.15294330000E+03 0.  0.
<mgrwt>
<rscale>  0 0.47793315E+03</rscale>
<asrwt>0</asrwt>
<pdfrwt beam="1">  1        2 0.18284388E+00 0.66479653E+03</pdfrwt>
<pdfrwt beam="2">  1       -2 0.76255337E-01 0.66479653E+03</pdfrwt>
<totfact> 0.30448274E+01</totfact>
</mgrwt>
</event>
<event>
 4    5  0.1927671E-007  0.1513233E+04  0.7818608E-02  0.8900348E-01
          2   -1    0    0  501    0  0.00000000000E+00  0.00000000000E+00  0.25676488283E+04  0.25676488283E+04  0.25500000000E-02 0. -1.
         -2   -1    0    0    0  501 -0.00000000000E+00 -0.00000000000E+00 -0.18176230719E+04  0.18176230719E+04  0.25500000000E-02 0.  1.
    8880023    1    1    2    0    0  0.13504797059E+04  0.17963255371E+03 -0.12484572534E+04  0.19617642596E+04  0.65864270000E+03 0.  0.
    8880022    1    1    2    0    0 -0.13504797059E+04 -0.17963255371E+03  0.19984830099E+04  0.24235076406E+04  0.15294330000E+03 0.  0.
<mgrwt>
<rscale>  0 0.14763295E+04</rscale>
<asrwt>0</asrwt>
<pdfrwt beam="1">  1        2 0.39502289E+00 0.15132328E+04</pdfrwt>
<pdfrwt beam="2">  1       -2 0.27963432E+00 0.15132328E+04</pdfrwt>
<totfact> 0.12602513E-01</totfact>
</mgrwt>
</event>
<event>
 4    5  0.1112901E-007  0.8460650E+03  0.7818608E-02  0.9618848E-01
         -2   -1    0    0    0  501 -0.00000000000E+00  0.00000000000E+00  0.47935562666E+03  0.47935562666E+03  0.25500000000E-02 0.  1.
          2   -1    0    0  501    0  0.00000000000E+00 -0.00000000000E+00 -0.18734926513E+04  0.18734926513E+04  0.25500000000E-02 0. -1.
    8880023    1    1    2    0    0  0.29690001151E+03 -0.44030244788E+03  0.76065821841E+01  0.84609924288E+03  0.65864270000E+03 0.  1.
    8880022    1    1    2    0    0 -0.29690001151E+03  0.44030244788E+03 -0.14017436068E+04  0.15067490351E+04  0.15294330000E+03 0.  0.
<mgrwt>
<rscale>  0 0.76061131E+03</rscale>
<asrwt>0</asrwt>
<pdfrwt beam="1">  1        2 0.28822964E+00 0.84606505E+03</pdfrwt>
<pdfrwt beam="2">  1       -2 0.73747020E-01 0.84606505E+03</pdfrwt>
<totfact> 0.13266394E+01</totfact>
</mgrwt>
</event>
<event>
 4    5  0.1112901E-007  0.7481802E+03  0.7818608E-02  0.9836729E-01
         -2   -1    0    0    0  501 -0.00000000000E+00  0.00000000000E+00  0.15799343759E+04  0.15799343759E+04  0.25500000000E-02 0.  1.
          2   -1    0    0  501    0  0.00000000000E+00 -0.00000000000E+00 -0.32877410846E+03  0.32877410847E+03  0.25500000000E-02 0. -1.
    8880023    1    1    2    0    0  0.32371731992E+03 -0.14550069594E+03  0.13189165581E+04  0.15163490526E+04  0.65864270000E+03 0.  0.
    8880022    1    1    2    0    0 -0.32371731992E+03  0.14550069594E+03 -0.67756290719E+02  0.39235943175E+03  0.15294330000E+03 0. -1.
<mgrwt>
<rscale>  0 0.63428161E+03</rscale>
<asrwt>0</asrwt>
<pdfrwt beam="1">  1        2 0.50580632E-01 0.74818017E+03</pdfrwt>
<pdfrwt beam="2">  1       -2 0.24306683E+00 0.74818017E+03</pdfrwt>
<totfact> 0.72127908E+00</totfact>
</mgrwt>
</event>
<event>
 4    5  0.1112901E-007  0.7389673E+03  0.7818608E-02  0.9862965E-01
          2   -1    0    0  501    0  0.00000000000E+00  0.00000000000E+00  0.64740254186E+03  0.64740254186E+03  0.25500000000E-02 0. -1.
         -2   -1    0    0    0  501 -0.00000000000E+00 -0.00000000000E+00 -0.72727853026E+03  0.72727853026E+03  0.25500000000E-02 0.  1.
    8880023    1    1    2    0    0 -0.33443928406E+03  0.20319465593E+02 -0.43960654799E+03  0.85984105433E+03  0.65864270000E+03 0.  1.
    8880022    1    1    2    0    0  0.33443928406E+03 -0.20319465593E+02  0.35973055959E+03  0.51484001780E+03  0.15294330000E+03 0.  0.
<mgrwt>
<rscale>  0 0.62090202E+03</rscale>
<asrwt>0</asrwt>
<pdfrwt beam="1">  1        2 0.99600391E-01 0.73896733E+03</pdfrwt>
<pdfrwt beam="2">  1       -2 0.11188900E+00 0.73896733E+03</pdfrwt>
<totfact> 0.28886394E+01</totfact>
</mgrwt>
</event>
<event>
 4    5  0.1112901E-007  0.1453946E+04  0.7818608E-02  0.8942860E-01
          2   -1    0    0  501    0  0.00000000000E+00  0.00000000000E+00  0.26305190246E+04  0.26305190246E+04  0.25500000000E-02 0. -1.
         -2   -1    0    0    0  501 -0.00000000000E+00 -0.00000000000E+00 -0.13632811682E+04  0.13632811682E+04  0.25500000000E-02 0.  1.
    8880023    1    1    2    0    0 -0.67021985718E+03  0.11094832320E+04 -0.71516074007E+03  0.16203125592E+04  0.65864270000E+03 0.  0.
    8880022    1    1    2    0    0  0.67021985718E+03 -0.11094832320E+04  0.19823985964E+04  0.23734876337E+04  0.15294330000E+03 0.  0.
<mgrwt>
<rscale>  0 0.14152402E+04</rscale>
<asrwt>0</asrwt>
<pdfrwt beam="1">  1        2 0.40469524E+00 0.14539456E+04</pdfrwt>
<pdfrwt beam="2">  1       -2 0.20973556E+00 0.14539456E+04</pdfrwt>
<totfact> 0.31713286E-01</totfact>
</mgrwt>
</event>
<event>
 4    5  0.1112901E-007  0.1075754E+04  0.7818608E-02  0.9288543E-01
          2   -1    0    0  501    0  0.00000000000E+00  0.00000000000E+00  0.17660438457E+04  0.17660438457E+04  0.25500000000E-02 0. -1.
         -2   -1    0    0    0  501 -0.00000000000E+00 -0.00000000000E+00 -0.62294139045E+03  0.62294139046E+03  0.25500000000E-02 0.  1.
    8880023    1    1    2    0    0  0.33163662052E+03  0.78323318139E+03  0.17264903876E+03  0.10895205190E+04  0.65864270000E+03 0.  0.
    8880022    1    1    2    0    0 -0.33163662052E+03 -0.78323318139E+03  0.97045341647E+03  0.12994647171E+04  0.15294330000E+03 0.  0.
<mgrwt>
<rscale>  0 0.10184447E+04</rscale>
<asrwt>0</asrwt>
<pdfrwt beam="1">  1        2 0.27169905E+00 0.10757543E+04</pdfrwt>
<pdfrwt beam="2">  1       -2 0.95837138E-01 0.10757543E+04</pdfrwt>
<totfact> 0.81471605E+00</totfact>
</mgrwt>
</event>
<event>
 4    5  0.1112901E-007  0.1056427E+04  0.7818608E-02  0.9311195E-01
         -2   -1    0    0    0  501 -0.00000000000E+00  0.00000000000E+00  0.29760571955E+03  0.29760571956E+03  0.25500000000E-02 0.  1.
          2   -1    0    0  501    0  0.00000000000E+00 -0.00000000000E+00 -0.33606135058E+04  0.33606135058E+04  0.25500000000E-02 0. -1.
    8880023    1    1    2    0    0 -0.68351419227E+03  0.46371955146E+03 -0.11107216977E+04  0.15328862872E+04  0.65864270000E+03 0.  1.
    8880022    1    1    2    0    0  0.68351419227E+03 -0.46371955146E+03 -0.19522860886E+04  0.21253329382E+04  0.15294330000E+03 0.  0.
<mgrwt>
<rscale>  0 0.99758719E+03</rscale>
<asrwt>0</asrwt>
<pdfrwt beam="1">  1        2 0.51701744E+00 0.10564268E+04</pdfrwt>
<pdfrwt beam="2">  1       -2 0.45785498E-01 0.10564268E+04</pdfrwt>
<totfact> 0.46991783E+00</totfact>
</mgrwt>
</event>
<event>
 4    5  0.1112901E-007  0.6927906E+03  0.7818608E-02  0.1002853E+00
          2   -1    0    0  501    0  0.00000000000E+00  0.00000000000E+00  0.23527974616E+04  0.23527974616E+04  0.25500000000E-02 0. -1.
         -2   -1    0    0    0  501 -0.00000000000E+00 -0.00000000000E+00 -0.29886380053E+03  0.29886380054E+03  0.25500000000E-02 0.  1.
    8880023    1    1    2    0    0 -0.24581855926E+02  0.21341126366E+03  0.12400688159E+03  0.70380149761E+03  0.65864270000E+03 0.  1.
    8880022    1    1    2    0    0  0.24581855926E+02 -0.21341126366E+03  0.19299267794E+04  0.19478597645E+04  0.15294330000E+03 0.  0.
<mgrwt>
<rscale>  0 0.54416557E+03</rscale>
<asrwt>0</asrwt>
<pdfrwt beam="1">  1        2 0.36196883E+00 0.69279062E+03</pdfrwt>
<pdfrwt beam="2">  1       -2 0.45979047E-01 0.69279062E+03</pdfrwt>
<totfact> 0.19951587E+01</totfact>
</mgrwt>
</event>
<event>
 4    5  0.1112901E-007  0.1509790E+04  0.7818608E-02  0.8902753E-01
          2   -1    0    0  501    0  0.00000000000E+00  0.00000000000E+00  0.12235067053E+04  0.12235067053E+04  0.25500000000E-02 0. -1.
         -2   -1    0    0    0  501 -0.00000000000E+00 -0.00000000000E+00 -0.21800015479E+04  0.21800015479E+04  0.25500000000E-02 0.  1.
    8880023    1    1    2    0    0  0.90542729691E+03  0.10128466021E+04  0.30841664829E+03  0.15409697805E+04  0.65864270000E+03 0.  0.
    8880022    1    1    2    0    0 -0.90542729691E+03 -0.10128466021E+04 -0.12649114909E+04  0.18625384727E+04  0.15294330000E+03 0.  0.
<mgrwt>
<rscale>  0 0.14727874E+04</rscale>
<asrwt>0</asrwt>
<pdfrwt beam="1">  1        2 0.18823180E+00 0.15097904E+04</pdfrwt>
<pdfrwt beam="2">  1       -2 0.33538485E+00 0.15097904E+04</pdfrwt>
<totfact> 0.33270722E-01</totfact>
</mgrwt>
</event>
<event>
 4    5  0.1112901E-007  0.6986946E+03  0.7818608E-02  0.1000266E+00
         -2   -1    0    0    0  501 -0.00000000000E+00  0.00000000000E+00  0.19676517477E+04  0.19676517477E+04  0.25500000000E-02 0.  1.
          2   -1    0    0  501    0  0.00000000000E+00 -0.00000000000E+00 -0.12596199312E+04  0.12596199312E+04  0.25500000000E-02 0. -1.
    8880023    1    1    2    0    0 -0.89822469653E+02 -0.21516470717E+03  0.18888720340E+04  0.20139542433E+04  0.65864270000E+03 0.  1.
    8880022    1    1    2    0    0  0.89822469653E+02  0.21516470717E+03 -0.11808402175E+04  0.12133174356E+04  0.15294330000E+03 0.  0.
<mgrwt>
<rscale>  0 0.55533748E+03</rscale>
<asrwt>0</asrwt>
<pdfrwt beam="1">  1        2 0.19378768E+00 0.69869459E+03</pdfrwt>
<pdfrwt beam="2">  1       -2 0.30271565E+00 0.69869459E+03</pdfrwt>
<totfact> 0.56764372E-01</totfact>
</mgrwt>
</event>
<event>
 4    5  0.1112901E-007  0.7751525E+03  0.7818608E-02  0.9767349E-01
          2   -1    0    0  501    0  0.00000000000E+00  0.00000000000E+00  0.12844586837E+04  0.12844586837E+04  0.25500000000E-02 0. -1.
         -2   -1    0    0    0  501 -0.00000000000E+00 -0.00000000000E+00 -0.34884271429E+03  0.34884271430E+03  0.25500000000E-02 0.  1.
    8880023    1    1    2    0    0  0.36890666959E+03  0.17595192434E+03  0.23878231685E+03  0.81109704207E+03  0.65864270000E+03 0.  0.
    8880022    1    1    2    0    0 -0.36890666959E+03 -0.17595192434E+03  0.69683365254E+03  0.82220435591E+03  0.15294330000E+03 0.  0.
<mgrwt>
<rscale>  0 0.67144579E+03</rscale>
<asrwt>0</asrwt>
<pdfrwt beam="1">  1        2 0.19760903E+00 0.77515251E+03</pdfrwt>
<pdfrwt beam="2">  1       -2 0.53668109E-01 0.77515251E+03</pdfrwt>
<totfact> 0.56107990E+01</totfact>
</mgrwt>
</event>
<event>
 4    5  0.1112901E-007  0.6914599E+03  0.7818608E-02  0.1003466E+00
         -2   -1    0    0    0  501 -0.00000000000E+00  0.00000000000E+00  0.79448079756E+03  0.79448079757E+03  0.25500000000E-02 0.  1.
          2   -1    0    0  501    0  0.00000000000E+00 -0.00000000000E+00 -0.10083562308E+04  0.10083562308E+04  0.25500000000E-02 0. -1.
    8880023    1    1    2    0    0 -0.17960076177E+03 -0.10977342109E+03  0.62036603886E+03  0.92896225222E+03  0.65864270000E+03 0.  1.
    8880022    1    1    2    0    0  0.17960076177E+03  0.10977342109E+03 -0.83424147211E+03  0.87387477617E+03  0.15294330000E+03 0.  0.
<mgrwt>
<rscale>  0 0.54156112E+03</rscale>
<asrwt>0</asrwt>
<pdfrwt beam="1">  1        2 0.15513173E+00 0.69145994E+03</pdfrwt>
<pdfrwt beam="2">  1       -2 0.12222782E+00 0.69145994E+03</pdfrwt>
<totfact> 0.12924354E+01</totfact>
</mgrwt>
</event>
<event>
 4    5  0.1112901E-007  0.9650568E+03  0.7818608E-02  0.9428774E-01
         -2   -1    0    0    0  501 -0.00000000000E+00  0.00000000000E+00  0.11473852121E+04  0.11473852121E+04  0.25500000000E-02 0.  1.
          2   -1    0    0  501    0  0.00000000000E+00 -0.00000000000E+00 -0.96078380008E+03  0.96078380009E+03  0.25500000000E-02 0. -1.
    8880023    1    1    2    0    0  0.65671613139E+03 -0.25738736178E+03  0.72557133123E+03  0.12073890401E+04  0.65864270000E+03 0.  0.
    8880022    1    1    2    0    0 -0.65671613139E+03  0.25738736178E+03 -0.53896991922E+03  0.90077997206E+03  0.15294330000E+03 0.  0.
<mgrwt>
<rscale>  0 0.89745070E+03</rscale>
<asrwt>0</asrwt>
<pdfrwt beam="1">  1        2 0.14781289E+00 0.96505675E+03</pdfrwt>
<pdfrwt beam="2">  1       -2 0.17652080E+00 0.96505675E+03</pdfrwt>
<totfact> 0.50945766E+00</totfact>
</mgrwt>
</event>
<event>
 4    5  0.1112901E-007  0.6630854E+03  0.7818608E-02  0.1021197E+00
          2   -1    0    0  501    0  0.00000000000E+00  0.00000000000E+00  0.27927578309E+04  0.27927578309E+04  0.25500000000E-02 0. -1.
         -2   -1    0    0    0  501 -0.00000000000E+00 -0.00000000000E+00 -0.15831887151E+03  0.15831887153E+03  0.25500000000E-02 0.  1.
    8880023    1    1    2    0    0 -0.65087042733E+02  0.40443203134E+02  0.55524653400E+03  0.86485888767E+03  0.65864270000E+03 0.  1.
    8880022    1    1    2    0    0  0.65087042733E+02 -0.40443203134E+02  0.20791924254E+04  0.20862178148E+04  0.15294330000E+03 0.  0.
<mgrwt>
<rscale>  0 0.47257212E+03</rscale>
<asrwt>0</asrwt>
<pdfrwt beam="1">  1        2 0.42965506E+00 0.66308535E+03</pdfrwt>
<pdfrwt beam="2">  1       -2 0.24356749E-01 0.66308535E+03</pdfrwt>
<totfact> 0.37363354E+01</totfact>
</mgrwt>
</event>
<event>
 4    5  0.1112901E-007  0.9201668E+03  0.7818608E-02  0.9494403E-01
          2   -1    0    0  501    0  0.00000000000E+00  0.00000000000E+00  0.19890017517E+04  0.19890017517E+04  0.25500000000E-02 0. -1.
         -2   -1    0    0    0  501 -0.00000000000E+00 -0.00000000000E+00 -0.81226098890E+03  0.81226098890E+03  0.25500000000E-02 0.  1.
    8880023    1    1    2    0    0  0.33084444739E+03 -0.55085272446E+03 -0.46546684537E+03  0.10311965685E+04  0.65864270000E+03 0.  0.
    8880022    1    1    2    0    0 -0.33084444739E+03  0.55085272446E+03  0.16422076081E+04  0.17700661721E+04  0.15294330000E+03 0.  0.
<mgrwt>
<rscale>  0 0.84697704E+03</rscale>
<asrwt>0</asrwt>
<pdfrwt beam="1">  1        2 0.30600026E+00 0.92016682E+03</pdfrwt>
<pdfrwt beam="2">  1       -2 0.12496323E+00 0.92016682E+03</pdfrwt>
<totfact> 0.32816994E+00</totfact>
</mgrwt>
</event>
<event>
 4    5  0.1112901E-007  0.7299232E+03  0.7818608E-02  0.9890336E-01
          2   -1    0    0  501    0  0.00000000000E+00  0.00000000000E+00  0.18136391766E+04  0.18136391766E+04  0.25500000000E-02 0. -1.
         -2   -1    0    0    0  501 -0.00000000000E+00 -0.00000000000E+00 -0.56888733101E+03  0.56888733101E+03  0.25500000000E-02 0.  1.
    8880023    1    1    2    0    0 -0.15895724709E+03  0.27149639050E+03 -0.30698329653E+03  0.79185014180E+03  0.65864270000E+03 0.  1.
    8880022    1    1    2    0    0  0.15895724709E+03 -0.27149639050E+03  0.15517351421E+04  0.15906763658E+04  0.15294330000E+03 0.  0.
<mgrwt>
<rscale>  0 0.60731913E+03</rscale>
<asrwt>0</asrwt>
<pdfrwt beam="1">  1        2 0.27902141E+00 0.72992322E+03</pdfrwt>
<pdfrwt beam="2">  1       -2 0.87521127E-01 0.72992322E+03</pdfrwt>
<totfact> 0.98826808E+00</totfact>
</mgrwt>
</event>
<event>
 4    5  0.1112901E-007  0.7451375E+03  0.7818608E-02  0.9845227E-01
         -2   -1    0    0    0  501 -0.00000000000E+00  0.00000000000E+00  0.14299462278E+04  0.14299462278E+04  0.25500000000E-02 0.  1.
          2   -1    0    0  501    0  0.00000000000E+00 -0.00000000000E+00 -0.73300880502E+03  0.73300880503E+03  0.25500000000E-02 0. -1.
    8880023    1    1    2    0    0 -0.34798314108E+03  0.18096154459E+02  0.12715293227E+04  0.14737763609E+04  0.65864270000E+03 0.  1.
    8880022    1    1    2    0    0  0.34798314108E+03 -0.18096154459E+02 -0.57459189994E+03  0.68917867188E+03  0.15294330000E+03 0.  0.
<mgrwt>
<rscale>  0 0.62990879E+03</rscale>
<asrwt>0</asrwt>
<pdfrwt beam="1">  1        2 0.11277059E+00 0.74513753E+03</pdfrwt>
<pdfrwt beam="2">  1       -2 0.21999173E+00 0.74513753E+03</pdfrwt>
<totfact> 0.39155117E+00</totfact>
</mgrwt>
</event>
<event>
 4    5  0.1112901E-007  0.6829452E+03  0.7818608E-02  0.1007704E+00
          2   -1    0    0  501    0  0.00000000000E+00  0.00000000000E+00  0.18450781820E+04  0.18450781820E+04  0.25500000000E-02 0. -1.
         -2   -1    0    0    0  501 -0.00000000000E+00 -0.00000000000E+00 -0.44775669879E+03  0.44775669880E+03  0.25500000000E-02 0.  1.
    8880023    1    1    2    0    0 -0.16223107927E+03  0.79277731462E+02 -0.17321704458E+03  0.70456953708E+03  0.65864270000E+03 0.  1.
    8880022    1    1    2    0    0  0.16223107927E+03 -0.79277731462E+02  0.15705385278E+04  0.15882653437E+04  0.15294330000E+03 0.  0.
<mgrwt>
<rscale>  0 0.52397256E+03</rscale>
<asrwt>0</asrwt>
<pdfrwt beam="1">  1        2 0.28385818E+00 0.68294516E+03</pdfrwt>
<pdfrwt beam="2">  1       -2 0.68885646E-01 0.68294516E+03</pdfrwt>
<totfact> 0.16327722E+01</totfact>
</mgrwt>
</event>
<event>
 4    5  0.1112901E-007  0.9331003E+03  0.7818608E-02  0.9474858E-01
         -2   -1    0    0    0  501 -0.00000000000E+00  0.00000000000E+00  0.50735401431E+03  0.50735401432E+03  0.25500000000E-02 0.  1.
          2   -1    0    0  501    0  0.00000000000E+00 -0.00000000000E+00 -0.12904483470E+04  0.12904483470E+04  0.25500000000E-02 0. -1.
    8880023    1    1    2    0    0 -0.18132517654E+02  0.66070956641E+03 -0.37182536938E+03  0.10044551911E+04  0.65864270000E+03 0.  0.
    8880022    1    1    2    0    0  0.18132517654E+02 -0.66070956641E+03 -0.41126896335E+03  0.79334717027E+03  0.15294330000E+03 0.  0.
<mgrwt>
<rscale>  0 0.86163108E+03</rscale>
<asrwt>0</asrwt>
<pdfrwt beam="1">  1        2 0.19853051E+00 0.93310028E+03</pdfrwt>
<pdfrwt beam="2">  1       -2 0.78054464E-01 0.93310028E+03</pdfrwt>
<totfact> 0.24509387E+01</totfact>
</mgrwt>
</event>
<event>
 4    5  0.1112901E-007  0.1026436E+04  0.7818608E-02  0.9347760E-01
          2   -1    0    0  501    0  0.00000000000E+00  0.00000000000E+00  0.30897051734E+04  0.30897051734E+04  0.25500000000E-02 0. -1.
         -2   -1    0    0    0  501 -0.00000000000E+00 -0.00000000000E+00 -0.48979887891E+03  0.48979887892E+03  0.25500000000E-02 0.  1.
    8880023    1    1    2    0    0 -0.70929017750E+03 -0.34156832231E+03  0.19551208344E+03  0.10448907387E+04  0.65864270000E+03 0.  0.
    8880022    1    1    2    0    0  0.70929017750E+03  0.34156832231E+03  0.24043942111E+04  0.25346133137E+04  0.15294330000E+03 0.  0.
<mgrwt>
<rscale>  0 0.96502448E+03</rscale>
<asrwt>0</asrwt>
<pdfrwt beam="1">  1        2 0.47533925E+00 0.10264364E+04</pdfrwt>
<pdfrwt beam="2">  1       -2 0.75353675E-01 0.10264364E+04</pdfrwt>
<totfact> 0.24620018E+00</totfact>
</mgrwt>
</event>
<event>
 4    5  0.1112901E-007  0.6673606E+03  0.7818608E-02  0.1017630E+00
          2   -1    0    0  501    0  0.00000000000E+00  0.00000000000E+00  0.37784236153E+03  0.37784236154E+03  0.25500000000E-02 0. -1.
         -2   -1    0    0    0  501 -0.00000000000E+00 -0.00000000000E+00 -0.49348005279E+03  0.49348005279E+03  0.25500000000E-02 0.  1.
    8880023    1    1    2    0    0 -0.70179402526E+02  0.81454120644E+02 -0.14262567891E+03  0.68243110484E+03  0.65864270000E+03 0.  0.
    8880022    1    1    2    0    0  0.70179402526E+02 -0.81454120644E+02  0.26987987657E+02  0.18889130949E+03  0.15294330000E+03 0.  0.
<mgrwt>
<rscale>  0 0.48551623E+03</rscale>
<asrwt>0</asrwt>
<pdfrwt beam="1">  1        2 0.58129594E-01 0.66736057E+03</pdfrwt>
<pdfrwt beam="2">  1       -2 0.75920008E-01 0.66736057E+03</pdfrwt>
<totfact> 0.13359652E+02</totfact>
</mgrwt>
</event>
<event>
 4    5  0.1112901E-007  0.8484183E+03  0.7818608E-02  0.9614507E-01
          2   -1    0    0  501    0  0.00000000000E+00  0.00000000000E+00  0.23051604239E+04  0.23051604239E+04  0.25500000000E-02 0. -1.
         -2   -1    0    0    0  501 -0.00000000000E+00 -0.00000000000E+00 -0.43599695412E+03  0.43599695413E+03  0.25500000000E-02 0.  1.
    8880023    1    1    2    0    0 -0.37559375561E+03 -0.38070036827E+03  0.62399346892E+02  0.85070989439E+03  0.65864270000E+03 0.  1.
    8880022    1    1    2    0    0  0.37559375561E+03  0.38070036827E+03  0.18067641229E+04  0.18904474837E+04  0.15294330000E+03 0.  0.
<mgrwt>
<rscale>  0 0.76343437E+03</rscale>
<asrwt>0</asrwt>
<pdfrwt beam="1">  1        2 0.35464007E+00 0.84841832E+03</pdfrwt>
<pdfrwt beam="2">  1       -2 0.67076454E-01 0.84841832E+03</pdfrwt>
<totfact> 0.94411182E+00</totfact>
</mgrwt>
</event>
<event>
 4    5  0.1112901E-007  0.8193940E+03  0.7818608E-02  0.9670332E-01
         -2   -1    0    0    0  501 -0.00000000000E+00  0.00000000000E+00  0.59801101152E+03  0.59801101153E+03  0.25500000000E-02 0.  1.
          2   -1    0    0  501    0  0.00000000000E+00 -0.00000000000E+00 -0.11862455607E+04  0.11862455607E+04  0.25500000000E-02 0. -1.
    8880023    1    1    2    0    0  0.28055158471E+03 -0.39860639656E+03  0.20139083000E+03  0.84378002094E+03  0.65864270000E+03 0.  1.
    8880022    1    1    2    0    0 -0.28055158471E+03  0.39860639656E+03 -0.78962537916E+03  0.94047655127E+03  0.15294330000E+03 0.  0.
<mgrwt>
<rscale>  0 0.72811020E+03</rscale>
<asrwt>0</asrwt>
<pdfrwt beam="1">  1        2 0.18249932E+00 0.81939396E+03</pdfrwt>
<pdfrwt beam="2">  1       -2 0.92001694E-01 0.81939396E+03</pdfrwt>
<totfact> 0.19608947E+01</totfact>
</mgrwt>
</event>
<event>
 4    5  0.1112901E-007  0.6700685E+03  0.7818608E-02  0.1015614E+00
         -2   -1    0    0    0  501 -0.00000000000E+00  0.00000000000E+00  0.51479923258E+03  0.51479923259E+03  0.25500000000E-02 0.  1.
          2   -1    0    0  501    0  0.00000000000E+00 -0.00000000000E+00 -0.12951010698E+04  0.12951010698E+04  0.25500000000E-02 0. -1.
    8880023    1    1    2    0    0 -0.98043672707E+02 -0.74625561990E+02  0.28389792257E+03  0.72772918930E+03  0.65864270000E+03 0.  1.
    8880022    1    1    2    0    0  0.98043672707E+02  0.74625561990E+02 -0.10641997598E+04  0.10821711131E+04  0.15294330000E+03 0.  0.
<mgrwt>
<rscale>  0 0.49303196E+03</rscale>
<asrwt>0</asrwt>
<pdfrwt beam="1">  1        2 0.19924632E+00 0.67006846E+03</pdfrwt>
<pdfrwt beam="2">  1       -2 0.79199883E-01 0.67006846E+03</pdfrwt>
<totfact> 0.24234905E+01</totfact>
</mgrwt>
</event>
<event>
 4    5  0.1112901E-007  0.1280573E+04  0.7818608E-02  0.9082521E-01
          2   -1    0    0  501    0  0.00000000000E+00  0.00000000000E+00  0.13165979646E+04  0.13165979646E+04  0.25500000000E-02 0. -1.
         -2   -1    0    0    0  501 -0.00000000000E+00 -0.00000000000E+00 -0.17191361329E+04  0.17191361329E+04  0.25500000000E-02 0.  1.
    8880023    1    1    2    0    0  0.19721668347E+03  0.10803525790E+04 -0.11314365044E+04  0.17088051044E+04  0.65864270000E+03 0.  1.
    8880022    1    1    2    0    0 -0.19721668347E+03 -0.10803525790E+04  0.72889833614E+03  0.13269289931E+04  0.15294330000E+03 0.  0.
<mgrwt>
<rscale>  0 0.12352843E+04</rscale>
<asrwt>0</asrwt>
<pdfrwt beam="1">  1        2 0.20255353E+00 0.12805727E+04</pdfrwt>
<pdfrwt beam="2">  1       -2 0.26448248E+00 0.12805727E+04</pdfrwt>
<totfact> 0.81634281E-01</totfact>
</mgrwt>
</event>
<event>
 4    5  0.1112901E-007  0.8160006E+03  0.7818608E-02  0.9677211E-01
          2   -1    0    0  501    0  0.00000000000E+00  0.00000000000E+00  0.30340685472E+04  0.30340685472E+04  0.25500000000E-02 0. -1.
         -2   -1    0    0    0  501 -0.00000000000E+00 -0.00000000000E+00 -0.24423396618E+03  0.24423396620E+03  0.25500000000E-02 0.  1.
    8880023    1    1    2    0    0 -0.47949672094E+03  0.46148720783E+02  0.55457246131E+03  0.98661422600E+03  0.65864270000E+03 0.  0.
    8880022    1    1    2    0    0  0.47949672094E+03 -0.46148720783E+02  0.22352621197E+04  0.22916882874E+04  0.15294330000E+03 0.  0.
<mgrwt>
<rscale>  0 0.72390013E+03</rscale>
<asrwt>0</asrwt>
<pdfrwt beam="1">  1        2 0.46677976E+00 0.81600062E+03</pdfrwt>
<pdfrwt beam="2">  1       -2 0.37574457E-01 0.81600062E+03</pdfrwt>
<totfact> 0.11643461E+01</totfact>
</mgrwt>
</event>
<event>
 4    5  0.1112901E-007  0.9368125E+03  0.7818608E-02  0.9469347E-01
          2   -1    0    0  501    0  0.00000000000E+00  0.00000000000E+00  0.86191623836E+03  0.86191623836E+03  0.25500000000E-02 0. -1.
         -2   -1    0    0    0  501 -0.00000000000E+00 -0.00000000000E+00 -0.14468939382E+04  0.14468939382E+04  0.25500000000E-02 0.  1.
    8880023    1    1    2    0    0 -0.64778506608E+03 -0.15550549129E+03 -0.11059435714E+04  0.14493891261E+04  0.65864270000E+03 0.  0.
    8880022    1    1    2    0    0  0.64778506608E+03  0.15550549129E+03  0.52096587151E+03  0.85942105045E+03  0.15294330000E+03 0.  0.
<mgrwt>
<rscale>  0 0.86581929E+03</rscale>
<asrwt>0</asrwt>
<pdfrwt beam="1">  1        2 0.13260250E+00 0.93681250E+03</pdfrwt>
<pdfrwt beam="2">  1       -2 0.22259907E+00 0.93681250E+03</pdfrwt>
<totfact> 0.29675671E+00</totfact>
</mgrwt>
</event>
<event>
 4    5  0.1112901E-007  0.9600449E+03  0.7818608E-02  0.9435807E-01
          2   -1    0    0  501    0  0.00000000000E+00  0.00000000000E+00  0.26098913792E+04  0.26098913792E+04  0.25500000000E-02 0. -1.
         -2   -1    0    0    0  501 -0.00000000000E+00 -0.00000000000E+00 -0.51528321917E+03  0.51528321918E+03  0.25500000000E-02 0.  1.
    8880023    1    1    2    0    0  0.67768091432E+03 -0.16918781567E+03  0.52472940158E+02  0.96147779710E+03  0.65864270000E+03 0.  0.
    8880022    1    1    2    0    0 -0.67768091432E+03  0.16918781567E+03  0.20421352198E+04  0.21636968012E+04  0.15294330000E+03 0.  0.
<mgrwt>
<rscale>  0 0.89186615E+03</rscale>
<asrwt>0</asrwt>
<pdfrwt beam="1">  1        2 0.40152174E+00 0.96004487E+03</pdfrwt>
<pdfrwt beam="2">  1       -2 0.79274343E-01 0.96004487E+03</pdfrwt>
<totfact> 0.43136351E+00</totfact>
</mgrwt>
</event>
<event>
 4    5  0.1112901E-007  0.1616529E+04  0.7818608E-02  0.8831452E-01
          2   -1    0    0  501    0  0.00000000000E+00  0.00000000000E+00  0.17154411796E+04  0.17154411796E+04  0.25500000000E-02 0. -1.
         -2   -1    0    0    0  501 -0.00000000000E+00 -0.00000000000E+00 -0.17617383060E+04  0.17617383060E+04  0.25500000000E-02 0.  1.
    8880023    1    1    2    0    0  0.86893722834E+03 -0.11934413693E+04  0.76206573398E+03  0.17871509723E+04  0.65864270000E+03 0.  0.
    8880022    1    1    2    0    0 -0.86893722834E+03  0.11934413693E+04 -0.80836286041E+03  0.16900285133E+04  0.15294330000E+03 0.  0.
<mgrwt>
<rscale>  0 0.15823701E+04</rscale>
<asrwt>0</asrwt>
<pdfrwt beam="1">  1        2 0.26391403E+00 0.16165285E+04</pdfrwt>
<pdfrwt beam="2">  1       -2 0.27103666E+00 0.16165285E+04</pdfrwt>
<totfact> 0.42601561E-01</totfact>
</mgrwt>
</event>
<event>
 4    5  0.1112901E-007  0.1724199E+04  0.7818608E-02  0.8765667E-01
         -2   -1    0    0    0  501 -0.00000000000E+00  0.00000000000E+00  0.77805329385E+03  0.77805329385E+03  0.25500000000E-02 0.  1.
          2   -1    0    0  501    0  0.00000000000E+00 -0.00000000000E+00 -0.38329341709E+04  0.38329341709E+04  0.25500000000E-02 0. -1.
    8880023    1    1    2    0    0 -0.37605365225E+03  0.15484304301E+04 -0.95650970260E+03  0.19717439396E+04  0.65864270000E+03 0.  1.
    8880022    1    1    2    0    0  0.37605365225E+03 -0.15484304301E+04 -0.20983711745E+04  0.26392435251E+04  0.15294330000E+03 0.  0.
<mgrwt>
<rscale>  0 0.16924756E+04</rscale>
<asrwt>0</asrwt>
<pdfrwt beam="1">  1        2 0.58968217E+00 0.17241993E+04</pdfrwt>
<pdfrwt beam="2">  1       -2 0.11970051E+00 0.17241993E+04</pdfrwt>
<totfact> 0.23217985E-01</totfact>
</mgrwt>
</event>
<event>
 4    5  0.1112901E-007  0.8184255E+03  0.7818608E-02  0.9672287E-01
          2   -1    0    0  501    0  0.00000000000E+00  0.00000000000E+00  0.24161574069E+04  0.24161574069E+04  0.25500000000E-02 0. -1.
         -2   -1    0    0    0  501 -0.00000000000E+00 -0.00000000000E+00 -0.72045136712E+03  0.72045136713E+03  0.25500000000E-02 0.  1.
    8880023    1    1    2    0    0  0.43327411462E+03 -0.21973555032E+03 -0.44814532710E+03  0.93308874762E+03  0.65864270000E+03 0.  0.
    8880022    1    1    2    0    0 -0.43327411462E+03  0.21973555032E+03  0.21438513668E+04  0.22035200264E+04  0.15294330000E+03 0.  0.
<mgrwt>
<rscale>  0 0.72691062E+03</rscale>
<asrwt>0</asrwt>
<pdfrwt beam="1">  1        2 0.37171652E+00 0.81842555E+03</pdfrwt>
<pdfrwt beam="2">  1       -2 0.11083867E+00 0.81842555E+03</pdfrwt>
<totfact> 0.25981568E+00</totfact>
</mgrwt>
</event>
<event>
 4    5  0.1112901E-007  0.1214249E+04  0.7818608E-02  0.9143395E-01
         -2   -1    0    0    0  501 -0.00000000000E+00  0.00000000000E+00  0.80123746818E+03  0.80123746818E+03  0.25500000000E-02 0.  1.
          2   -1    0    0  501    0  0.00000000000E+00 -0.00000000000E+00 -0.32053102205E+04  0.32053102205E+04  0.25500000000E-02 0. -1.
    8880023    1    1    2    0    0  0.92451187091E+03 -0.43112317103E+03  0.17691878181E+03  0.12270696189E+04  0.65864270000E+03 0.  0.
    8880022    1    1    2    0    0 -0.92451187091E+03  0.43112317103E+03 -0.25809915342E+04  0.27794780698E+04  0.15294330000E+03 0.  0.
<mgrwt>
<rscale>  0 0.11657286E+04</rscale>
<asrwt>0</asrwt>
<pdfrwt beam="1">  1        2 0.49312464E+00 0.12142486E+04</pdfrwt>
<pdfrwt beam="2">  1       -2 0.12326730E+00 0.12142486E+04</pdfrwt>
<totfact> 0.63191360E-01</totfact>
</mgrwt>
</event>
<event>
 4    5  0.1112901E-007  0.1088097E+04  0.7818608E-02  0.9274426E-01
         -2   -1    0    0    0  501 -0.00000000000E+00  0.00000000000E+00  0.24317108315E+04  0.24317108315E+04  0.25500000000E-02 0.  1.
          2   -1    0    0  501    0  0.00000000000E+00 -0.00000000000E+00 -0.89457687944E+03  0.89457687945E+03  0.25500000000E-02 0. -1.
    8880023    1    1    2    0    0 -0.51978203589E+03  0.69279919798E+03  0.20408145428E+04  0.23127642114E+04  0.65864270000E+03 0.  1.
    8880022    1    1    2    0    0  0.51978203589E+03 -0.69279919798E+03 -0.50368059071E+03  0.10135234995E+04  0.15294330000E+03 0.  0.
<mgrwt>
<rscale>  0 0.10317172E+04</rscale>
<asrwt>0</asrwt>
<pdfrwt beam="1">  1        2 0.13762721E+00 0.10880966E+04</pdfrwt>
<pdfrwt beam="2">  1       -2 0.37410936E+00 0.10880966E+04</pdfrwt>
<totfact> 0.32347514E-01</totfact>
</mgrwt>
</event>
<event>
 4    5  0.1112901E-007  0.6718956E+03  0.7818608E-02  0.1014339E+00
         -2   -1    0    0    0  501 -0.00000000000E+00  0.00000000000E+00  0.13193370350E+03  0.13193370353E+03  0.25500000000E-02 0.  1.
          2   -1    0    0  501    0  0.00000000000E+00 -0.00000000000E+00 -0.15276861715E+04  0.15276861715E+04  0.25500000000E-02 0. -1.
    8880023    1    1    2    0    0  0.12595617680E+03  0.42053969544E+02 -0.12137668044E+04  0.13873260455E+04  0.65864270000E+03 0.  0.
    8880022    1    1    2    0    0 -0.12595617680E+03 -0.42053969544E+02 -0.18198566364E+03  0.27229382955E+03  0.15294330000E+03 0. -1.
<mgrwt>
<rscale>  0 0.49786044E+03</rscale>
<asrwt>0</asrwt>
<pdfrwt beam="1">  1        2 0.23502863E+00 0.67189560E+03</pdfrwt>
<pdfrwt beam="2">  1       -2 0.20297494E-01 0.67189560E+03</pdfrwt>
<totfact> 0.25972916E+02</totfact>
</mgrwt>
</event>
<event>
 4    5  0.1112901E-007  0.8966832E+03  0.7818608E-02  0.9531377E-01
         -2   -1    0    0    0  501 -0.00000000000E+00  0.00000000000E+00  0.74840800135E+03  0.74840800136E+03  0.25500000000E-02 0.  1.
          2   -1    0    0  501    0  0.00000000000E+00 -0.00000000000E+00 -0.85617475119E+03  0.85617475119E+03  0.25500000000E-02 0. -1.
    8880023    1    1    2    0    0 -0.15787911189E+03 -0.58762633185E+03  0.17962656315E+03  0.91449791050E+03  0.65864270000E+03 0.  0.
    8880022    1    1    2    0    0  0.15787911189E+03  0.58762633185E+03 -0.28739331299E+03  0.69008484205E+03  0.15294330000E+03 0.  0.
<mgrwt>
<rscale>  0 0.82009509E+03</rscale>
<asrwt>0</asrwt>
<pdfrwt beam="1">  1        2 0.13171919E+00 0.89668318E+03</pdfrwt>
<pdfrwt beam="2">  1       -2 0.11513969E+00 0.89668318E+03</pdfrwt>
<totfact> 0.18503342E+01</totfact>
</mgrwt>
</event>
<event>
 4    5  0.1112901E-007  0.6886832E+03  0.7818608E-02  0.1004785E+00
         -2   -1    0    0    0  501 -0.00000000000E+00  0.00000000000E+00  0.94065450103E+03  0.94065450103E+03  0.25500000000E-02 0.  1.
          2   -1    0    0  501    0  0.00000000000E+00 -0.00000000000E+00 -0.18043338294E+04  0.18043338294E+04  0.25500000000E-02 0. -1.
    8880023    1    1    2    0    0 -0.19764680642E+03  0.37551433328E+02  0.80379295147E+03  0.10584742252E+04  0.65864270000E+03 0.  1.
    8880022    1    1    2    0    0  0.19764680642E+03 -0.37551433328E+02 -0.16674722798E+04  0.16865141052E+04  0.15294330000E+03 0.  0.
<mgrwt>
<rscale>  0 0.53601058E+03</rscale>
<asrwt>0</asrwt>
<pdfrwt beam="1">  1        2 0.27758982E+00 0.68868322E+03</pdfrwt>
<pdfrwt beam="2">  1       -2 0.14471608E+00 0.68868322E+03</pdfrwt>
<totfact> 0.29513825E+00</totfact>
</mgrwt>
</event>
<event>
 4    5  0.1112901E-007  0.1329826E+04  0.7818608E-02  0.9040222E-01
         -2   -1    0    0    0  501 -0.00000000000E+00  0.00000000000E+00  0.10270768160E+04  0.10270768160E+04  0.25500000000E-02 0.  1.
          2   -1    0    0  501    0  0.00000000000E+00 -0.00000000000E+00 -0.19139549078E+04  0.19139549078E+04  0.25500000000E-02 0. -1.
    8880023    1    1    2    0    0 -0.67798950728E+03  0.93539189304E+03  0.20327259960E+03  0.13452723596E+04  0.65864270000E+03 0.  0.
    8880022    1    1    2    0    0  0.67798950728E+03 -0.93539189304E+03 -0.10901506914E+04  0.15957593642E+04  0.15294330000E+03 0.  0.
<mgrwt>
<rscale>  0 0.12866471E+04</rscale>
<asrwt>0</asrwt>
<pdfrwt beam="1">  1        2 0.29445460E+00 0.13298263E+04</pdfrwt>
<pdfrwt beam="2">  1       -2 0.15801182E+00 0.13298263E+04</pdfrwt>
<totfact> 0.18642794E+00</totfact>
</mgrwt>
</event>
<event>
 4    5  0.1112901E-007  0.7281122E+03  0.7818608E-02  0.9896036E-01
          2   -1    0    0  501    0  0.00000000000E+00  0.00000000000E+00  0.16294795012E+04  0.16294795012E+04  0.25500000000E-02 0. -1.
         -2   -1    0    0    0  501 -0.00000000000E+00 -0.00000000000E+00 -0.79075960536E+03  0.79075960537E+03  0.25500000000E-02 0.  1.
    8880023    1    1    2    0    0  0.23585307675E+03  0.20176840303E+03 -0.59814531281E+03  0.94229782117E+03  0.65864270000E+03 0.  1.
    8880022    1    1    2    0    0 -0.23585307675E+03 -0.20176840303E+03  0.14368652087E+04  0.14779412854E+04  0.15294330000E+03 0.  0.
<mgrwt>
<rscale>  0 0.60453794E+03</rscale>
<asrwt>0</asrwt>
<pdfrwt beam="1">  1        2 0.25068915E+00 0.72811220E+03</pdfrwt>
<pdfrwt beam="2">  1       -2 0.12165533E+00 0.72811220E+03</pdfrwt>
<totfact> 0.56817783E+00</totfact>
</mgrwt>
</event>
<event>
 4    5  0.1112901E-007  0.8253486E+03  0.7818608E-02  0.9658451E-01
          2   -1    0    0  501    0  0.00000000000E+00  0.00000000000E+00  0.23673713712E+04  0.23673713712E+04  0.25500000000E-02 0. -1.
         -2   -1    0    0    0  501 -0.00000000000E+00 -0.00000000000E+00 -0.52284358868E+03  0.52284358869E+03  0.25500000000E-02 0.  1.
    8880023    1    1    2    0    0 -0.30806327940E+03  0.39049602393E+03 -0.14128580874E+03  0.83735417527E+03  0.65864270000E+03 0.  1.
    8880022    1    1    2    0    0  0.30806327940E+03 -0.39049602393E+03  0.19858135912E+04  0.20528607846E+04  0.15294330000E+03 0.  0.
<mgrwt>
<rscale>  0 0.73545398E+03</rscale>
<asrwt>0</asrwt>
<pdfrwt beam="1">  1        2 0.36421097E+00 0.82534861E+03</pdfrwt>
<pdfrwt beam="2">  1       -2 0.80437477E-01 0.82534861E+03</pdfrwt>
<totfact> 0.58531781E+00</totfact>
</mgrwt>
</event>
<event>
 4    5  0.1112901E-007  0.1305082E+04  0.7818608E-02  0.9061184E-01
          2   -1    0    0  501    0  0.00000000000E+00  0.00000000000E+00  0.15903645174E+04  0.15903645174E+04  0.25500000000E-02 0. -1.
         -2   -1    0    0    0  501 -0.00000000000E+00 -0.00000000000E+00 -0.10427184726E+04  0.10427184726E+04  0.25500000000E-02 0.  1.
    8880023    1    1    2    0    0 -0.10710833891E+04  0.34958290597E+03 -0.12655454006E+03  0.13112032994E+04  0.65864270000E+03 0.  0.
    8880022    1    1    2    0    0  0.10710833891E+04 -0.34958290597E+03  0.67420058481E+03  0.13218796905E+04  0.15294330000E+03 0.  0.
<mgrwt>
<rscale>  0 0.12608705E+04</rscale>
<asrwt>0</asrwt>
<pdfrwt beam="1">  1        2 0.24467146E+00 0.13050816E+04</pdfrwt>
<pdfrwt beam="2">  1       -2 0.16041823E+00 0.13050816E+04</pdfrwt>
<totfact> 0.27150600E+00</totfact>
</mgrwt>
</event>
<event>
 4    5  0.1112901E-007  0.1138050E+04  0.7818608E-02  0.9219829E-01
         -2   -1    0    0    0  501 -0.00000000000E+00  0.00000000000E+00  0.92694652360E+03  0.92694652361E+03  0.25500000000E-02 0.  1.
          2   -1    0    0  501    0  0.00000000000E+00 -0.00000000000E+00 -0.17788248040E+04  0.17788248040E+04  0.25500000000E-02 0. -1.
    8880023    1    1    2    0    0 -0.23941026882E+03 -0.89667750481E+03  0.33971258365E+03  0.11876711120E+04  0.65864270000E+03 0.  1.
    8880022    1    1    2    0    0  0.23941026882E+03  0.89667750481E+03 -0.11915908641E+04  0.15181002157E+04  0.15294330000E+03 0.  0.
<mgrwt>
<rscale>  0 0.10851080E+04</rscale>
<asrwt>0</asrwt>
<pdfrwt beam="1">  1        2 0.27366536E+00 0.11380501E+04</pdfrwt>
<pdfrwt beam="2">  1       -2 0.14260716E+00 0.11380501E+04</pdfrwt>
<totfact> 0.29720731E+00</totfact>
</mgrwt>
</event>
<event>
 4    5  0.1112901E-007  0.1006627E+04  0.7818608E-02  0.9372938E-01
         -2   -1    0    0    0  501 -0.00000000000E+00  0.00000000000E+00  0.48063531189E+03  0.48063531190E+03  0.25500000000E-02 0.  1.
          2   -1    0    0  501    0  0.00000000000E+00 -0.00000000000E+00 -0.20412079738E+04  0.20412079738E+04  0.25500000000E-02 0. -1.
    8880023    1    1    2    0    0  0.49688161169E+02  0.75961786454E+03 -0.31624328449E+03  0.10551342259E+04  0.65864270000E+03 0.  0.
    8880022    1    1    2    0    0 -0.49688161169E+02 -0.75961786454E+03 -0.12443293775E+04  0.14667090598E+04  0.15294330000E+03 0.  0.
<mgrwt>
<rscale>  0 0.94336630E+03</rscale>
<asrwt>0</asrwt>
<pdfrwt beam="1">  1        2 0.31403199E+00 0.10066272E+04</pdfrwt>
<pdfrwt beam="2">  1       -2 0.73943895E-01 0.10066272E+04</pdfrwt>
<totfact> 0.10468139E+01</totfact>
</mgrwt>
</event>
<event>
 4    5  0.1112901E-007  0.1072959E+04  0.7818608E-02  0.9291777E-01
         -2   -1    0    0    0  501 -0.00000000000E+00  0.00000000000E+00  0.12359865620E+04  0.12359865620E+04  0.25500000000E-02 0.  1.
          2   -1    0    0  501    0  0.00000000000E+00 -0.00000000000E+00 -0.11222345450E+04  0.11222345450E+04  0.25500000000E-02 0. -1.
    8880023    1    1    2    0    0  0.34890590116E+03  0.77181331620E+03  0.73165834746E+03  0.12986782768E+04  0.65864270000E+03 0.  0.
    8880022    1    1    2    0    0 -0.34890590116E+03 -0.77181331620E+03 -0.61790633046E+03  0.10595428303E+04  0.15294330000E+03 0.  0.
<mgrwt>
<rscale>  0 0.10154340E+04</rscale>
<asrwt>0</asrwt>
<pdfrwt beam="1">  1        2 0.17265147E+00 0.10729591E+04</pdfrwt>
<pdfrwt beam="2">  1       -2 0.19015178E+00 0.10729591E+04</pdfrwt>
<totfact> 0.32117474E+00</totfact>
</mgrwt>
</event>
<event>
 4    5  0.1112901E-007  0.9043081E+03  0.7818608E-02  0.9519151E-01
         -2   -1    0    0    0  501 -0.00000000000E+00  0.00000000000E+00  0.21722771461E+04  0.21722771461E+04  0.25500000000E-02 0.  1.
          2   -1    0    0  501    0  0.00000000000E+00 -0.00000000000E+00 -0.51505229224E+03  0.51505229225E+03  0.25500000000E-02 0. -1.
    8880023    1    1    2    0    0 -0.35256279579E+03 -0.50957073636E+03  0.18168196409E+04  0.20294350628E+04  0.65864270000E+03 0.  0.
    8880022    1    1    2    0    0  0.35256279579E+03  0.50957073636E+03 -0.15959478702E+03  0.65789437556E+03  0.15294330000E+03 0.  0.
<mgrwt>
<rscale>  0 0.82886513E+03</rscale>
<asrwt>0</asrwt>
<pdfrwt beam="1">  1        2 0.79238813E-01 0.90430806E+03</pdfrwt>
<pdfrwt beam="2">  1       -2 0.33419649E+00 0.90430806E+03</pdfrwt>
<totfact> 0.11920741E+00</totfact>
</mgrwt>
</event>
<event>
 4    5  0.1112901E-007  0.6872941E+03  0.7818608E-02  0.1005466E+00
          2   -1    0    0  501    0  0.00000000000E+00  0.00000000000E+00  0.80832895919E+03  0.80832895920E+03  0.25500000000E-02 0. -1.
         -2   -1    0    0    0  501 -0.00000000000E+00 -0.00000000000E+00 -0.52497663567E+03  0.52497663567E+03  0.25500000000E-02 0.  1.
    8880023    1    1    2    0    0 -0.14557651629E+03 -0.13179693192E+03 -0.26065395236E+03  0.73506029855E+03  0.65864270000E+03 0.  1.
    8880022    1    1    2    0    0  0.14557651629E+03  0.13179693192E+03  0.54400627588E+03  0.59824529632E+03  0.15294330000E+03 0.  0.
<mgrwt>
<rscale>  0 0.53317055E+03</rscale>
<asrwt>0</asrwt>
<pdfrwt beam="1">  1        2 0.12435830E+00 0.68729409E+03</pdfrwt>
<pdfrwt beam="2">  1       -2 0.80765636E-01 0.68729409E+03</pdfrwt>
<totfact> 0.46844823E+01</totfact>
</mgrwt>
</event>
<event>
 4    5  0.1112901E-007  0.9452208E+03  0.7818608E-02  0.9457024E-01
         -2   -1    0    0    0  501 -0.00000000000E+00  0.00000000000E+00  0.64418642908E+03  0.64418642908E+03  0.25500000000E-02 0.  1.
          2   -1    0    0  501    0  0.00000000000E+00 -0.00000000000E+00 -0.12959968901E+04  0.12959968901E+04  0.25500000000E-02 0. -1.
    8880023    1    1    2    0    0  0.51439241940E+03  0.44162496640E+03  0.57715154471E+02  0.94698121280E+03  0.65864270000E+03 0.  1.
    8880022    1    1    2    0    0 -0.51439241940E+03 -0.44162496640E+03 -0.70952561551E+03  0.99320210640E+03  0.15294330000E+03 0.  0.
<mgrwt>
<rscale>  0 0.87527802E+03</rscale>
<asrwt>0</asrwt>
<pdfrwt beam="1">  1        2 0.19938414E+00 0.94522081E+03</pdfrwt>
<pdfrwt beam="2">  1       -2 0.99105605E-01 0.94522081E+03</pdfrwt>
<totfact> 0.14018130E+01</totfact>
</mgrwt>
</event>
<event>
 4    5  0.1112901E-007  0.7671132E+03  0.7818608E-02  0.9787029E-01
          2   -1    0    0  501    0  0.00000000000E+00  0.00000000000E+00  0.28051745872E+04  0.28051745872E+04  0.25500000000E-02 0. -1.
         -2   -1    0    0    0  501 -0.00000000000E+00 -0.00000000000E+00 -0.21282253189E+03  0.21282253190E+03  0.25500000000E-02 0.  1.
    8880023    1    1    2    0    0  0.38923752768E+03  0.56093927247E+02  0.57950678066E+03  0.96140038315E+03  0.65864270000E+03 0.  1.
    8880022    1    1    2    0    0 -0.38923752768E+03 -0.56093927247E+02  0.20128452746E+04  0.20565967359E+04  0.15294330000E+03 0.  0.
<mgrwt>
<rscale>  0 0.66063336E+03</rscale>
<asrwt>0</asrwt>
<pdfrwt beam="1">  1        2 0.43156528E+00 0.76711315E+03</pdfrwt>
<pdfrwt beam="2">  1       -2 0.32741931E-01 0.76711315E+03</pdfrwt>
<totfact> 0.20977459E+01</totfact>
</mgrwt>
</event>
<event>
 4    5  0.1112901E-007  0.8515220E+03  0.7818608E-02  0.9608826E-01
          2   -1    0    0  501    0  0.00000000000E+00  0.00000000000E+00  0.15833008397E+04  0.15833008397E+04  0.25500000000E-02 0. -1.
         -2   -1    0    0    0  501 -0.00000000000E+00 -0.00000000000E+00 -0.53699417808E+03  0.53699417809E+03  0.25500000000E-02 0.  1.
    8880023    1    1    2    0    0  0.11721017081E+03  0.52682187234E+03 -0.86802188598E+02  0.85593477294E+03  0.65864270000E+03 0.  1.
    8880022    1    1    2    0    0 -0.11721017081E+03 -0.52682187234E+03  0.11331088503E+04  0.12643602449E+04  0.15294330000E+03 0.  0.
<mgrwt>
<rscale>  0 0.76714776E+03</rscale>
<asrwt>0</asrwt>
<pdfrwt beam="1">  1        2 0.24358474E+00 0.85152200E+03</pdfrwt>
<pdfrwt beam="2">  1       -2 0.82614490E-01 0.85152200E+03</pdfrwt>
<totfact> 0.14840520E+01</totfact>
</mgrwt>
</event>
<event>
 4    5  0.1112901E-007  0.8978487E+03  0.7818608E-02  0.9529494E-01
          2   -1    0    0  501    0  0.00000000000E+00  0.00000000000E+00  0.62617021626E+03  0.62617021626E+03  0.25500000000E-02 0. -1.
         -2   -1    0    0    0  501 -0.00000000000E+00 -0.00000000000E+00 -0.12880957085E+04  0.12880957085E+04  0.25500000000E-02 0.  1.
    8880023    1    1    2    0    0  0.57567035754E+03 -0.20230098664E+03 -0.87145935874E+03  0.12512288639E+04  0.65864270000E+03 0.  1.
    8880022    1    1    2    0    0 -0.57567035754E+03  0.20230098664E+03  0.20953386653E+03  0.66303706080E+03  0.15294330000E+03 0.  0.
<mgrwt>
<rscale>  0 0.82143839E+03</rscale>
<asrwt>0</asrwt>
<pdfrwt beam="1">  1        2 0.96333880E-01 0.89784868E+03</pdfrwt>
<pdfrwt beam="2">  1       -2 0.19816857E+00 0.89784868E+03</pdfrwt>
<totfact> 0.64617110E+00</totfact>
</mgrwt>
</event>
<event>
 4    5  0.1112901E-007  0.1526474E+04  0.7818608E-02  0.8891164E-01
          2   -1    0    0  501    0  0.00000000000E+00  0.00000000000E+00  0.21072736534E+04  0.21072736534E+04  0.25500000000E-02 0. -1.
         -2   -1    0    0    0  501 -0.00000000000E+00 -0.00000000000E+00 -0.16765747824E+04  0.16765747824E+04  0.25500000000E-02 0.  1.
    8880023    1    1    2    0    0 -0.13469458375E+04  0.28644453074E+03 -0.97405079377E+03  0.18107729602E+04  0.65864270000E+03 0.  0.
    8880022    1    1    2    0    0  0.13469458375E+04 -0.28644453074E+03  0.14047496648E+04  0.19730754755E+04  0.15294330000E+03 0.  0.
<mgrwt>
<rscale>  0 0.14899491E+04</rscale>
<asrwt>0</asrwt>
<pdfrwt beam="1">  1        2 0.32419594E+00 0.15264743E+04</pdfrwt>
<pdfrwt beam="2">  1       -2 0.25793458E+00 0.15264743E+04</pdfrwt>
<totfact> 0.31246252E-01</totfact>
</mgrwt>
</event>
<event>
 4    5  0.1112901E-007  0.9720278E+03  0.7818608E-02  0.9419105E-01
         -2   -1    0    0    0  501 -0.00000000000E+00  0.00000000000E+00  0.13223214477E+04  0.13223214477E+04  0.25500000000E-02 0.  1.
          2   -1    0    0  501    0  0.00000000000E+00 -0.00000000000E+00 -0.13249061833E+04  0.13249061833E+04  0.25500000000E-02 0. -1.
    8880023    1    1    2    0    0 -0.59606404211E+03  0.39463340859E+03  0.10077568946E+04  0.14001471474E+04  0.65864270000E+03 0.  1.
    8880022    1    1    2    0    0  0.59606404211E+03 -0.39463340859E+03 -0.10103416303E+04  0.12470804835E+04  0.15294330000E+03 0.  0.
<mgrwt>
<rscale>  0 0.90519951E+03</rscale>
<asrwt>0</asrwt>
<pdfrwt beam="1">  1        2 0.20383172E+00 0.97202782E+03</pdfrwt>
<pdfrwt beam="2">  1       -2 0.20343407E+00 0.97202782E+03</pdfrwt>
<totfact> 0.20119769E+00</totfact>
</mgrwt>
</event>
<event>
 4    5  0.1112901E-007  0.1279134E+04  0.7818608E-02  0.9083792E-01
         -2   -1    0    0    0  501 -0.00000000000E+00  0.00000000000E+00  0.17683711428E+04  0.17683711428E+04  0.25500000000E-02 0.  1.
          2   -1    0    0  501    0  0.00000000000E+00 -0.00000000000E+00 -0.14019689366E+04  0.14019689366E+04  0.25500000000E-02 0. -1.
    8880023    1    1    2    0    0  0.10701083507E+04 -0.23925009130E+03  0.12236056687E+04  0.17701394090E+04  0.65864270000E+03 0.  0.
    8880022    1    1    2    0    0 -0.10701083507E+04  0.23925009130E+03 -0.85720346246E+03  0.14002006704E+04  0.15294330000E+03 0.  0.
<mgrwt>
<rscale>  0 0.12337802E+04</rscale>
<asrwt>0</asrwt>
<pdfrwt beam="1">  1        2 0.21568753E+00 0.12791336E+04</pdfrwt>
<pdfrwt beam="2">  1       -2 0.27205710E+00 0.12791336E+04</pdfrwt>
<totfact> 0.65515995E-01</totfact>
</mgrwt>
</event>
<event>
 4    5  0.1112901E-007  0.1189278E+04  0.7818608E-02  0.9167616E-01
          2   -1    0    0  501    0  0.00000000000E+00  0.00000000000E+00  0.22270922551E+04  0.22270922551E+04  0.25500000000E-02 0. -1.
         -2   -1    0    0    0  501 -0.00000000000E+00 -0.00000000000E+00 -0.88709719257E+03  0.88709719257E+03  0.25500000000E-02 0.  1.
    8880023    1    1    2    0    0 -0.91383216142E+03 -0.38142249354E+03 -0.26843187626E+03  0.12191957252E+04  0.65864270000E+03 0.  0.
    8880022    1    1    2    0    0  0.91383216142E+03  0.38142249354E+03  0.16084269388E+04  0.18949937225E+04  0.15294330000E+03 0.  0.
<mgrwt>
<rscale>  0 0.11394030E+04</rscale>
<asrwt>0</asrwt>
<pdfrwt beam="1">  1        2 0.34262958E+00 0.11892782E+04</pdfrwt>
<pdfrwt beam="2">  1       -2 0.13647649E+00 0.11892782E+04</pdfrwt>
<totfact> 0.18695472E+00</totfact>
</mgrwt>
</event>
<event>
 4    5  0.1112901E-007  0.1273150E+04  0.7818608E-02  0.9089100E-01
          2   -1    0    0  501    0  0.00000000000E+00  0.00000000000E+00  0.25513298902E+04  0.25513298902E+04  0.25500000000E-02 0. -1.
         -2   -1    0    0    0  501 -0.00000000000E+00 -0.00000000000E+00 -0.67102162193E+03  0.67102162193E+03  0.25500000000E-02 0.  1.
    8880023    1    1    2    0    0  0.10877978278E+04  0.61626793601E+02  0.31930497467E+03  0.13125806066E+04  0.65864270000E+03 0.  1.
    8880022    1    1    2    0    0 -0.10877978278E+04 -0.61626793601E+02  0.15610032936E+04  0.19097709055E+04  0.15294330000E+03 0.  0.
<mgrwt>
<rscale>  0 0.12275244E+04</rscale>
<asrwt>0</asrwt>
<pdfrwt beam="1">  1        2 0.39251229E+00 0.12731505E+04</pdfrwt>
<pdfrwt beam="2">  1       -2 0.10323410E+00 0.12731505E+04</pdfrwt>
<totfact> 0.24265614E+00</totfact>
</mgrwt>
</event>
<event>
 4    5  0.1112901E-007  0.1363338E+04  0.7818608E-02  0.9012707E-01
         -2   -1    0    0    0  501 -0.00000000000E+00  0.00000000000E+00  0.65608842473E+03  0.65608842473E+03  0.25500000000E-02 0.  1.
          2   -1    0    0  501    0  0.00000000000E+00 -0.00000000000E+00 -0.38045795202E+04  0.38045795202E+04  0.25500000000E-02 0. -1.
    8880023    1    1    2    0    0 -0.69921143580E+03 -0.96746251704E+03 -0.33984661224E+03  0.14050573938E+04  0.65864270000E+03 0.  0.
    8880022    1    1    2    0    0  0.69921143580E+03  0.96746251704E+03 -0.28086444832E+04  0.30556105511E+04  0.15294330000E+03 0.  0.
<mgrwt>
<rscale>  0 0.13214749E+04</rscale>
<asrwt>0</asrwt>
<pdfrwt beam="1">  1        2 0.58531992E+00 0.13633380E+04</pdfrwt>
<pdfrwt beam="2">  1       -2 0.10093668E+00 0.13633380E+04</pdfrwt>
<totfact> 0.38727091E-01</totfact>
</mgrwt>
</event>
<event>
 4    5  0.1112901E-007  0.7588279E+03  0.7818608E-02  0.9808151E-01
          2   -1    0    0  501    0  0.00000000000E+00  0.00000000000E+00  0.10166012467E+04  0.10166012467E+04  0.25500000000E-02 0. -1.
         -2   -1    0    0    0  501 -0.00000000000E+00 -0.00000000000E+00 -0.67464594698E+03  0.67464594699E+03  0.25500000000E-02 0.  1.
    8880023    1    1    2    0    0  0.79010689071E+02 -0.36846562660E+03 -0.39053482892E+03  0.85342677825E+03  0.65864270000E+03 0.  1.
    8880022    1    1    2    0    0 -0.79010689071E+02  0.36846562660E+03  0.73249012866E+03  0.83782041547E+03  0.15294330000E+03 0.  0.
<mgrwt>
<rscale>  0 0.64926924E+03</rscale>
<asrwt>0</asrwt>
<pdfrwt beam="1">  1        2 0.15640019E+00 0.75882792E+03</pdfrwt>
<pdfrwt beam="2">  1       -2 0.10379168E+00 0.75882792E+03</pdfrwt>
<totfact> 0.18870188E+01</totfact>
</mgrwt>
</event>
<event>
 4    5  0.1112901E-007  0.7844844E+03  0.7818608E-02  0.9745407E-01
         -2   -1    0    0    0  501 -0.00000000000E+00  0.00000000000E+00  0.92021930700E+03  0.92021930701E+03  0.25500000000E-02 0.  1.
          2   -1    0    0  501    0  0.00000000000E+00 -0.00000000000E+00 -0.21193283171E+04  0.21193283171E+04  0.25500000000E-02 0. -1.
    8880023    1    1    2    0    0 -0.94964203752E+02 -0.41543639635E+03  0.72178459390E+03  0.10660153872E+04  0.65864270000E+03 0.  1.
    8880022    1    1    2    0    0  0.94964203752E+02  0.41543639635E+03 -0.19208936040E+04  0.19735322370E+04  0.15294330000E+03 0.  0.
<mgrwt>
<rscale>  0 0.68376481E+03</rscale>
<asrwt>0</asrwt>
<pdfrwt beam="1">  1        2 0.32605051E+00 0.78448442E+03</pdfrwt>
<pdfrwt beam="2">  1       -2 0.14157220E+00 0.78448442E+03</pdfrwt>
<totfact> 0.20675288E+00</totfact>
</mgrwt>
</event>
<event>
 4    5  0.1112901E-007  0.1223726E+04  0.7818608E-02  0.9134397E-01
         -2   -1    0    0    0  501 -0.00000000000E+00  0.00000000000E+00  0.79888845185E+03  0.79888845185E+03  0.25500000000E-02 0.  1.
          2   -1    0    0  501    0  0.00000000000E+00 -0.00000000000E+00 -0.22607433832E+04  0.22607433832E+04  0.25500000000E-02 0. -1.
    8880023    1    1    2    0    0 -0.82544535179E+03 -0.61833291809E+03  0.48109328517E+02  0.12246715234E+04  0.65864270000E+03 0.  0.
    8880022    1    1    2    0    0  0.82544535179E+03  0.61833291809E+03 -0.15099642598E+04  0.18349603116E+04  0.15294330000E+03 0.  0.
<mgrwt>
<rscale>  0 0.11756993E+04</rscale>
<asrwt>0</asrwt>
<pdfrwt beam="1">  1        2 0.34780667E+00 0.12237262E+04</pdfrwt>
<pdfrwt beam="2">  1       -2 0.12290592E+00 0.12237262E+04</pdfrwt>
<totfact> 0.23280690E+00</totfact>
</mgrwt>
</event>
<event>
 4    5  0.1112901E-007  0.1051429E+04  0.7818608E-02  0.9317165E-01
         -2   -1    0    0    0  501 -0.00000000000E+00  0.00000000000E+00  0.84324561821E+03  0.84324561822E+03  0.25500000000E-02 0.  1.
          2   -1    0    0  501    0  0.00000000000E+00 -0.00000000000E+00 -0.28188455136E+04  0.28188455136E+04  0.25500000000E-02 0. -1.
    8880023    1    1    2    0    0  0.53184275414E+03  0.62356725634E+03  0.41493646251E+03  0.11303430066E+04  0.65864270000E+03 0.  0.
    8880022    1    1    2    0    0 -0.53184275414E+03 -0.62356725634E+03 -0.23905363579E+04  0.25317481252E+04  0.15294330000E+03 0.  0.
<mgrwt>
<rscale>  0 0.99217820E+03</rscale>
<asrwt>0</asrwt>
<pdfrwt beam="1">  1        2 0.43366854E+00 0.10514290E+04</pdfrwt>
<pdfrwt beam="2">  1       -2 0.12973010E+00 0.10514290E+04</pdfrwt>
<totfact> 0.98822648E-01</totfact>
</mgrwt>
</event>
<event>
 4    5  0.1112901E-007  0.7339455E+03  0.7818608E-02  0.9877948E-01
          2   -1    0    0  501    0  0.00000000000E+00  0.00000000000E+00  0.22477963319E+04  0.22477963319E+04  0.25500000000E-02 0. -1.
         -2   -1    0    0    0  501 -0.00000000000E+00 -0.00000000000E+00 -0.27488757359E+03  0.27488757360E+03  0.25500000000E-02 0.  1.
    8880023    1    1    2    0    0 -0.22453870537E+03 -0.23334127113E+03  0.26922529100E+03  0.78176610479E+03  0.65864270000E+03 0.  0.
    8880022    1    1    2    0    0  0.22453870537E+03  0.23334127113E+03  0.17036834673E+04  0.17409178007E+04  0.15294330000E+03 0.  0.
<mgrwt>
<rscale>  0 0.61342034E+03</rscale>
<asrwt>0</asrwt>
<pdfrwt beam="1">  1        2 0.34581483E+00 0.73394549E+03</pdfrwt>
<pdfrwt beam="2">  1       -2 0.42290395E-01 0.73394549E+03</pdfrwt>
<totfact> 0.26765605E+01</totfact>
</mgrwt>
</event>
<event>
 4    5  0.1112901E-007  0.1207578E+04  0.7818608E-02  0.9149791E-01
         -2   -1    0    0    0  501 -0.00000000000E+00  0.00000000000E+00  0.14893514597E+04  0.14893514597E+04  0.25500000000E-02 0.  1.
          2   -1    0    0  501    0  0.00000000000E+00 -0.00000000000E+00 -0.18682490317E+04  0.18682490317E+04  0.25500000000E-02 0. -1.
    8880023    1    1    2    0    0 -0.83711640854E+03 -0.56892153296E+03  0.10497607974E+04  0.16000761014E+04  0.65864270000E+03 0.  1.
    8880022    1    1    2    0    0  0.83711640854E+03  0.56892153296E+03 -0.14286583694E+04  0.17575243901E+04  0.15294330000E+03 0.  0.
<mgrwt>
<rscale>  0 0.11587046E+04</rscale>
<asrwt>0</asrwt>
<pdfrwt beam="1">  1        2 0.28742293E+00 0.12075785E+04</pdfrwt>
<pdfrwt beam="2">  1       -2 0.22913099E+00 0.12075785E+04</pdfrwt>
<totfact> 0.66433935E-01</totfact>
</mgrwt>
</event>
<event>
 4    5  0.1112901E-007  0.6702763E+03  0.7818608E-02  0.1015466E+00
          2   -1    0    0  501    0  0.00000000000E+00  0.00000000000E+00  0.46311440283E+03  0.46311440284E+03  0.25500000000E-02 0. -1.
         -2   -1    0    0    0  501 -0.00000000000E+00 -0.00000000000E+00 -0.10995673165E+04  0.10995673165E+04  0.25500000000E-02 0.  1.
    8880023    1    1    2    0    0 -0.10338926751E+03  0.69070689914E+02 -0.96773703669E+03  0.11771938155E+04  0.65864270000E+03 0.  1.
    8880022    1    1    2    0    0  0.10338926751E+03 -0.69070689914E+02  0.33128412301E+03  0.38548790385E+03  0.15294330000E+03 0.  0.
<mgrwt>
<rscale>  0 0.49359042E+03</rscale>
<asrwt>0</asrwt>
<pdfrwt beam="1">  1        2 0.71248370E-01 0.67027629E+03</pdfrwt>
<pdfrwt beam="2">  1       -2 0.16916420E+00 0.67027629E+03</pdfrwt>
<totfact> 0.14876329E+01</totfact>
</mgrwt>
</event>
<event>
 4    5  0.1112901E-007  0.1265513E+04  0.7818608E-02  0.9095929E-01
         -2   -1    0    0    0  501 -0.00000000000E+00  0.00000000000E+00  0.13155505408E+04  0.13155505408E+04  0.25500000000E-02 0.  1.
          2   -1    0    0  501    0  0.00000000000E+00 -0.00000000000E+00 -0.21849315287E+04  0.21849315287E+04  0.25500000000E-02 0. -1.
    8880023    1    1    2    0    0 -0.88402942457E+03  0.62145318456E+03  0.80643249997E+03  0.15006184283E+04  0.65864270000E+03 0.  0.
    8880022    1    1    2    0    0  0.88402942457E+03 -0.62145318456E+03 -0.16758134879E+04  0.19998636412E+04  0.15294330000E+03 0.  0.
<mgrwt>
<rscale>  0 0.12195330E+04</rscale>
<asrwt>0</asrwt>
<pdfrwt beam="1">  1        2 0.33614331E+00 0.12655127E+04</pdfrwt>
<pdfrwt beam="2">  1       -2 0.20239239E+00 0.12655127E+04</pdfrwt>
<totfact> 0.65146822E-01</totfact>
</mgrwt>
</event>
<event>
 4    5  0.1112901E-007  0.9730458E+03  0.7818608E-02  0.9417704E-01
          2   -1    0    0  501    0  0.00000000000E+00  0.00000000000E+00  0.16365747248E+04  0.16365747248E+04  0.25500000000E-02 0. -1.
         -2   -1    0    0    0  501 -0.00000000000E+00 -0.00000000000E+00 -0.84908884736E+03  0.84908884737E+03  0.25500000000E-02 0.  1.
    8880023    1    1    2    0    0  0.46824141598E+02  0.71471352622E+03 -0.43082566318E+03  0.10641564185E+04  0.65864270000E+03 0.  1.
    8880022    1    1    2    0    0 -0.46824141598E+02 -0.71471352622E+03  0.12183115406E+04  0.14215071536E+04  0.15294330000E+03 0.  0.
<mgrwt>
<rscale>  0 0.90632929E+03</rscale>
<asrwt>0</asrwt>
<pdfrwt beam="1">  1        2 0.25178072E+00 0.97304580E+03</pdfrwt>
<pdfrwt beam="2">  1       -2 0.13062906E+00 0.97304580E+03</pdfrwt>
<totfact> 0.45534073E+00</totfact>
</mgrwt>
</event>
<event>
 4    5  0.1112901E-007  0.7814847E+03  0.7818608E-02  0.9752361E-01
          2   -1    0    0  501    0  0.00000000000E+00  0.00000000000E+00  0.58723830014E+03  0.58723830015E+03  0.25500000000E-02 0. -1.
         -2   -1    0    0    0  501 -0.00000000000E+00 -0.00000000000E+00 -0.12050072314E+04  0.12050072314E+04  0.25500000000E-02 0.  1.
    8880023    1    1    2    0    0  0.37146912338E+03 -0.19727846160E+03 -0.95345168719E+03  0.12327969935E+04  0.65864270000E+03 0.  0.
    8880022    1    1    2    0    0 -0.37146912338E+03  0.19727846160E+03  0.33568275598E+03  0.55944853804E+03  0.15294330000E+03 0.  0.
<mgrwt>
<rscale>  0 0.67983012E+03</rscale>
<asrwt>0</asrwt>
<pdfrwt beam="1">  1        2 0.90344355E-01 0.78148468E+03</pdfrwt>
<pdfrwt beam="2">  1       -2 0.18538573E+00 0.78148468E+03</pdfrwt>
<totfact> 0.85997858E+00</totfact>
</mgrwt>
</event>
<event>
 4    5  0.1112901E-007  0.8286460E+03  0.7818608E-02  0.9651973E-01
          2   -1    0    0  501    0  0.00000000000E+00  0.00000000000E+00  0.16625894564E+04  0.16625894564E+04  0.25500000000E-02 0. -1.
         -2   -1    0    0    0  501 -0.00000000000E+00 -0.00000000000E+00 -0.48136757363E+03  0.48136757364E+03  0.25500000000E-02 0.  1.
    8880023    1    1    2    0    0  0.19475637792E+03 -0.46358820376E+03 -0.24134098222E+02  0.82899742483E+03  0.65864270000E+03 0.  1.
    8880022    1    1    2    0    0 -0.19475637792E+03  0.46358820376E+03  0.12053559810E+04  0.13149596052E+04  0.15294330000E+03 0.  0.
<mgrwt>
<rscale>  0 0.73949762E+03</rscale>
<asrwt>0</asrwt>
<pdfrwt beam="1">  1        2 0.25578299E+00 0.82864605E+03</pdfrwt>
<pdfrwt beam="2">  1       -2 0.74056550E-01 0.82864605E+03</pdfrwt>
<totfact> 0.17189249E+01</totfact>
</mgrwt>
</event>
<event>
 4    5  0.1112901E-007  0.1037998E+04  0.7818608E-02  0.9333451E-01
          2   -1    0    0  501    0  0.00000000000E+00  0.00000000000E+00  0.34577739712E+04  0.34577739712E+04  0.25500000000E-02 0. -1.
         -2   -1    0    0    0  501 -0.00000000000E+00 -0.00000000000E+00 -0.52952306077E+03  0.52952306078E+03  0.25500000000E-02 0.  1.
    8880023    1    1    2    0    0  0.37969513794E+03  0.70672525663E+03  0.99211315827E+02  0.10427281897E+04  0.65864270000E+03 0.  0.
    8880022    1    1    2    0    0 -0.37969513794E+03 -0.70672525663E+03  0.28290395946E+04  0.29445688423E+04  0.15294330000E+03 0.  0.
<mgrwt>
<rscale>  0 0.97760789E+03</rscale>
<asrwt>0</asrwt>
<pdfrwt beam="1">  1        2 0.53196521E+00 0.10379977E+04</pdfrwt>
<pdfrwt beam="2">  1       -2 0.81465089E-01 0.10379977E+04</pdfrwt>
<totfact> 0.11856632E+00</totfact>
</mgrwt>
</event>
<event>
 4    5  0.1112901E-007  0.7793083E+03  0.7818608E-02  0.9757464E-01
          2   -1    0    0  501    0  0.00000000000E+00  0.00000000000E+00  0.13615461358E+04  0.13615461358E+04  0.25500000000E-02 0. -1.
         -2   -1    0    0    0  501 -0.00000000000E+00 -0.00000000000E+00 -0.70521072736E+03  0.70521072736E+03  0.25500000000E-02 0.  1.
    8880023    1    1    2    0    0  0.29631567531E+03 -0.29275978097E+03 -0.43228404511E+03  0.89117392843E+03  0.65864270000E+03 0.  1.
    8880022    1    1    2    0    0 -0.29631567531E+03  0.29275978097E+03  0.10886194535E+04  0.11755829347E+04  0.15294330000E+03 0.  0.
<mgrwt>
<rscale>  0 0.67696078E+03</rscale>
<asrwt>0</asrwt>
<pdfrwt beam="1">  1        2 0.20946863E+00 0.77930833E+03</pdfrwt>
<pdfrwt beam="2">  1       -2 0.10849396E+00 0.77930833E+03</pdfrwt>
<totfact> 0.10533994E+01</totfact>
</mgrwt>
</event>
<event>
 4    5  0.1112901E-007  0.7185793E+03  0.7818608E-02  0.9927423E-01
         -2   -1    0    0    0  501 -0.00000000000E+00  0.00000000000E+00  0.15817523402E+03  0.15817523404E+03  0.25500000000E-02 0.  1.
          2   -1    0    0  501    0  0.00000000000E+00 -0.00000000000E+00 -0.36053475807E+04  0.36053475807E+04  0.25500000000E-02 0. -1.
    8880023    1    1    2    0    0  0.27646261512E+03 -0.78194766741E+02 -0.72081821492E+03  0.10178089724E+04  0.65864270000E+03 0.  1.
    8880022    1    1    2    0    0 -0.27646261512E+03  0.78194766741E+02 -0.27263541318E+04  0.27457138423E+04  0.15294330000E+03 0.  0.
<mgrwt>
<rscale>  0 0.58950476E+03</rscale>
<asrwt>0</asrwt>
<pdfrwt beam="1">  1        2 0.55466880E+00 0.71857930E+03</pdfrwt>
<pdfrwt beam="2">  1       -2 0.24334654E-01 0.71857930E+03</pdfrwt>
<totfact> 0.11225481E+01</totfact>
</mgrwt>
</event>
<event>
 4    5  0.1112901E-007  0.7272377E+03  0.7818608E-02  0.9898816E-01
         -2   -1    0    0    0  501 -0.00000000000E+00  0.00000000000E+00  0.37895318052E+03  0.37895318053E+03  0.25500000000E-02 0.  1.
          2   -1    0    0  501    0  0.00000000000E+00 -0.00000000000E+00 -0.17002543187E+04  0.17002543187E+04  0.25500000000E-02 0. -1.
    8880023    1    1    2    0    0  0.30808484842E+03 -0.12175105494E+02 -0.14013457645E+02  0.72737273133E+03  0.65864270000E+03 0.  0.
    8880022    1    1    2    0    0 -0.30808484842E+03  0.12175105494E+02 -0.13072876805E+04  0.13518347679E+04  0.15294330000E+03 0.  0.
<mgrwt>
<rscale>  0 0.60318705E+03</rscale>
<asrwt>0</asrwt>
<pdfrwt beam="1">  1        2 0.26157758E+00 0.72723773E+03</pdfrwt>
<pdfrwt beam="2">  1       -2 0.58300490E-01 0.72723773E+03</pdfrwt>
<totfact> 0.27785543E+01</totfact>
</mgrwt>
</event>
<event>
 4    5  0.1112901E-007  0.1201559E+04  0.7818608E-02  0.9155608E-01
          2   -1    0    0  501    0  0.00000000000E+00  0.00000000000E+00  0.10975010148E+04  0.10975010148E+04  0.25500000000E-02 0. -1.
         -2   -1    0    0    0  501 -0.00000000000E+00 -0.00000000000E+00 -0.21991941786E+04  0.21991941786E+04  0.25500000000E-02 0.  1.
    8880023    1    1    2    0    0 -0.84099092849E+03 -0.55015271708E+03 -0.17265311578E+04  0.21034861062E+04  0.65864270000E+03 0.  0.
    8880022    1    1    2    0    0  0.84099092849E+03  0.55015271708E+03  0.62483799405E+03  0.11932090872E+04  0.15294330000E+03 0.  0.
<mgrwt>
<rscale>  0 0.11523607E+04</rscale>
<asrwt>0</asrwt>
<pdfrwt beam="1">  1        2 0.16884631E+00 0.12015590E+04</pdfrwt>
<pdfrwt beam="2">  1       -2 0.33833756E+00 0.12015590E+04</pdfrwt>
<totfact> 0.39488386E-01</totfact>
</mgrwt>
</event>
<event>
 4    5  0.1112901E-007  0.6742861E+03  0.7818608E-02  0.1012760E+00
          2   -1    0    0  501    0  0.00000000000E+00  0.00000000000E+00  0.88149866762E+03  0.88149866762E+03  0.25500000000E-02 0. -1.
         -2   -1    0    0    0  501 -0.00000000000E+00 -0.00000000000E+00 -0.35198090295E+03  0.35198090296E+03  0.25500000000E-02 0.  1.
    8880023    1    1    2    0    0 -0.13527090987E+03  0.50530945257E+02  0.11498054723E+02  0.67438416871E+03  0.65864270000E+03 0.  1.
    8880022    1    1    2    0    0  0.13527090987E+03 -0.50530945257E+02  0.51801970994E+03  0.55909540187E+03  0.15294330000E+03 0.  0.
<mgrwt>
<rscale>  0 0.50392285E+03</rscale>
<asrwt>0</asrwt>
<pdfrwt beam="1">  1        2 0.13561518E+00 0.67428614E+03</pdfrwt>
<pdfrwt beam="2">  1       -2 0.54150909E-01 0.67428614E+03</pdfrwt>
<totfact> 0.98717066E+01</totfact>
</mgrwt>
</event>
<event>
 4    5  0.1112901E-007  0.1024606E+04  0.7818608E-02  0.9350051E-01
          2   -1    0    0  501    0  0.00000000000E+00  0.00000000000E+00  0.13583078501E+04  0.13583078501E+04  0.25500000000E-02 0. -1.
         -2   -1    0    0    0  501 -0.00000000000E+00 -0.00000000000E+00 -0.79539201526E+03  0.79539201526E+03  0.25500000000E-02 0.  1.
    8880023    1    1    2    0    0  0.62269096427E+03  0.47776859987E+03 -0.20516042148E+03  0.10449439587E+04  0.65864270000E+03 0.  0.
    8880022    1    1    2    0    0 -0.62269096427E+03 -0.47776859987E+03  0.76807625630E+03  0.11087559066E+04  0.15294330000E+03 0.  0.
<mgrwt>
<rscale>  0 0.96302834E+03</rscale>
<asrwt>0</asrwt>
<pdfrwt beam="1">  1        2 0.20897044E+00 0.10246058E+04</pdfrwt>
<pdfrwt beam="2">  1       -2 0.12236800E+00 0.10246058E+04</pdfrwt>
<totfact> 0.76613663E+00</totfact>
</mgrwt>
</event>
<event>
 4    5  0.1112901E-007  0.9411713E+03  0.7818608E-02  0.9462932E-01
         -2   -1    0    0    0  501 -0.00000000000E+00  0.00000000000E+00  0.77012151779E+03  0.77012151779E+03  0.25500000000E-02 0.  1.
          2   -1    0    0  501    0  0.00000000000E+00 -0.00000000000E+00 -0.15297390712E+04  0.15297390712E+04  0.25500000000E-02 0. -1.
    8880023    1    1    2    0    0 -0.34028702551E+03 -0.57982576697E+03  0.34106052799E+03  0.10010622707E+04  0.65864270000E+03 0.  0.
    8880022    1    1    2    0    0  0.34028702551E+03  0.57982576697E+03 -0.11006780814E+04  0.12987983183E+04  0.15294330000E+03 0.  0.
<mgrwt>
<rscale>  0 0.87072731E+03</rscale>
<asrwt>0</asrwt>
<pdfrwt beam="1">  1        2 0.23534447E+00 0.94117128E+03</pdfrwt>
<pdfrwt beam="2">  1       -2 0.11848023E+00 0.94117128E+03</pdfrwt>
<totfact> 0.66989638E+00</totfact>
</mgrwt>
</event>
<event>
 4    5  0.1112901E-007  0.1616537E+04  0.7818608E-02  0.8831447E-01
          2   -1    0    0  501    0  0.00000000000E+00  0.00000000000E+00  0.15769841497E+04  0.15769841497E+04  0.25500000000E-02 0. -1.
         -2   -1    0    0    0  501 -0.00000000000E+00 -0.00000000000E+00 -0.26230353649E+04  0.26230353649E+04  0.25500000000E-02 0.  1.
    8880023    1    1    2    0    0 -0.17827982351E+03 -0.14654686614E+04 -0.18945003824E+04  0.24904465459E+04  0.65864270000E+03 0.  0.
    8880022    1    1    2    0    0  0.17827982351E+03  0.14654686614E+04  0.84844916720E+03  0.17095729687E+04  0.15294330000E+03 0.  0.
<mgrwt>
<rscale>  0 0.15823790E+04</rscale>
<asrwt>0</asrwt>
<pdfrwt beam="1">  1        2 0.24261295E+00 0.16165371E+04</pdfrwt>
<pdfrwt beam="2">  1       -2 0.40354390E+00 0.16165371E+04</pdfrwt>
<totfact> 0.75071370E-02</totfact>
</mgrwt>
</event>
<event>
 4    5  0.1112901E-007  0.7236153E+03  0.7818608E-02  0.9910538E-01
          2   -1    0    0  501    0  0.00000000000E+00  0.00000000000E+00  0.10376693867E+04  0.10376693867E+04  0.25500000000E-02 0. -1.
         -2   -1    0    0    0  501 -0.00000000000E+00 -0.00000000000E+00 -0.32244380516E+03  0.32244380517E+03  0.25500000000E-02 0.  1.
    8880023    1    1    2    0    0  0.29928806164E+03  0.15349025023E+02  0.21065435425E+03  0.75365403179E+03  0.65864270000E+03 0.  1.
    8880022    1    1    2    0    0 -0.29928806164E+03 -0.15349025023E+02  0.50457122729E+03  0.60645916007E+03  0.15294330000E+03 0.  0.
<mgrwt>
<rscale>  0 0.59753301E+03</rscale>
<asrwt>0</asrwt>
<pdfrwt beam="1">  1        2 0.15964144E+00 0.72361533E+03</pdfrwt>
<pdfrwt beam="2">  1       -2 0.49606740E-01 0.72361533E+03</pdfrwt>
<totfact> 0.93133587E+01</totfact>
</mgrwt>
</event>
<event>
 4    5  0.1112901E-007  0.6613187E+03  0.7818608E-02  0.1022844E+00
          2   -1    0    0  501    0  0.00000000000E+00  0.00000000000E+00  0.54580620200E+03  0.54580620200E+03  0.25500000000E-02 0. -1.
         -2   -1    0    0    0  501 -0.00000000000E+00 -0.00000000000E+00 -0.21157847425E+04  0.21157847425E+04  0.25500000000E-02 0.  1.
    8880023    1    1    2    0    0 -0.28721131089E+02  0.52031550514E+02 -0.20501424305E+04  0.21541648909E+04  0.65864270000E+03 0.  1.
    8880022    1    1    2    0    0  0.28721131089E+02 -0.52031550514E+02  0.48016388998E+03  0.50742605361E+03  0.15294330000E+03 0.  0.
<mgrwt>
<rscale>  0 0.46674021E+03</rscale>
<asrwt>0</asrwt>
<pdfrwt beam="1">  1        2 0.83970186E-01 0.66131868E+03</pdfrwt>
<pdfrwt beam="2">  1       -2 0.32550534E+00 0.66131868E+03</pdfrwt>
<totfact> 0.13105054E+00</totfact>
</mgrwt>
</event>
<event>
 4    5  0.1112901E-007  0.1211355E+04  0.7818608E-02  0.9146163E-01
          2   -1    0    0  501    0  0.00000000000E+00  0.00000000000E+00  0.51900797123E+04  0.51900797123E+04  0.25500000000E-02 0. -1.
         -2   -1    0    0    0  501 -0.00000000000E+00 -0.00000000000E+00 -0.13192821541E+04  0.13192821541E+04  0.25500000000E-02 0.  1.
    8880023    1    1    2    0    0  0.86124191173E+03 -0.54021590085E+03 -0.97544294926E+03  0.15552716816E+04  0.65864270000E+03 0.  1.
    8880022    1    1    2    0    0 -0.86124191173E+03  0.54021590085E+03  0.48462405074E+04  0.49540901848E+04  0.15294330000E+03 0.  0.
<mgrwt>
<rscale>  0 0.11626822E+04</rscale>
<asrwt>0</asrwt>
<pdfrwt beam="1">  1        2 0.79847378E+00 0.12113550E+04</pdfrwt>
<pdfrwt beam="2">  1       -2 0.20296649E+00 0.12113550E+04</pdfrwt>
<totfact> 0.25479536E-03</totfact>
</mgrwt>
</event>
<event>
 4    5  0.1112901E-007  0.9461970E+03  0.7818608E-02  0.9455607E-01
         -2   -1    0    0    0  501 -0.00000000000E+00  0.00000000000E+00  0.24808720414E+03  0.24808720415E+03  0.25500000000E-02 0.  1.
          2   -1    0    0  501    0  0.00000000000E+00 -0.00000000000E+00 -0.29235736667E+04  0.29235736667E+04  0.25500000000E-02 0. -1.
    8880023    1    1    2    0    0  0.67883695634E+03 -0.25671112072E+02 -0.11117120012E+04  0.14598604040E+04  0.65864270000E+03 0. -1.
    8880022    1    1    2    0    0 -0.67883695634E+03  0.25671112072E+02 -0.15637744614E+04  0.17118004669E+04  0.15294330000E+03 0.  0.
<mgrwt>
<rscale>  0 0.87637379E+03</rscale>
<asrwt>0</asrwt>
<pdfrwt beam="1">  1        2 0.44978054E+00 0.94619703E+03</pdfrwt>
<pdfrwt beam="2">  1       -2 0.38167264E-01 0.94619703E+03</pdfrwt>
<totfact> 0.12948936E+01</totfact>
</mgrwt>
</event>
<event>
 4    5  0.1112901E-007  0.7577927E+03  0.7818608E-02  0.9810856E-01
         -2   -1    0    0    0  501 -0.00000000000E+00  0.00000000000E+00  0.13974854670E+04  0.13974854670E+04  0.25500000000E-02 0.  1.
          2   -1    0    0  501    0  0.00000000000E+00 -0.00000000000E+00 -0.94404567104E+03  0.94404567104E+03  0.25500000000E-02 0. -1.
    8880023    1    1    2    0    0  0.31668540460E+03 -0.20037442202E+03  0.12421319277E+04  0.14550400292E+04  0.65864270000E+03 0.  1.
    8880022    1    1    2    0    0 -0.31668540460E+03  0.20037442202E+03 -0.78869213171E+03  0.88649110888E+03  0.15294330000E+03 0.  0.
<mgrwt>
<rscale>  0 0.64783199E+03</rscale>
<asrwt>0</asrwt>
<pdfrwt beam="1">  1        2 0.14523780E+00 0.75779269E+03</pdfrwt>
<pdfrwt beam="2">  1       -2 0.21499776E+00 0.75779269E+03</pdfrwt>
<totfact> 0.29861994E+00</totfact>
</mgrwt>
</event>
<event>
 4    5  0.1112901E-007  0.1333484E+04  0.7818608E-02  0.9037171E-01
          2   -1    0    0  501    0  0.00000000000E+00  0.00000000000E+00  0.21085348454E+04  0.21085348454E+04  0.25500000000E-02 0. -1.
         -2   -1    0    0    0  501 -0.00000000000E+00 -0.00000000000E+00 -0.10015531652E+04  0.10015531652E+04  0.25500000000E-02 0.  1.
    8880023    1    1    2    0    0 -0.12133714700E+03  0.11531027165E+04 -0.20874079049E+03  0.13497227500E+04  0.65864270000E+03 0.  0.
    8880022    1    1    2    0    0  0.12133714700E+03 -0.11531027165E+04  0.13157224706E+04  0.17603652606E+04  0.15294330000E+03 0.  0.
<mgrwt>
<rscale>  0 0.12904525E+04</rscale>
<asrwt>0</asrwt>
<pdfrwt beam="1">  1        2 0.32438997E+00 0.13334837E+04</pdfrwt>
<pdfrwt beam="2">  1       -2 0.15408510E+00 0.13334837E+04</pdfrwt>
<totfact> 0.15552367E+00</totfact>
</mgrwt>
</event>
<event>
 4    5  0.1112901E-007  0.7504270E+03  0.7818608E-02  0.9830553E-01
         -2   -1    0    0    0  501 -0.00000000000E+00  0.00000000000E+00  0.14737462979E+04  0.14737462979E+04  0.25500000000E-02 0.  1.
          2   -1    0    0  501    0  0.00000000000E+00 -0.00000000000E+00 -0.74305852570E+03  0.74305852570E+03  0.25500000000E-02 0. -1.
    8880023    1    1    2    0    0  0.22877024418E+03 -0.27747900318E+03  0.13148798928E+04  0.15139517035E+04  0.65864270000E+03 0.  1.
    8880022    1    1    2    0    0 -0.22877024418E+03  0.27747900318E+03 -0.58419212052E+03  0.70285312016E+03  0.15294330000E+03 0.  0.
<mgrwt>
<rscale>  0 0.63748365E+03</rscale>
<asrwt>0</asrwt>
<pdfrwt beam="1">  1        2 0.11431670E+00 0.75042696E+03</pdfrwt>
<pdfrwt beam="2">  1       -2 0.22673020E+00 0.75042696E+03</pdfrwt>
<totfact> 0.34907671E+00</totfact>
</mgrwt>
</event>
<event>
 4    5  0.1112901E-007  0.7109198E+03  0.7818608E-02  0.9954601E-01
         -2   -1    0    0    0  501 -0.00000000000E+00  0.00000000000E+00  0.13155341493E+03  0.13155341495E+03  0.25500000000E-02 0.  1.
          2   -1    0    0  501    0  0.00000000000E+00 -0.00000000000E+00 -0.31366551785E+04  0.31366551785E+04  0.25500000000E-02 0. -1.
    8880023    1    1    2    0    0  0.53924372425E+02  0.26208567846E+03 -0.93132191485E+03  0.11716515933E+04  0.65864270000E+03 0.  1.
    8880022    1    1    2    0    0 -0.53924372425E+02 -0.26208567846E+03 -0.20737798487E+04  0.20965570001E+04  0.15294330000E+03 0.  0.
<mgrwt>
<rscale>  0 0.57686511E+03</rscale>
<asrwt>0</asrwt>
<pdfrwt beam="1">  1        2 0.48256228E+00 0.71091979E+03</pdfrwt>
<pdfrwt beam="2">  1       -2 0.20238989E-01 0.71091979E+03</pdfrwt>
<totfact> 0.31827552E+01</totfact>
</mgrwt>
</event>
<event>
 4    5  0.1112901E-007  0.9783975E+03  0.7818608E-02  0.9410383E-01
         -2   -1    0    0    0  501 -0.00000000000E+00  0.00000000000E+00  0.15663626569E+04  0.15663626569E+04  0.25500000000E-02 0.  1.
          2   -1    0    0  501    0  0.00000000000E+00 -0.00000000000E+00 -0.21616035560E+04  0.21616035560E+04  0.25500000000E-02 0. -1.
    8880023    1    1    2    0    0  0.66076911048E+03  0.29467872682E+03  0.13383215266E+04  0.16578196779E+04  0.65864270000E+03 0.  0.
    8880022    1    1    2    0    0 -0.66076911048E+03 -0.29467872682E+03 -0.19335624257E+04  0.20701465351E+04  0.15294330000E+03 0.  0.
<mgrwt>
<rscale>  0 0.91226144E+03</rscale>
<asrwt>0</asrwt>
<pdfrwt beam="1">  1        2 0.33255439E+00 0.97839745E+03</pdfrwt>
<pdfrwt beam="2">  1       -2 0.24097887E+00 0.97839745E+03</pdfrwt>
<totfact> 0.39974003E-01</totfact>
</mgrwt>
</event>
<event>
 4    5  0.1112901E-007  0.1605559E+04  0.7818608E-02  0.8838483E-01
          2   -1    0    0  501    0  0.00000000000E+00  0.00000000000E+00  0.45847592915E+04  0.45847592915E+04  0.25500000000E-02 0. -1.
         -2   -1    0    0    0  501 -0.00000000000E+00 -0.00000000000E+00 -0.63209705972E+03  0.63209705972E+03  0.25500000000E-02 0.  1.
    8880023    1    1    2    0    0 -0.14602769014E+04  0.10770780997E+03  0.93182684051E+03  0.18563730950E+04  0.65864270000E+03 0.  0.
    8880022    1    1    2    0    0  0.14602769014E+04 -0.10770780997E+03  0.30208353913E+04  0.33604832562E+04  0.15294330000E+03 0.  0.
<mgrwt>
<rscale>  0 0.15711300E+04</rscale>
<asrwt>0</asrwt>
<pdfrwt beam="1">  1        2 0.70534757E+00 0.16055590E+04</pdfrwt>
<pdfrwt beam="2">  1       -2 0.97245703E-01 0.16055590E+04</pdfrwt>
<totfact> 0.86559926E-02</totfact>
</mgrwt>
</event>
<event>
 4    5  0.1112901E-007  0.7692242E+03  0.7818608E-02  0.9781787E-01
         -2   -1    0    0    0  501 -0.00000000000E+00  0.00000000000E+00  0.30926352671E+03  0.30926352672E+03  0.25500000000E-02 0.  1.
          2   -1    0    0  501    0  0.00000000000E+00 -0.00000000000E+00 -0.27014318819E+04  0.27014318819E+04  0.25500000000E-02 0. -1.
    8880023    1    1    2    0    0  0.38872953306E+03 -0.82371457737E+02 -0.22408463366E+03  0.80119899915E+03  0.65864270000E+03 0.  1.
    8880022    1    1    2    0    0 -0.38872953306E+03  0.82371457737E+02 -0.21680837215E+04  0.22094964094E+04  0.15294330000E+03 0.  0.
<mgrwt>
<rscale>  0 0.66349195E+03</rscale>
<asrwt>0</asrwt>
<pdfrwt beam="1">  1        2 0.41560489E+00 0.76922423E+03</pdfrwt>
<pdfrwt beam="2">  1       -2 0.47579006E-01 0.76922423E+03</pdfrwt>
<totfact> 0.11652768E+01</totfact>
</mgrwt>
</event>
<event>
 4    5  0.1112901E-007  0.7751720E+03  0.7818608E-02  0.9767303E-01
          2   -1    0    0  501    0  0.00000000000E+00  0.00000000000E+00  0.15517747805E+04  0.15517747805E+04  0.25500000000E-02 0. -1.
         -2   -1    0    0    0  501 -0.00000000000E+00 -0.00000000000E+00 -0.64396676897E+03  0.64396676898E+03  0.25500000000E-02 0.  1.
    8880023    1    1    2    0    0 -0.36117798658E+03 -0.19139453209E+03 -0.36016759665E+03  0.85475862607E+03  0.65864270000E+03 0.  1.
    8880022    1    1    2    0    0  0.36117798658E+03  0.19139453209E+03  0.12679756081E+04  0.13409829234E+04  0.15294330000E+03 0.  0.
<mgrwt>
<rscale>  0 0.67147175E+03</rscale>
<asrwt>0</asrwt>
<pdfrwt beam="1">  1        2 0.23873458E+00 0.77517199E+03</pdfrwt>
<pdfrwt beam="2">  1       -2 0.99071812E-01 0.77517199E+03</pdfrwt>
<totfact> 0.10244554E+01</totfact>
</mgrwt>
</event>
<event>
 4    5  0.1112901E-007  0.9440061E+03  0.7818608E-02  0.9458791E-01
          2   -1    0    0  501    0  0.00000000000E+00  0.00000000000E+00  0.32251512544E+04  0.32251512544E+04  0.25500000000E-02 0. -1.
         -2   -1    0    0    0  501 -0.00000000000E+00 -0.00000000000E+00 -0.31281858727E+03  0.31281858728E+03  0.25500000000E-02 0.  1.
    8880023    1    1    2    0    0 -0.58025553894E+01 -0.67624229705E+03  0.58736678877E+03  0.11118215976E+04  0.65864270000E+03 0.  0.
    8880022    1    1    2    0    0  0.58025553894E+01  0.67624229705E+03  0.23249658784E+04  0.24261482441E+04  0.15294330000E+03 0.  0.
<mgrwt>
<rscale>  0 0.87391388E+03</rscale>
<asrwt>0</asrwt>
<pdfrwt beam="1">  1        2 0.49617710E+00 0.94400610E+03</pdfrwt>
<pdfrwt beam="2">  1       -2 0.48125938E-01 0.94400610E+03</pdfrwt>
<totfact> 0.52997097E+00</totfact>
</mgrwt>
</event>
