<event>
 4    1  0.1437859E-001  0.9423069E+02  0.7546771E-02  0.1292918E+00
         -2   -1    0    0    0  501 -0.00000000000E+00  0.00000000000E+00  0.82965022483E+01  0.82965022483E+01  0.00000000000E+00 0.  1.
          2   -1    0    0  501    0  0.00000000000E+00 -0.00000000000E+00 -0.12142754702E+04  0.12142754702E+04  0.00000000000E+00 0. -1.
         24    1    1    2    0    0  0.46264939240E+02  0.16485198798E+02 -0.81350735874E+03  0.81894666801E+03  0.80419002446E+02 0.  0.
        -24    1    1    2    0    0 -0.46264939240E+02 -0.16485198798E+02 -0.39247160917E+03  0.40362530439E+03  0.80419002446E+02 0.  1.
<mgrwt>
<rscale>  0 0.94230687E+02</rscale>
<asrwt>0</asrwt>
<pdfrwt beam="1">  1        2 0.18681153E+00 0.94230687E+02</pdfrwt>
<pdfrwt beam="2">  1       -2 0.12763855E-02 0.94230687E+02</pdfrwt>
<totfact> 0.27122614E+04</totfact>
</mgrwt>
</event>
<event>
 4    1  0.1437859E-001  0.9206259E+02  0.7546771E-02  0.1297932E+00
          2   -1    0    0  501    0  0.00000000000E+00  0.00000000000E+00  0.26087271005E+02  0.26087271005E+02  0.00000000000E+00 0. -1.
         -2   -1    0    0    0  501 -0.00000000000E+00 -0.00000000000E+00 -0.96684911406E+03  0.96684911406E+03  0.00000000000E+00 0.  1.
         24    1    1    2    0    0 -0.22584390966E+02 -0.38707232099E+02 -0.65837249651E+02  0.11318155295E+03  0.80419002446E+02 0. -1.
        -24    1    1    2    0    0  0.22584390966E+02  0.38707232099E+02 -0.87492459340E+03  0.87975483211E+03  0.80419002446E+02 0. -1.
<mgrwt>
<rscale>  0 0.92062590E+02</rscale>
<asrwt>0</asrwt>
<pdfrwt beam="1">  1        2 0.40134266E-02 0.92062590E+02</pdfrwt>
<pdfrwt beam="2">  1       -2 0.14874601E+00 0.92062590E+02</pdfrwt>
<totfact> 0.65434237E+02</totfact>
</mgrwt>
</event>
<event>
 4    1  0.1437859E-001  0.8939637E+02  0.7546771E-02  0.1304320E+00
         -1   -1    0    0    0  501 -0.00000000000E+00  0.00000000000E+00  0.13460560198E+03  0.13460560198E+03  0.00000000000E+00 0.  1.
          1   -1    0    0  501    0  0.00000000000E+00 -0.00000000000E+00 -0.72091981852E+02  0.72091981852E+02  0.00000000000E+00 0. -1.
         24    1    1    2    0    0 -0.16507843277E+01  0.39009871757E+02  0.74669522308E+02  0.11647853321E+03  0.80419002446E+02 0.  1.
        -24    1    1    2    0    0  0.16507843277E+01 -0.39009871757E+02 -0.12155902176E+02  0.90219050624E+02  0.80419002446E+02 0. -1.
<mgrwt>
<rscale>  0 0.89396371E+02</rscale>
<asrwt>0</asrwt>
<pdfrwt beam="1">  1        1 0.11091074E-01 0.89396371E+02</pdfrwt>
<pdfrwt beam="2">  1       -1 0.20708554E-01 0.89396371E+02</pdfrwt>
<totfact> 0.96162298E+03</totfact>
</mgrwt>
</event>
<event>
 4    1  0.1437859E-001  0.1453990E+03  0.7546771E-02  0.1206243E+00
         -1   -1    0    0    0  501 -0.00000000000E+00  0.00000000000E+00  0.40164490016E+02  0.40164490016E+02  0.00000000000E+00 0.  1.
          1   -1    0    0  501    0  0.00000000000E+00 -0.00000000000E+00 -0.98306623699E+03  0.98306623699E+03  0.00000000000E+00 0. -1.
         24    1    1    2    0    0 -0.11977302982E+03 -0.18112798689E+02 -0.12273477698E+03  0.19027530997E+03  0.80419002446E+02 0.  1.
        -24    1    1    2    0    0  0.11977302982E+03  0.18112798689E+02 -0.82016696999E+03  0.83295541703E+03  0.80419002446E+02 0. -1.
<mgrwt>
<rscale>  0 0.14539900E+03</rscale>
<asrwt>0</asrwt>
<pdfrwt beam="1">  1        1 0.15124095E+00 0.14539900E+03</pdfrwt>
<pdfrwt beam="2">  1       -1 0.61791525E-02 0.14539900E+03</pdfrwt>
<totfact> 0.20875780E+03</totfact>
</mgrwt>
</event>
<event>
 4    1  0.1437859E-001  0.9964185E+02  0.7546771E-02  0.1281051E+00
         -2   -1    0    0    0  501 -0.00000000000E+00  0.00000000000E+00  0.35657748749E+02  0.35657748749E+02  0.00000000000E+00 0.  1.
          2   -1    0    0  501    0  0.00000000000E+00 -0.00000000000E+00 -0.27850448695E+03  0.27850448695E+03  0.00000000000E+00 0. -1.
         24    1    1    2    0    0  0.67943349649E+01 -0.58438982723E+02 -0.11900731129E+03  0.15521351032E+03  0.80419002446E+02 0.  0.
        -24    1    1    2    0    0 -0.67943349649E+01  0.58438982723E+02 -0.12383942691E+03  0.15894872538E+03  0.80419002446E+02 0.  1.
<mgrwt>
<rscale>  0 0.99641839E+02</rscale>
<asrwt>0</asrwt>
<pdfrwt beam="1">  1        2 0.42846846E-01 0.99641852E+02</pdfrwt>
<pdfrwt beam="2">  1       -2 0.54858073E-02 0.99641852E+02</pdfrwt>
<totfact> 0.18278851E+04</totfact>
</mgrwt>
</event>
<event>
 4    1  0.1437859E-001  0.9310801E+02  0.7546771E-02  0.1295495E+00
         -2   -1    0    0    0  501 -0.00000000000E+00  0.00000000000E+00  0.12588158490E+03  0.12588158490E+03  0.00000000000E+00 0.  1.
          2   -1    0    0  501    0  0.00000000000E+00 -0.00000000000E+00 -0.28751542000E+03  0.28751542000E+03  0.00000000000E+00 0. -1.
         24    1    1    2    0    0 -0.37785406216E+02  0.27823528625E+02 -0.26106880312E+03  0.27717507389E+03  0.80419002446E+02 0. -1.
        -24    1    1    2    0    0  0.37785406216E+02 -0.27823528625E+02  0.99434968025E+02  0.13622193101E+03  0.80419002446E+02 0.  1.
<mgrwt>
<rscale>  0 0.93108011E+02</rscale>
<asrwt>0</asrwt>
<pdfrwt beam="1">  1        2 0.44233141E-01 0.93108011E+02</pdfrwt>
<pdfrwt beam="2">  1       -2 0.19366398E-01 0.93108011E+02</pdfrwt>
<totfact> 0.24320319E+03</totfact>
</mgrwt>
</event>
<event>
 4    1  0.1437859E-001  0.1118284E+03  0.7546771E-02  0.1257221E+00
         -2   -1    0    0    0  501 -0.00000000000E+00  0.00000000000E+00  0.27707795021E+02  0.27707795021E+02  0.00000000000E+00 0.  1.
          2   -1    0    0  501    0  0.00000000000E+00 -0.00000000000E+00 -0.65811960541E+03  0.65811960541E+03  0.00000000000E+00 0. -1.
         24    1    1    2    0    0  0.77705977809E+02 -0.39501035194E+00 -0.50742122015E+03  0.51959781142E+03  0.80419002446E+02 0. -1.
        -24    1    1    2    0    0 -0.77705977809E+02  0.39501035194E+00 -0.12299059023E+03  0.16622958901E+03  0.80419002446E+02 0.  1.
<mgrwt>
<rscale>  0 0.11182840E+03</rscale>
<asrwt>0</asrwt>
<pdfrwt beam="1">  1        2 0.10124918E+00 0.11182840E+03</pdfrwt>
<pdfrwt beam="2">  1       -2 0.42627374E-02 0.11182840E+03</pdfrwt>
<totfact> 0.10637201E+04</totfact>
</mgrwt>
</event>
<event>
 4    1  0.1437859E-001  0.8230138E+02  0.7546771E-02  0.1322644E+00
          1   -1    0    0  501    0  0.00000000000E+00  0.00000000000E+00  0.91665505938E+03  0.91665505938E+03  0.00000000000E+00 0. -1.
         -1   -1    0    0    0  501 -0.00000000000E+00 -0.00000000000E+00 -0.89830160298E+01  0.89830160298E+01  0.00000000000E+00 0.  1.
         24    1    1    2    0    0  0.16778542055E+02 -0.49781478567E+01  0.25889915507E+03  0.27166576869E+03  0.80419002446E+02 0.  1.
        -24    1    1    2    0    0 -0.16778542055E+02  0.49781478567E+01  0.64877288829E+03  0.65397230673E+03  0.80419002446E+02 0. -1.
<mgrwt>
<rscale>  0 0.82301381E+02</rscale>
<asrwt>0</asrwt>
<pdfrwt beam="1">  1        1 0.14102378E+00 0.82301381E+02</pdfrwt>
<pdfrwt beam="2">  1       -1 0.13820032E-02 0.82301381E+02</pdfrwt>
<totfact> 0.19870524E+04</totfact>
</mgrwt>
</event>
<event>
 4    1  0.1437859E-001  0.8591754E+02  0.7546771E-02  0.1313050E+00
          2   -1    0    0  501    0  0.00000000000E+00  0.00000000000E+00  0.50471361122E+03  0.50471361122E+03  0.00000000000E+00 0. -1.
         -2   -1    0    0    0  501 -0.00000000000E+00 -0.00000000000E+00 -0.16767138403E+02  0.16767138403E+02  0.00000000000E+00 0.  1.
         24    1    1    2    0    0  0.30015625416E+02 -0.36968449390E+01  0.15079264300E+03  0.17355184115E+03  0.80419002446E+02 0. -1.
        -24    1    1    2    0    0 -0.30015625416E+02  0.36968449390E+01  0.33715382982E+03  0.34792890847E+03  0.80419002446E+02 0. -1.
<mgrwt>
<rscale>  0 0.85917532E+02</rscale>
<asrwt>0</asrwt>
<pdfrwt beam="1">  1        2 0.77648236E-01 0.85917542E+02</pdfrwt>
<pdfrwt beam="2">  1       -2 0.25795601E-02 0.85917542E+02</pdfrwt>
<totfact> 0.29100281E+04</totfact>
</mgrwt>
</event>
<event>
 4    1  0.1437859E-001  0.9477837E+02  0.7546771E-02  0.1291676E+00
         -3   -1    0    0    0  501 -0.00000000000E+00  0.00000000000E+00  0.23670738851E+03  0.23670738851E+03  0.00000000000E+00 0.  1.
          3   -1    0    0  501    0  0.00000000000E+00 -0.00000000000E+00 -0.39415187334E+02  0.39415187334E+02  0.00000000000E+00 0. -1.
         24    1    1    2    0    0  0.21699111414E+01  0.50110036236E+02  0.12526882848E+03  0.15708347968E+03  0.80419002446E+02 0.  1.
        -24    1    1    2    0    0 -0.21699111414E+01 -0.50110036236E+02  0.72023372690E+02  0.11903909616E+03  0.80419002446E+02 0. -1.
<mgrwt>
<rscale>  0 0.94778374E+02</rscale>
<asrwt>0</asrwt>
<pdfrwt beam="1">  1        3 0.60638751E-02 0.94778374E+02</pdfrwt>
<pdfrwt beam="2">  1       -3 0.36416520E-01 0.94778374E+02</pdfrwt>
<totfact> 0.26570739E+03</totfact>
</mgrwt>
</event>
<event>
 4    1  0.1437859E-001  0.8379381E+02  0.7546771E-02  0.1318617E+00
         -2   -1    0    0    0  501 -0.00000000000E+00  0.00000000000E+00  0.11597740556E+02  0.11597740556E+02  0.00000000000E+00 0.  1.
          2   -1    0    0  501    0  0.00000000000E+00 -0.00000000000E+00 -0.62485112633E+03  0.62485112633E+03  0.00000000000E+00 0. -1.
         24    1    1    2    0    0  0.23013128711E+02  0.49576472123E+01 -0.25049655257E+03  0.26413996510E+03  0.80419002446E+02 0. -1.
        -24    1    1    2    0    0 -0.23013128711E+02 -0.49576472123E+01 -0.36275683320E+03  0.37230890179E+03  0.80419002446E+02 0.  1.
<mgrwt>
<rscale>  0 0.83793795E+02</rscale>
<asrwt>0</asrwt>
<pdfrwt beam="1">  1        2 0.96130933E-01 0.83793805E+02</pdfrwt>
<pdfrwt beam="2">  1       -2 0.17842680E-02 0.83793805E+02</pdfrwt>
<totfact> 0.38951564E+04</totfact>
</mgrwt>
</event>
<event>
 4    1  0.1437859E-001  0.1140555E+03  0.7546771E-02  0.1253239E+00
          1   -1    0    0  501    0  0.00000000000E+00  0.00000000000E+00  0.10671488649E+03  0.10671488649E+03  0.00000000000E+00 0. -1.
         -1   -1    0    0    0  501 -0.00000000000E+00 -0.00000000000E+00 -0.41792290392E+03  0.41792290392E+03  0.00000000000E+00 0.  1.
         24    1    1    2    0    0  0.74214970976E+02 -0.32149206541E+02 -0.37637572090E+03  0.39327767879E+03  0.80419002446E+02 0.  1.
        -24    1    1    2    0    0 -0.74214970976E+02  0.32149206541E+02  0.65167703463E+02  0.13136011163E+03  0.80419002446E+02 0. -1.
<mgrwt>
<rscale>  0 0.11405547E+03</rscale>
<asrwt>0</asrwt>
<pdfrwt beam="1">  1        1 0.16417675E-01 0.11405547E+03</pdfrwt>
<pdfrwt beam="2">  1       -1 0.64295832E-01 0.11405547E+03</pdfrwt>
<totfact> 0.82962757E+02</totfact>
</mgrwt>
</event>
<event>
 4    1  0.1437859E-001  0.1204598E+03  0.7546771E-02  0.1242340E+00
         -2   -1    0    0    0  501 -0.00000000000E+00  0.00000000000E+00  0.12051066418E+02  0.12051066418E+02  0.00000000000E+00 0.  1.
          2   -1    0    0  501    0  0.00000000000E+00 -0.00000000000E+00 -0.16698003041E+04  0.16698003041E+04  0.00000000000E+00 0. -1.
         24    1    1    2    0    0 -0.36674717580E+02 -0.81843258512E+02 -0.12729771255E+04  0.12786638854E+04  0.80419002446E+02 0. -1.
        -24    1    1    2    0    0  0.36674717580E+02  0.81843258512E+02 -0.38477211219E+03  0.40318748511E+03  0.80419002446E+02 0.  1.
<mgrwt>
<rscale>  0 0.12045983E+03</rscale>
<asrwt>0</asrwt>
<pdfrwt beam="1">  1        2 0.25689223E+00 0.12045983E+03</pdfrwt>
<pdfrwt beam="2">  1       -2 0.18540111E-02 0.12045983E+03</pdfrwt>
<totfact> 0.93340501E+03</totfact>
</mgrwt>
</event>
<event>
 4    1  0.1437859E-001  0.9667609E+02  0.7546771E-02  0.1287445E+00
          3   -1    0    0  501    0  0.00000000000E+00  0.00000000000E+00  0.23581520605E+03  0.23581520605E+03  0.00000000000E+00 0. -1.
         -3   -1    0    0    0  501 -0.00000000000E+00 -0.00000000000E+00 -0.41549671508E+02  0.41549671508E+02  0.00000000000E+00 0.  1.
         24    1    1    2    0    0  0.51358568643E+02 -0.15535366983E+02  0.67353472951E+02  0.11782510969E+03  0.80419002446E+02 0.  1.
        -24    1    1    2    0    0 -0.51358568643E+02  0.15535366983E+02  0.12691206160E+03  0.15953976787E+03  0.80419002446E+02 0. -1.
<mgrwt>
<rscale>  0 0.96676089E+02</rscale>
<asrwt>0</asrwt>
<pdfrwt beam="1">  1        3 0.36279262E-01 0.96676089E+02</pdfrwt>
<pdfrwt beam="2">  1       -3 0.63922573E-02 0.96676089E+02</pdfrwt>
<totfact> 0.24714500E+03</totfact>
</mgrwt>
</event>
<event>
 4    1  0.1437859E-001  0.1078047E+03  0.7546771E-02  0.1264690E+00
         -2   -1    0    0    0  501 -0.00000000000E+00  0.00000000000E+00  0.10498887072E+02  0.10498887072E+02  0.00000000000E+00 0.  1.
          2   -1    0    0  501    0  0.00000000000E+00 -0.00000000000E+00 -0.11445508885E+04  0.11445508885E+04  0.00000000000E+00 0. -1.
         24    1    1    2    0    0  0.48971920545E+02  0.52501320589E+02 -0.67168856531E+03  0.68028478036E+03  0.80419002446E+02 0. -1.
        -24    1    1    2    0    0 -0.48971920545E+02 -0.52501320589E+02 -0.46236343608E+03  0.47476499518E+03  0.80419002446E+02 0.  1.
<mgrwt>
<rscale>  0 0.10780470E+03</rscale>
<asrwt>0</asrwt>
<pdfrwt beam="1">  1        2 0.17608464E+00 0.10780470E+03</pdfrwt>
<pdfrwt beam="2">  1       -2 0.16152144E-02 0.10780470E+03</pdfrwt>
<totfact> 0.21393003E+04</totfact>
</mgrwt>
</event>
<event>
 4    1  0.1437859E-001  0.1226151E+03  0.7546771E-02  0.1238844E+00
         -1   -1    0    0    0  501 -0.00000000000E+00  0.00000000000E+00  0.15943000665E+03  0.15943000665E+03  0.00000000000E+00 0.  1.
          1   -1    0    0  501    0  0.00000000000E+00 -0.00000000000E+00 -0.97151268166E+02  0.97151268166E+02  0.00000000000E+00 0. -1.
         24    1    1    2    0    0 -0.76021418933E+02  0.52801408536E+02  0.53112343320E+02  0.13362403170E+03  0.80419002446E+02 0. -1.
        -24    1    1    2    0    0  0.76021418933E+02 -0.52801408536E+02  0.91663951611E+01  0.12295724312E+03  0.80419002446E+02 0.  1.
<mgrwt>
<rscale>  0 0.12261509E+03</rscale>
<asrwt>0</asrwt>
<pdfrwt beam="1">  1        1 0.14946349E-01 0.12261509E+03</pdfrwt>
<pdfrwt beam="2">  1       -1 0.24527693E-01 0.12261509E+03</pdfrwt>
<totfact> 0.50989595E+03</totfact>
</mgrwt>
</event>
<event>
 4    1  0.1437859E-001  0.8607365E+02  0.7546771E-02  0.1312648E+00
         -2   -1    0    0    0  501 -0.00000000000E+00  0.00000000000E+00  0.14853275808E+02  0.14853275808E+02  0.00000000000E+00 0.  1.
          2   -1    0    0  501    0  0.00000000000E+00 -0.00000000000E+00 -0.88620733567E+03  0.88620733567E+03  0.00000000000E+00 0. -1.
         24    1    1    2    0    0 -0.26256543848E+00 -0.30682050558E+02 -0.73355993101E+03  0.73859247593E+03  0.80419002446E+02 0. -1.
        -24    1    1    2    0    0  0.26256543848E+00  0.30682050558E+02 -0.13779412886E+03  0.16246813555E+03  0.80419002446E+02 0.  1.
<mgrwt>
<rscale>  0 0.86073649E+02</rscale>
<asrwt>0</asrwt>
<pdfrwt beam="1">  1        2 0.13633961E+00 0.86073649E+02</pdfrwt>
<pdfrwt beam="2">  1       -2 0.22851190E-02 0.86073649E+02</pdfrwt>
<totfact> 0.18071721E+04</totfact>
</mgrwt>
</event>
<event>
 4    1  0.1437859E-001  0.1174089E+03  0.7546771E-02  0.1247434E+00
         -2   -1    0    0    0  501 -0.00000000000E+00  0.00000000000E+00  0.30671942867E+02  0.30671942867E+02  0.00000000000E+00 0.  1.
          2   -1    0    0  501    0  0.00000000000E+00 -0.00000000000E+00 -0.76641172030E+03  0.76641172030E+03  0.00000000000E+00 0. -1.
         24    1    1    2    0    0  0.74537885706E+02 -0.41973134608E+02 -0.62417704487E+03  0.63512348385E+03  0.80419002446E+02 0. -1.
        -24    1    1    2    0    0 -0.74537885706E+02  0.41973134608E+02 -0.11156273256E+03  0.16196017932E+03  0.80419002446E+02 0.  1.
<mgrwt>
<rscale>  0 0.11740893E+03</rscale>
<asrwt>0</asrwt>
<pdfrwt beam="1">  1        2 0.11790949E+00 0.11740893E+03</pdfrwt>
<pdfrwt beam="2">  1       -2 0.47187606E-02 0.11740893E+03</pdfrwt>
<totfact> 0.76586801E+03</totfact>
</mgrwt>
</event>
<event>
 4    1  0.1437859E-001  0.9131538E+02  0.7546771E-02  0.1299697E+00
         -1   -1    0    0    0  501 -0.00000000000E+00  0.00000000000E+00  0.12546885860E+02  0.12546885860E+02  0.00000000000E+00 0.  1.
          1   -1    0    0  501    0  0.00000000000E+00 -0.00000000000E+00 -0.72641760410E+03  0.72641760410E+03  0.00000000000E+00 0. -1.
         24    1    1    2    0    0  0.34141917090E+01  0.43123370979E+02 -0.24913952334E+03  0.26534694246E+03  0.80419002446E+02 0.  1.
        -24    1    1    2    0    0 -0.34141917090E+01 -0.43123370979E+02 -0.46473119490E+03  0.47361754750E+03  0.80419002446E+02 0. -1.
<mgrwt>
<rscale>  0 0.91315375E+02</rscale>
<asrwt>0</asrwt>
<pdfrwt beam="1">  1        1 0.11175656E+00 0.91315375E+02</pdfrwt>
<pdfrwt beam="2">  1       -1 0.19302901E-02 0.91315375E+02</pdfrwt>
<totfact> 0.17677384E+04</totfact>
</mgrwt>
</event>
<event>
 4    1  0.1437859E-001  0.1122741E+03  0.7546771E-02  0.1256416E+00
          1   -1    0    0  501    0  0.00000000000E+00  0.00000000000E+00  0.68005127730E+03  0.68005127730E+03  0.00000000000E+00 0. -1.
         -1   -1    0    0    0  501 -0.00000000000E+00 -0.00000000000E+00 -0.32120472587E+02  0.32120472587E+02  0.00000000000E+00 0.  1.
         24    1    1    2    0    0 -0.49272712950E+02  0.60913477049E+02  0.92394336268E+02  0.14540351184E+03  0.80419002446E+02 0.  1.
        -24    1    1    2    0    0  0.49272712950E+02 -0.60913477049E+02  0.55553646844E+03  0.56676823804E+03  0.80419002446E+02 0. -1.
<mgrwt>
<rscale>  0 0.11227407E+03</rscale>
<asrwt>0</asrwt>
<pdfrwt beam="1">  1        1 0.10462326E+00 0.11227407E+03</pdfrwt>
<pdfrwt beam="2">  1       -1 0.49416117E-02 0.11227407E+03</pdfrwt>
<totfact> 0.50548686E+03</totfact>
</mgrwt>
</event>
<event>
 4    1  0.1437859E-001  0.9003787E+02  0.7546771E-02  0.1302760E+00
         -2   -1    0    0    0  501 -0.00000000000E+00  0.00000000000E+00  0.35254755035E+01  0.35254755035E+01  0.00000000000E+00 0.  1.
          2   -1    0    0  501    0  0.00000000000E+00 -0.00000000000E+00 -0.23784554803E+04  0.23784554803E+04  0.00000000000E+00 0. -1.
         24    1    1    2    0    0 -0.80198453804E+01 -0.39689847861E+02 -0.14044661720E+04  0.14073492979E+04  0.80419002446E+02 0. -1.
        -24    1    1    2    0    0  0.80198453804E+01  0.39689847861E+02 -0.97046383277E+03  0.97463165792E+03  0.80419002446E+02 0.  1.
<mgrwt>
<rscale>  0 0.90037869E+02</rscale>
<asrwt>0</asrwt>
<pdfrwt beam="1">  1        2 0.36591616E+00 0.90037869E+02</pdfrwt>
<pdfrwt beam="2">  1       -2 0.54238095E-03 0.90037869E+02</pdfrwt>
<totfact> 0.23036583E+04</totfact>
</mgrwt>
</event>
<event>
 4    1  0.1437859E-001  0.8750792E+02  0.7546771E-02  0.1309001E+00
         -1   -1    0    0    0  501 -0.00000000000E+00  0.00000000000E+00  0.10092719956E+03  0.10092719956E+03  0.00000000000E+00 0.  1.
          1   -1    0    0  501    0  0.00000000000E+00 -0.00000000000E+00 -0.10666903578E+03  0.10666903578E+03  0.00000000000E+00 0. -1.
         24    1    1    2    0    0 -0.33002810689E+02  0.10061558379E+02  0.52901388756E+02  0.10225552971E+03  0.80419002446E+02 0.  1.
        -24    1    1    2    0    0  0.33002810689E+02 -0.10061558379E+02 -0.58643224980E+02  0.10534070562E+03  0.80419002446E+02 0. -1.
<mgrwt>
<rscale>  0 0.87507922E+02</rscale>
<asrwt>0</asrwt>
<pdfrwt beam="1">  1        1 0.16410621E-01 0.87507922E+02</pdfrwt>
<pdfrwt beam="2">  1       -1 0.15527262E-01 0.87507922E+02</pdfrwt>
<totfact> 0.91183430E+03</totfact>
</mgrwt>
</event>
<event>
 4    1  0.1437859E-001  0.9656301E+02  0.7546771E-02  0.1287694E+00
         -3   -1    0    0    0  501 -0.00000000000E+00  0.00000000000E+00  0.13611856908E+03  0.13611856908E+03  0.00000000000E+00 0.  1.
          3   -1    0    0  501    0  0.00000000000E+00 -0.00000000000E+00 -0.71161992561E+02  0.71161992561E+02  0.00000000000E+00 0. -1.
         24    1    1    2    0    0  0.53448968304E+02  0.63821266065E+00  0.52515255560E+02  0.10991936840E+03  0.80419002446E+02 0.  1.
        -24    1    1    2    0    0 -0.53448968304E+02 -0.63821266065E+00  0.12441320960E+02  0.97361193243E+02  0.80419002446E+02 0. -1.
<mgrwt>
<rscale>  0 0.96563013E+02</rscale>
<asrwt>0</asrwt>
<pdfrwt beam="1">  1        3 0.10947999E-01 0.96563013E+02</pdfrwt>
<pdfrwt beam="2">  1       -3 0.20941318E-01 0.96563013E+02</pdfrwt>
<totfact> 0.28042257E+03</totfact>
</mgrwt>
</event>
<event>
 4    1  0.1437859E-001  0.1194102E+03  0.7546771E-02  0.1244073E+00
          2   -1    0    0  501    0  0.00000000000E+00  0.00000000000E+00  0.62430648285E+02  0.62430648285E+02  0.00000000000E+00 0. -1.
         -2   -1    0    0    0  501 -0.00000000000E+00 -0.00000000000E+00 -0.26002643129E+03  0.26002643129E+03  0.00000000000E+00 0.  1.
         24    1    1    2    0    0  0.56799842360E+02  0.67567454512E+02 -0.15503176225E+03  0.19568762419E+03  0.80419002446E+02 0.  1.
        -24    1    1    2    0    0 -0.56799842360E+02 -0.67567454512E+02 -0.42564020759E+02  0.12676945539E+03  0.80419002446E+02 0. -1.
<mgrwt>
<rscale>  0 0.11941023E+03</rscale>
<asrwt>0</asrwt>
<pdfrwt beam="1">  1        2 0.96047152E-02 0.11941024E+03</pdfrwt>
<pdfrwt beam="2">  1       -2 0.40004066E-01 0.11941024E+03</pdfrwt>
<totfact> 0.38035267E+03</totfact>
</mgrwt>
</event>
<event>
 4    1  0.1437859E-001  0.9295586E+02  0.7546771E-02  0.1295848E+00
         -1   -1    0    0    0  501 -0.00000000000E+00  0.00000000000E+00  0.17390996837E+03  0.17390996837E+03  0.00000000000E+00 0.  1.
          1   -1    0    0  501    0  0.00000000000E+00 -0.00000000000E+00 -0.23943302274E+03  0.23943302274E+03  0.00000000000E+00 0. -1.
         24    1    1    2    0    0 -0.32414807088E+02 -0.33509037575E+02  0.15122104970E+03  0.17750661155E+03  0.80419002446E+02 0.  1.
        -24    1    1    2    0    0  0.32414807088E+02  0.33509037575E+02 -0.21674410407E+03  0.23583637956E+03  0.80419002446E+02 0. -1.
<mgrwt>
<rscale>  0 0.92955857E+02</rscale>
<asrwt>0</asrwt>
<pdfrwt beam="1">  1        1 0.36835849E-01 0.92955857E+02</pdfrwt>
<pdfrwt beam="2">  1       -1 0.26755380E-01 0.92955857E+02</pdfrwt>
<totfact> 0.14097137E+03</totfact>
</mgrwt>
</event>
<event>
 4    1  0.1437859E-001  0.9707585E+02  0.7546771E-02  0.1286568E+00
         -2   -1    0    0    0  501 -0.00000000000E+00  0.00000000000E+00  0.83566256581E+01  0.83566256581E+01  0.00000000000E+00 0.  1.
          2   -1    0    0  501    0  0.00000000000E+00 -0.00000000000E+00 -0.14579582902E+04  0.14579582902E+04  0.00000000000E+00 0. -1.
         24    1    1    2    0    0  0.14806042842E+02  0.52319070502E+02 -0.10737444423E+04  0.10781237625E+04  0.80419002446E+02 0.  0.
        -24    1    1    2    0    0 -0.14806042842E+02 -0.52319070502E+02 -0.37585722221E+03  0.38819115328E+03  0.80419002446E+02 0.  0.
<mgrwt>
<rscale>  0 0.97075847E+02</rscale>
<asrwt>0</asrwt>
<pdfrwt beam="1">  1        2 0.22430168E+00 0.97075847E+02</pdfrwt>
<pdfrwt beam="2">  1       -2 0.12856324E-02 0.97075847E+02</pdfrwt>
<totfact> 0.20020460E+04</totfact>
</mgrwt>
</event>
<event>
 4    1  0.1437859E-001  0.8878045E+02  0.7546771E-02  0.1305832E+00
         -2   -1    0    0    0  501 -0.00000000000E+00  0.00000000000E+00  0.62876029256E+01  0.62876029256E+01  0.00000000000E+00 0.  1.
          2   -1    0    0  501    0  0.00000000000E+00 -0.00000000000E+00 -0.20278237416E+04  0.20278237416E+04  0.00000000000E+00 0. -1.
         24    1    1    2    0    0 -0.17640835098E+02  0.33219763421E+02 -0.16392177491E+04  0.16416201743E+04  0.80419002446E+02 0.  0.
        -24    1    1    2    0    0  0.17640835098E+02 -0.33219763421E+02 -0.38231838956E+03  0.39249117021E+03  0.80419002446E+02 0.  1.
<mgrwt>
<rscale>  0 0.88780447E+02</rscale>
<asrwt>0</asrwt>
<pdfrwt beam="1">  1        2 0.31197272E+00 0.88780447E+02</pdfrwt>
<pdfrwt beam="2">  1       -2 0.96732404E-03 0.88780447E+02</pdfrwt>
<totfact> 0.15375218E+04</totfact>
</mgrwt>
</event>
<event>
 4    1  0.1437859E-001  0.1820228E+03  0.7546771E-02  0.1165860E+00
          2   -1    0    0  501    0  0.00000000000E+00  0.00000000000E+00  0.58263852660E+03  0.58263852660E+03  0.00000000000E+00 0. -1.
         -2   -1    0    0    0  501 -0.00000000000E+00 -0.00000000000E+00 -0.13101749142E+03  0.13101749142E+03  0.00000000000E+00 0.  1.
         24    1    1    2    0    0  0.35508989257E+02  0.15938689622E+03 -0.42633926842E+02  0.18694902695E+03  0.80419002446E+02 0.  0.
        -24    1    1    2    0    0 -0.35508989257E+02 -0.15938689622E+03  0.49425496202E+03  0.52670699107E+03  0.80419002446E+02 0.  0.
<mgrwt>
<rscale>  0 0.18202279E+03</rscale>
<asrwt>0</asrwt>
<pdfrwt beam="1">  1        2 0.89636695E-01 0.18202281E+03</pdfrwt>
<pdfrwt beam="2">  1       -2 0.20156537E-01 0.18202281E+03</pdfrwt>
<totfact> 0.10819803E+03</totfact>
</mgrwt>
</event>
<event>
 4    1  0.1437859E-001  0.1147779E+03  0.7546771E-02  0.1251969E+00
         -2   -1    0    0    0  501 -0.00000000000E+00  0.00000000000E+00  0.12869633054E+02  0.12869633054E+02  0.00000000000E+00 0.  1.
          2   -1    0    0  501    0  0.00000000000E+00 -0.00000000000E+00 -0.32178065123E+04  0.32178065123E+04  0.00000000000E+00 0. -1.
         24    1    1    2    0    0  0.43820032749E+02 -0.69184852758E+02 -0.29363510546E+04  0.29385934511E+04  0.80419002446E+02 0. -1.
        -24    1    1    2    0    0 -0.43820032749E+02  0.69184852758E+02 -0.26858582467E+03  0.29208269427E+03  0.80419002446E+02 0.  1.
<mgrwt>
<rscale>  0 0.11477785E+03</rscale>
<asrwt>0</asrwt>
<pdfrwt beam="1">  1        2 0.49504774E+00 0.11477785E+03</pdfrwt>
<pdfrwt beam="2">  1       -2 0.19799412E-02 0.11477785E+03</pdfrwt>
<totfact> 0.12549100E+03</totfact>
</mgrwt>
</event>
<event>
 4    1  0.1437859E-001  0.9006114E+02  0.7546771E-02  0.1302704E+00
         -2   -1    0    0    0  501 -0.00000000000E+00  0.00000000000E+00  0.15114877313E+02  0.15114877313E+02  0.00000000000E+00 0.  1.
          2   -1    0    0  501    0  0.00000000000E+00 -0.00000000000E+00 -0.55152688969E+03  0.55152688969E+03  0.00000000000E+00 0. -1.
         24    1    1    2    0    0  0.15274310261E+01  0.40514887854E+02 -0.22163332486E+03  0.23923280675E+03  0.80419002446E+02 0.  0.
        -24    1    1    2    0    0 -0.15274310261E+01 -0.40514887854E+02 -0.31477868751E+03  0.32740896025E+03  0.80419002446E+02 0.  0.
<mgrwt>
<rscale>  0 0.90061130E+02</rscale>
<asrwt>0</asrwt>
<pdfrwt beam="1">  1        2 0.84850302E-01 0.90061141E+02</pdfrwt>
<pdfrwt beam="2">  1       -2 0.23253654E-02 0.90061141E+02</pdfrwt>
<totfact> 0.30850586E+04</totfact>
</mgrwt>
</event>
<event>
 4    1  0.1437859E-001  0.8741031E+02  0.7546771E-02  0.1309247E+00
          1   -1    0    0  501    0  0.00000000000E+00  0.00000000000E+00  0.55630242606E+02  0.55630242606E+02  0.00000000000E+00 0. -1.
         -1   -1    0    0    0  501 -0.00000000000E+00 -0.00000000000E+00 -0.26253059426E+03  0.26253059426E+03  0.00000000000E+00 0.  1.
         24    1    1    2    0    0 -0.37409862749E+00  0.34252088359E+02 -0.21330095388E+03  0.23051650350E+03  0.80419002446E+02 0.  1.
        -24    1    1    2    0    0  0.37409862749E+00 -0.34252088359E+02  0.64006022297E+01  0.87644333359E+02  0.80419002446E+02 0. -1.
<mgrwt>
<rscale>  0 0.87410305E+02</rscale>
<asrwt>0</asrwt>
<pdfrwt beam="1">  1        1 0.85584989E-02 0.87410305E+02</pdfrwt>
<pdfrwt beam="2">  1       -1 0.40389322E-01 0.87410305E+02</pdfrwt>
<totfact> 0.44576975E+03</totfact>
</mgrwt>
</event>
<event>
 4    1  0.1437859E-001  0.8409711E+02  0.7546771E-02  0.1317811E+00
         -2   -1    0    0    0  501 -0.00000000000E+00  0.00000000000E+00  0.23619582083E+02  0.23619582083E+02  0.00000000000E+00 0.  1.
          2   -1    0    0  501    0  0.00000000000E+00 -0.00000000000E+00 -0.35163026670E+03  0.35163026670E+03  0.00000000000E+00 0. -1.
         24    1    1    2    0    0 -0.20968594318E+02  0.12861665606E+02 -0.91711748694E+02  0.12443217105E+03  0.80419002446E+02 0.  0.
        -24    1    1    2    0    0  0.20968594318E+02 -0.12861665606E+02 -0.23629893593E+03  0.25081767773E+03  0.80419002446E+02 0.  0.
<mgrwt>
<rscale>  0 0.84097099E+02</rscale>
<asrwt>0</asrwt>
<pdfrwt beam="1">  1        2 0.54096959E-01 0.84097110E+02</pdfrwt>
<pdfrwt beam="2">  1       -2 0.36337822E-02 0.84097110E+02</pdfrwt>
<totfact> 0.25859891E+04</totfact>
</mgrwt>
</event>
<event>
 4    1  0.1437859E-001  0.9589348E+02  0.7546771E-02  0.1289176E+00
         -4   -1    0    0    0  501 -0.00000000000E+00  0.00000000000E+00  0.21096034689E+03  0.21096034689E+03  0.00000000000E+00 0.  1.
          4   -1    0    0  501    0  0.00000000000E+00 -0.00000000000E+00 -0.43888529779E+02  0.43888529779E+02  0.00000000000E+00 0. -1.
         24    1    1    2    0    0  0.39000019876E+02 -0.34746749487E+02  0.94062433782E+02  0.13432533474E+03  0.80419002446E+02 0.  1.
        -24    1    1    2    0    0 -0.39000019876E+02  0.34746749487E+02  0.73009383331E+02  0.12052354193E+03  0.80419002446E+02 0. -1.
<mgrwt>
<rscale>  0 0.95893464E+02</rscale>
<asrwt>0</asrwt>
<pdfrwt beam="1">  1        4 0.67520816E-02 0.95893476E+02</pdfrwt>
<pdfrwt beam="2">  1       -4 0.32455437E-01 0.95893476E+02</pdfrwt>
<totfact> 0.20209368E+03</totfact>
</mgrwt>
</event>
<event>
 4    1  0.1437859E-001  0.9082592E+02  0.7546771E-02  0.1300864E+00
         -2   -1    0    0    0  501 -0.00000000000E+00  0.00000000000E+00  0.59598838114E+01  0.59598838114E+01  0.00000000000E+00 0.  1.
          2   -1    0    0  501    0  0.00000000000E+00 -0.00000000000E+00 -0.14061656985E+04  0.14061656985E+04  0.00000000000E+00 0. -1.
         24    1    1    2    0    0  0.22724749431E+02  0.35576920569E+02 -0.78845846116E+03  0.79367253477E+03  0.80419002446E+02 0. -1.
        -24    1    1    2    0    0 -0.22724749431E+02 -0.35576920569E+02 -0.61174735355E+03  0.61845304757E+03  0.80419002446E+02 0.  1.
<mgrwt>
<rscale>  0 0.90825918E+02</rscale>
<asrwt>0</asrwt>
<pdfrwt beam="1">  1        2 0.21633312E+00 0.90825918E+02</pdfrwt>
<pdfrwt beam="2">  1       -2 0.91690546E-03 0.90825918E+02</pdfrwt>
<totfact> 0.34214012E+04</totfact>
</mgrwt>
</event>
<event>
 4    1  0.1437859E-001  0.1160549E+03  0.7546771E-02  0.1249751E+00
          1   -1    0    0  501    0  0.00000000000E+00  0.00000000000E+00  0.33054275736E+03  0.33054275736E+03  0.00000000000E+00 0. -1.
         -1   -1    0    0    0  501 -0.00000000000E+00 -0.00000000000E+00 -0.10619795169E+03  0.10619795169E+03  0.00000000000E+00 0.  1.
         24    1    1    2    0    0  0.12070740634E+02 -0.82799938026E+02 -0.59259781960E+02  0.13030913333E+03  0.80419002446E+02 0.  1.
        -24    1    1    2    0    0 -0.12070740634E+02  0.82799938026E+02  0.28360458763E+03  0.30643157571E+03  0.80419002446E+02 0. -1.
<mgrwt>
<rscale>  0 0.11605494E+03</rscale>
<asrwt>0</asrwt>
<pdfrwt beam="1">  1        1 0.50852731E-01 0.11605494E+03</pdfrwt>
<pdfrwt beam="2">  1       -1 0.16338147E-01 0.11605494E+03</pdfrwt>
<totfact> 0.21087043E+03</totfact>
</mgrwt>
</event>
<event>
 4    1  0.1437859E-001  0.8219529E+02  0.7546771E-02  0.1322934E+00
         -1   -1    0    0    0  501 -0.00000000000E+00  0.00000000000E+00  0.30172187360E+02  0.30172187360E+02  0.00000000000E+00 0.  1.
          1   -1    0    0  501    0  0.00000000000E+00 -0.00000000000E+00 -0.40447564595E+03  0.40447564595E+03  0.00000000000E+00 0. -1.
         24    1    1    2    0    0 -0.16975161406E+02 -0.83274665157E+00 -0.41950435746E+02  0.92281658987E+02  0.80419002446E+02 0.  1.
        -24    1    1    2    0    0  0.16975161406E+02  0.83274665157E+00 -0.33235302284E+03  0.34236617432E+03  0.80419002446E+02 0. -1.
<mgrwt>
<rscale>  0 0.82195289E+02</rscale>
<asrwt>0</asrwt>
<pdfrwt beam="1">  1        1 0.62227020E-01 0.82195289E+02</pdfrwt>
<pdfrwt beam="2">  1       -1 0.46418752E-02 0.82195289E+02</pdfrwt>
<totfact> 0.10686805E+04</totfact>
</mgrwt>
</event>
<event>
 4    1  0.1437859E-001  0.1294942E+03  0.7546771E-02  0.1228208E+00
         -2   -1    0    0    0  501 -0.00000000000E+00  0.00000000000E+00  0.59216150921E+02  0.59216150921E+02  0.00000000000E+00 0.  1.
          2   -1    0    0  501    0  0.00000000000E+00 -0.00000000000E+00 -0.29726328900E+03  0.29726328900E+03  0.00000000000E+00 0. -1.
         24    1    1    2    0    0 -0.29470586510E+02  0.97123748834E+02 -0.15782123356E+03  0.20414773027E+03  0.80419002446E+02 0. -1.
        -24    1    1    2    0    0  0.29470586510E+02 -0.97123748834E+02 -0.80225904526E+02  0.15233170966E+03  0.80419002446E+02 0.  1.
<mgrwt>
<rscale>  0 0.12949422E+03</rscale>
<asrwt>0</asrwt>
<pdfrwt beam="1">  1        2 0.45732813E-01 0.12949422E+03</pdfrwt>
<pdfrwt beam="2">  1       -2 0.91101773E-02 0.12949422E+03</pdfrwt>
<totfact> 0.80504545E+03</totfact>
</mgrwt>
</event>
<event>
 4    1  0.1437859E-001  0.9738155E+02  0.7546771E-02  0.1285901E+00
         -2   -1    0    0    0  501 -0.00000000000E+00  0.00000000000E+00  0.32629708658E+02  0.32629708658E+02  0.00000000000E+00 0.  1.
          2   -1    0    0  501    0  0.00000000000E+00 -0.00000000000E+00 -0.99362275924E+03  0.99362275924E+03  0.00000000000E+00 0. -1.
         24    1    1    2    0    0  0.51815831791E+02 -0.18195350969E+02 -0.91210397016E+03  0.91728775178E+03  0.80419002446E+02 0. -1.
        -24    1    1    2    0    0 -0.51815831791E+02  0.18195350969E+02 -0.48889080424E+02  0.10896471612E+03  0.80419002446E+02 0.  1.
<mgrwt>
<rscale>  0 0.97381555E+02</rscale>
<asrwt>0</asrwt>
<pdfrwt beam="1">  1        2 0.15286502E+00 0.97381555E+02</pdfrwt>
<pdfrwt beam="2">  1       -2 0.50199559E-02 0.97381555E+02</pdfrwt>
<totfact> 0.49640608E+03</totfact>
</mgrwt>
</event>
<event>
 4    1  0.1437859E-001  0.1091483E+03  0.7546771E-02  0.1262155E+00
         -1   -1    0    0    0  501 -0.00000000000E+00  0.00000000000E+00  0.17997896237E+02  0.17997896237E+02  0.00000000000E+00 0.  1.
          1   -1    0    0  501    0  0.00000000000E+00 -0.00000000000E+00 -0.67720874507E+03  0.67720874507E+03  0.00000000000E+00 0. -1.
         24    1    1    2    0    0  0.52573763265E+02  0.51789327652E+02 -0.27739422334E+03  0.29809546481E+03  0.80419002446E+02 0.  1.
        -24    1    1    2    0    0 -0.52573763265E+02 -0.51789327652E+02 -0.38181662549E+03  0.39711117649E+03  0.80419002446E+02 0. -1.
<mgrwt>
<rscale>  0 0.10914830E+03</rscale>
<asrwt>0</asrwt>
<pdfrwt beam="1">  1        1 0.10418597E+00 0.10914830E+03</pdfrwt>
<pdfrwt beam="2">  1       -1 0.27689068E-02 0.10914830E+03</pdfrwt>
<totfact> 0.11804911E+04</totfact>
</mgrwt>
</event>
<event>
 4    1  0.1437859E-001  0.1482359E+03  0.7546771E-02  0.1202658E+00
         -2   -1    0    0    0  501 -0.00000000000E+00  0.00000000000E+00  0.35407990431E+03  0.35407990431E+03  0.00000000000E+00 0.  1.
          2   -1    0    0  501    0  0.00000000000E+00 -0.00000000000E+00 -0.18133691253E+04  0.18133691253E+04  0.00000000000E+00 0. -1.
         24    1    1    2    0    0 -0.24134316360E+02  0.12216468602E+03 -0.17946634787E+04  0.18007750813E+04  0.80419002446E+02 0. -1.
        -24    1    1    2    0    0  0.24134316360E+02 -0.12216468602E+03  0.33537425767E+03  0.36667394835E+03  0.80419002446E+02 0.  1.
<mgrwt>
<rscale>  0 0.14823593E+03</rscale>
<asrwt>0</asrwt>
<pdfrwt beam="1">  1        2 0.27897986E+00 0.14823593E+03</pdfrwt>
<pdfrwt beam="2">  1       -2 0.54473833E-01 0.14823593E+03</pdfrwt>
<totfact> 0.32409731E+01</totfact>
</mgrwt>
</event>
<event>
 4    1  0.1437859E-001  0.9655059E+02  0.7546771E-02  0.1287721E+00
          4   -1    0    0  501    0  0.00000000000E+00  0.00000000000E+00  0.21662672494E+03  0.21662672494E+03  0.00000000000E+00 0. -1.
         -4   -1    0    0    0  501 -0.00000000000E+00 -0.00000000000E+00 -0.48850873335E+02  0.48850873335E+02  0.00000000000E+00 0.  1.
         24    1    1    2    0    0 -0.59990020722E+01 -0.53092491504E+02  0.12969766746E+03  0.16168952217E+03  0.80419002446E+02 0.  1.
        -24    1    1    2    0    0  0.59990020722E+01  0.53092491504E+02  0.38078184146E+02  0.10378807611E+03  0.80419002446E+02 0. -1.
<mgrwt>
<rscale>  0 0.96550591E+02</rscale>
<asrwt>0</asrwt>
<pdfrwt beam="1">  1        4 0.33327188E-01 0.96550591E+02</pdfrwt>
<pdfrwt beam="2">  1       -4 0.75155191E-02 0.96550591E+02</pdfrwt>
<totfact> 0.16164246E+03</totfact>
</mgrwt>
</event>
<event>
 4    1  0.1437859E-001  0.1455493E+03  0.7546771E-02  0.1206051E+00
         -1   -1    0    0    0  501 -0.00000000000E+00  0.00000000000E+00  0.15964786850E+03  0.15964786850E+03  0.00000000000E+00 0.  1.
          1   -1    0    0  501    0  0.00000000000E+00 -0.00000000000E+00 -0.58047506469E+03  0.58047506469E+03  0.00000000000E+00 0. -1.
         24    1    1    2    0    0  0.11412990098E+03  0.41130768141E+02  0.11460940976E+03  0.18525632822E+03  0.80419002446E+02 0.  1.
        -24    1    1    2    0    0 -0.11412990098E+03 -0.41130768141E+02 -0.53543660594E+03  0.55486660498E+03  0.80419002446E+02 0. -1.
<mgrwt>
<rscale>  0 0.14554927E+03</rscale>
<asrwt>0</asrwt>
<pdfrwt beam="1">  1        1 0.89303857E-01 0.14554927E+03</pdfrwt>
<pdfrwt beam="2">  1       -1 0.24561210E-01 0.14554927E+03</pdfrwt>
<totfact> 0.53478800E+02</totfact>
</mgrwt>
</event>
<event>
 4    1  0.1437859E-001  0.1432805E+03  0.7546771E-02  0.1208982E+00
          1   -1    0    0  501    0  0.00000000000E+00  0.00000000000E+00  0.49782379200E+03  0.49782379200E+03  0.00000000000E+00 0. -1.
         -1   -1    0    0    0  501 -0.00000000000E+00 -0.00000000000E+00 -0.11529979237E+03  0.11529979237E+03  0.00000000000E+00 0.  1.
         24    1    1    2    0    0  0.22641612728E+02 -0.11640203364E+03 -0.54435461835E+02  0.15327267050E+03  0.80419002446E+02 0.  1.
        -24    1    1    2    0    0 -0.22641612728E+02  0.11640203364E+03  0.43695946147E+03  0.45985091386E+03  0.80419002446E+02 0. -1.
<mgrwt>
<rscale>  0 0.14328047E+03</rscale>
<asrwt>0</asrwt>
<pdfrwt beam="1">  1        1 0.76588275E-01 0.14328047E+03</pdfrwt>
<pdfrwt beam="2">  1       -1 0.17738430E-01 0.14328047E+03</pdfrwt>
<totfact> 0.11092448E+03</totfact>
</mgrwt>
</event>
<event>
 4    1  0.1437859E-001  0.8080014E+02  0.7546771E-02  0.1326796E+00
          2   -1    0    0  501    0  0.00000000000E+00  0.00000000000E+00  0.82123638575E+03  0.82123638575E+03  0.00000000000E+00 0. -1.
         -2   -1    0    0    0  501 -0.00000000000E+00 -0.00000000000E+00 -0.30820982232E+02  0.30820982232E+02  0.00000000000E+00 0.  1.
         24    1    1    2    0    0 -0.68043976202E+01 -0.38919053676E+01  0.76220252388E+03  0.76647331990E+03  0.80419002446E+02 0. -1.
        -24    1    1    2    0    0  0.68043976202E+01  0.38919053676E+01  0.28212879637E+02  0.85584048082E+02  0.80419002446E+02 0.  1.
<mgrwt>
<rscale>  0 0.80800141E+02</rscale>
<asrwt>0</asrwt>
<pdfrwt beam="1">  1        2 0.12634404E+00 0.80800141E+02</pdfrwt>
<pdfrwt beam="2">  1       -2 0.47416902E-02 0.80800141E+02</pdfrwt>
<totfact> 0.68319179E+03</totfact>
</mgrwt>
</event>
<event>
 4    1  0.1437859E-001  0.1002754E+03  0.7546771E-02  0.1279718E+00
         -1   -1    0    0    0  501 -0.00000000000E+00  0.00000000000E+00  0.85341941609E+01  0.85341941609E+01  0.00000000000E+00 0.  1.
          1   -1    0    0  501    0  0.00000000000E+00 -0.00000000000E+00 -0.12241464479E+04  0.12241464479E+04  0.00000000000E+00 0. -1.
         24    1    1    2    0    0  0.59626300600E+02  0.57141643096E+01 -0.48842587501E+03  0.49861307517E+03  0.80419002446E+02 0.  1.
        -24    1    1    2    0    0 -0.59626300600E+02 -0.57141643096E+01 -0.72718637872E+03  0.73406756688E+03  0.80419002446E+02 0. -1.
<mgrwt>
<rscale>  0 0.10027544E+03</rscale>
<asrwt>0</asrwt>
<pdfrwt beam="1">  1        1 0.18833005E+00 0.10027544E+03</pdfrwt>
<pdfrwt beam="2">  1       -1 0.13129542E-02 0.10027544E+03</pdfrwt>
<totfact> 0.13196297E+04</totfact>
</mgrwt>
</event>
<event>
 4    1  0.1437859E-001  0.1992378E+03  0.7546771E-02  0.1150384E+00
          2   -1    0    0  501    0  0.00000000000E+00  0.00000000000E+00  0.37706514634E+03  0.37706514634E+03  0.00000000000E+00 0. -1.
         -2   -1    0    0    0  501 -0.00000000000E+00 -0.00000000000E+00 -0.13917147636E+03  0.13917147636E+03  0.00000000000E+00 0.  1.
         24    1    1    2    0    0 -0.36720402225E+02  0.17855003565E+03  0.24633169607E+03  0.31682017551E+03  0.80419002446E+02 0.  0.
        -24    1    1    2    0    0  0.36720402225E+02 -0.17855003565E+03 -0.84380260825E+01  0.19941644719E+03  0.80419002446E+02 0.  0.
<mgrwt>
<rscale>  0 0.19923785E+03</rscale>
<asrwt>0</asrwt>
<pdfrwt beam="1">  1        2 0.58010022E-01 0.19923785E+03</pdfrwt>
<pdfrwt beam="2">  1       -2 0.21410997E-01 0.19923785E+03</pdfrwt>
<totfact> 0.15796266E+03</totfact>
</mgrwt>
</event>
<event>
 4    1  0.1437859E-001  0.8230735E+02  0.7546771E-02  0.1322628E+00
         -2   -1    0    0    0  501 -0.00000000000E+00  0.00000000000E+00  0.23718683457E+02  0.23718683457E+02  0.00000000000E+00 0.  1.
          2   -1    0    0  501    0  0.00000000000E+00 -0.00000000000E+00 -0.11276284746E+04  0.11276284746E+04  0.00000000000E+00 0. -1.
         24    1    1    2    0    0  0.92495412425E+01 -0.14890623070E+02 -0.10494076448E+04  0.10526304696E+04  0.80419002446E+02 0. -1.
        -24    1    1    2    0    0 -0.92495412425E+01  0.14890623070E+02 -0.54502146393E+02  0.98716688480E+02  0.80419002446E+02 0.  1.
<mgrwt>
<rscale>  0 0.82307355E+02</rscale>
<asrwt>0</asrwt>
<pdfrwt beam="1">  1        2 0.17348131E+00 0.82307355E+02</pdfrwt>
<pdfrwt beam="2">  1       -2 0.36490281E-02 0.82307355E+02</pdfrwt>
<totfact> 0.66073907E+03</totfact>
</mgrwt>
</event>
<event>
 4    1  0.1437859E-001  0.8200420E+02  0.7546771E-02  0.1323458E+00
         -1   -1    0    0    0  501 -0.00000000000E+00  0.00000000000E+00  0.53734284401E+02  0.53734284401E+02  0.00000000000E+00 0.  1.
          1   -1    0    0  501    0  0.00000000000E+00 -0.00000000000E+00 -0.18245413941E+03  0.18245413941E+03  0.00000000000E+00 0. -1.
         24    1    1    2    0    0  0.87084746889E+01 -0.13477226869E+02  0.18244959311E+01  0.82024495824E+02  0.80419002446E+02 0.  1.
        -24    1    1    2    0    0 -0.87084746889E+01  0.13477226869E+02 -0.13054435094E+03  0.15416392798E+03  0.80419002446E+02 0.  1.
<mgrwt>
<rscale>  0 0.82004202E+02</rscale>
<asrwt>0</asrwt>
<pdfrwt beam="1">  1        1 0.28069868E-01 0.82004202E+02</pdfrwt>
<pdfrwt beam="2">  1       -1 0.82668129E-02 0.82004202E+02</pdfrwt>
<totfact> 0.12082654E+04</totfact>
</mgrwt>
</event>
<event>
 4    1  0.1437859E-001  0.8061597E+02  0.7546771E-02  0.1327312E+00
          1   -1    0    0  501    0  0.00000000000E+00  0.00000000000E+00  0.23221004468E+03  0.23221004468E+03  0.00000000000E+00 0. -1.
         -1   -1    0    0    0  501 -0.00000000000E+00 -0.00000000000E+00 -0.52796730606E+02  0.52796730606E+02  0.00000000000E+00 0.  1.
         24    1    1    2    0    0  0.43313715619E+01  0.35997053012E+01 -0.79788152636E+01  0.81009851902E+02  0.80419002446E+02 0.  1.
        -24    1    1    2    0    0 -0.43313715619E+01 -0.35997053012E+01  0.18739212934E+03  0.20399692338E+03  0.80419002446E+02 0. -1.
<mgrwt>
<rscale>  0 0.80615970E+02</rscale>
<asrwt>0</asrwt>
<pdfrwt beam="1">  1        1 0.35724622E-01 0.80615970E+02</pdfrwt>
<pdfrwt beam="2">  1       -1 0.81225741E-02 0.80615970E+02</pdfrwt>
<totfact> 0.92243049E+03</totfact>
</mgrwt>
</event>
<event>
 4    1  0.1437859E-001  0.8507124E+02  0.7546771E-02  0.1315246E+00
          2   -1    0    0  501    0  0.00000000000E+00  0.00000000000E+00  0.36023521921E+03  0.36023521921E+03  0.00000000000E+00 0. -1.
         -2   -1    0    0    0  501 -0.00000000000E+00 -0.00000000000E+00 -0.24643637932E+02  0.24643637932E+02  0.00000000000E+00 0.  1.
         24    1    1    2    0    0 -0.27291634364E+02 -0.50066174009E+01  0.25051802012E+03  0.26456831610E+03  0.80419002446E+02 0. -1.
        -24    1    1    2    0    0  0.27291634364E+02  0.50066174009E+01  0.85073561163E+02  0.12031054105E+03  0.80419002446E+02 0.  1.
<mgrwt>
<rscale>  0 0.85071238E+02</rscale>
<asrwt>0</asrwt>
<pdfrwt beam="1">  1        2 0.55420799E-01 0.85071238E+02</pdfrwt>
<pdfrwt beam="2">  1       -2 0.37913292E-02 0.85071238E+02</pdfrwt>
<totfact> 0.23727643E+04</totfact>
</mgrwt>
</event>
<event>
 4    1  0.1437859E-001  0.9948691E+02  0.7546771E-02  0.1281379E+00
          1   -1    0    0  501    0  0.00000000000E+00  0.00000000000E+00  0.15863893745E+04  0.15863893745E+04  0.00000000000E+00 0. -1.
         -1   -1    0    0    0  501 -0.00000000000E+00 -0.00000000000E+00 -0.67813837230E+01  0.67813837230E+01  0.00000000000E+00 0.  1.
         24    1    1    2    0    0 -0.51885819456E+02  0.27171433415E+02  0.10150653505E+04  0.10199290695E+04  0.80419002446E+02 0. -1.
        -24    1    1    2    0    0  0.51885819456E+02 -0.27171433415E+02  0.56454264031E+03  0.57324168877E+03  0.80419002446E+02 0.  1.
<mgrwt>
<rscale>  0 0.99486901E+02</rscale>
<asrwt>0</asrwt>
<pdfrwt beam="1">  1        1 0.24405961E+00 0.99486913E+02</pdfrwt>
<pdfrwt beam="2">  1       -1 0.10432911E-02 0.99486913E+02</pdfrwt>
<totfact> 0.10623653E+04</totfact>
</mgrwt>
</event>
<event>
 4    1  0.1437859E-001  0.8533319E+02  0.7546771E-02  0.1314563E+00
          1   -1    0    0  501    0  0.00000000000E+00  0.00000000000E+00  0.19311626667E+03  0.19311626667E+03  0.00000000000E+00 0. -1.
         -1   -1    0    0    0  501 -0.00000000000E+00 -0.00000000000E+00 -0.44683991873E+02  0.44683991873E+02  0.00000000000E+00 0.  1.
         24    1    1    2    0    0  0.18095004535E+02 -0.22070538325E+02  0.27231752095E+02  0.89572998876E+02  0.80419002446E+02 0.  0.
        -24    1    1    2    0    0 -0.18095004535E+02  0.22070538325E+02  0.12120052270E+03  0.14822725967E+03  0.80419002446E+02 0.  0.
<mgrwt>
<rscale>  0 0.85333193E+02</rscale>
<asrwt>0</asrwt>
<pdfrwt beam="1">  1        1 0.29710194E-01 0.85333193E+02</pdfrwt>
<pdfrwt beam="2">  1       -1 0.68744604E-02 0.85333193E+02</pdfrwt>
<totfact> 0.14879646E+04</totfact>
</mgrwt>
</event>
<event>
 4    1  0.1437859E-001  0.1165444E+03  0.7546771E-02  0.1248909E+00
         -2   -1    0    0    0  501 -0.00000000000E+00  0.00000000000E+00  0.18773450132E+02  0.18773450132E+02  0.00000000000E+00 0.  1.
          2   -1    0    0  501    0  0.00000000000E+00 -0.00000000000E+00 -0.78189482541E+03  0.78189482541E+03  0.00000000000E+00 0. -1.
         24    1    1    2    0    0 -0.67554947151E+02 -0.50514377428E+02 -0.49096540163E+03  0.50460837762E+03  0.80419002446E+02 0. -1.
        -24    1    1    2    0    0  0.67554947151E+02  0.50514377428E+02 -0.27215597364E+03  0.29605989792E+03  0.80419002446E+02 0.  1.
<mgrwt>
<rscale>  0 0.11654437E+03</rscale>
<asrwt>0</asrwt>
<pdfrwt beam="1">  1        2 0.12029153E+00 0.11654437E+03</pdfrwt>
<pdfrwt beam="2">  1       -2 0.28882227E-02 0.11654437E+03</pdfrwt>
<totfact> 0.15416866E+04</totfact>
</mgrwt>
</event>
<event>
 4    1  0.1437859E-001  0.1655781E+03  0.7546771E-02  0.1182539E+00
         -2   -1    0    0    0  501 -0.00000000000E+00  0.00000000000E+00  0.40168402719E+02  0.40168402719E+02  0.00000000000E+00 0.  1.
          2   -1    0    0  501    0  0.00000000000E+00 -0.00000000000E+00 -0.15358505576E+04  0.15358505576E+04  0.00000000000E+00 0. -1.
         24    1    1    2    0    0  0.44592684775E+02 -0.13769671787E+03 -0.13352131029E+04  0.13454405002E+04  0.80419002446E+02 0. -1.
        -24    1    1    2    0    0 -0.44592684775E+02  0.13769671787E+03 -0.16046905201E+03  0.23057846008E+03  0.80419002446E+02 0.  1.
<mgrwt>
<rscale>  0 0.16557811E+03</rscale>
<asrwt>0</asrwt>
<pdfrwt beam="1">  1        2 0.23628469E+00 0.16557811E+03</pdfrwt>
<pdfrwt beam="2">  1       -2 0.61797547E-02 0.16557811E+03</pdfrwt>
<totfact> 0.18524519E+03</totfact>
</mgrwt>
</event>
<event>
 4    1  0.1437859E-001  0.8184157E+02  0.7546771E-02  0.1323905E+00
          1   -1    0    0  501    0  0.00000000000E+00  0.00000000000E+00  0.94212586361E+02  0.94212586361E+02  0.00000000000E+00 0. -1.
         -1   -1    0    0    0  501 -0.00000000000E+00 -0.00000000000E+00 -0.19527749718E+03  0.19527749718E+03  0.00000000000E+00 0.  1.
         24    1    1    2    0    0 -0.36566208152E+01  0.14746353406E+02 -0.16595956707E+03  0.18504221051E+03  0.80419002446E+02 0.  1.
        -24    1    1    2    0    0  0.36566208152E+01 -0.14746353406E+02  0.64894656256E+02  0.10444787303E+03  0.80419002446E+02 0. -1.
<mgrwt>
<rscale>  0 0.81841565E+02</rscale>
<asrwt>0</asrwt>
<pdfrwt beam="1">  1        1 0.14494244E-01 0.81841565E+02</pdfrwt>
<pdfrwt beam="2">  1       -1 0.30042692E-01 0.81841565E+02</pdfrwt>
<totfact> 0.36954928E+03</totfact>
</mgrwt>
</event>
<event>
 4    1  0.1437859E-001  0.1159741E+03  0.7546771E-02  0.1249890E+00
         -2   -1    0    0    0  501 -0.00000000000E+00  0.00000000000E+00  0.30490334916E+02  0.30490334916E+02  0.00000000000E+00 0.  1.
          2   -1    0    0  501    0  0.00000000000E+00 -0.00000000000E+00 -0.55108436302E+03  0.55108436302E+03  0.00000000000E+00 0. -1.
         24    1    1    2    0    0  0.81193397904E+02  0.19758578079E+02 -0.39019029946E+03  0.40706075102E+03  0.80419002446E+02 0. -1.
        -24    1    1    2    0    0 -0.81193397904E+02 -0.19758578079E+02 -0.13040372864E+03  0.17451394692E+03  0.80419002446E+02 0.  1.
<mgrwt>
<rscale>  0 0.11597407E+03</rscale>
<asrwt>0</asrwt>
<pdfrwt beam="1">  1        2 0.84782205E-01 0.11597407E+03</pdfrwt>
<pdfrwt beam="2">  1       -2 0.46908210E-02 0.11597407E+03</pdfrwt>
<totfact> 0.11308322E+04</totfact>
</mgrwt>
</event>
<event>
 4    1  0.1437859E-001  0.1232635E+03  0.7546771E-02  0.1237808E+00
          4   -1    0    0  501    0  0.00000000000E+00  0.00000000000E+00  0.11217839092E+04  0.11217839092E+04  0.00000000000E+00 0. -1.
         -4   -1    0    0    0  501 -0.00000000000E+00 -0.00000000000E+00 -0.22438995847E+02  0.22438995847E+02  0.00000000000E+00 0.  1.
         24    1    1    2    0    0  0.55744074781E+02  0.74961725595E+02  0.18947362485E+03  0.22604011291E+03  0.80419002446E+02 0.  0.
        -24    1    1    2    0    0 -0.55744074781E+02 -0.74961725595E+02  0.90987128855E+03  0.91818279218E+03  0.80419002446E+02 0.  0.
<mgrwt>
<rscale>  0 0.12326347E+03</rscale>
<asrwt>0</asrwt>
<pdfrwt beam="1">  1        4 0.17258210E+00 0.12326348E+03</pdfrwt>
<pdfrwt beam="2">  1       -4 0.34521541E-02 0.12326348E+03</pdfrwt>
<totfact> 0.15713197E+02</totfact>
</mgrwt>
</event>
<event>
 4    1  0.1437859E-001  0.3602989E+03  0.7546771E-02  0.1058466E+00
         -2   -1    0    0    0  501 -0.00000000000E+00  0.00000000000E+00  0.35585977497E+02  0.35585977497E+02  0.00000000000E+00 0.  1.
          2   -1    0    0  501    0  0.00000000000E+00 -0.00000000000E+00 -0.44710877621E+04  0.44710877621E+04  0.00000000000E+00 0. -1.
         24    1    1    2    0    0  0.27059906324E+03 -0.22388446878E+03 -0.31846024657E+04  0.32049193732E+04  0.80419002446E+02 0. -1.
        -24    1    1    2    0    0 -0.27059906324E+03  0.22388446878E+03 -0.12508993190E+04  0.13017543665E+04  0.80419002446E+02 0.  1.
<mgrwt>
<rscale>  0 0.36029894E+03</rscale>
<asrwt>0</asrwt>
<pdfrwt beam="1">  1        2 0.68785909E+00 0.36029894E+03</pdfrwt>
<pdfrwt beam="2">  1       -2 0.54747703E-02 0.36029894E+03</pdfrwt>
<totfact> 0.29551041E+01</totfact>
</mgrwt>
</event>
<event>
 4    1  0.1437859E-001  0.8890258E+02  0.7546771E-02  0.1305531E+00
         -1   -1    0    0    0  501 -0.00000000000E+00  0.00000000000E+00  0.45044677756E+02  0.45044677756E+02  0.00000000000E+00 0.  1.
          1   -1    0    0  501    0  0.00000000000E+00 -0.00000000000E+00 -0.20639493006E+03  0.20639493006E+03  0.00000000000E+00 0. -1.
         24    1    1    2    0    0 -0.35947994927E+02  0.12008093950E+02 -0.32005436453E+02  0.94488182206E+02  0.80419002446E+02 0.  1.
        -24    1    1    2    0    0  0.35947994927E+02 -0.12008093950E+02 -0.12934481585E+03  0.15695142561E+03  0.80419002446E+02 0. -1.
<mgrwt>
<rscale>  0 0.88902579E+02</rscale>
<asrwt>0</asrwt>
<pdfrwt beam="1">  1        1 0.31753066E-01 0.88902579E+02</pdfrwt>
<pdfrwt beam="2">  1       -1 0.69299505E-02 0.88902579E+02</pdfrwt>
<totfact> 0.13610313E+04</totfact>
</mgrwt>
</event>
<event>
 4    1  0.1437859E-001  0.8209943E+02  0.7546771E-02  0.1323197E+00
         -2   -1    0    0    0  501 -0.00000000000E+00  0.00000000000E+00  0.80976229315E+02  0.80976229315E+02  0.00000000000E+00 0.  1.
          2   -1    0    0  501    0  0.00000000000E+00 -0.00000000000E+00 -0.84694262186E+02  0.84694262186E+02  0.00000000000E+00 0. -1.
         24    1    1    2    0    0 -0.14662804762E+02 -0.76225316236E+01 -0.12720168495E+02  0.83078995376E+02  0.80419002446E+02 0. -1.
        -24    1    1    2    0    0  0.14662804762E+02  0.76225316236E+01  0.90021356236E+01  0.82591496124E+02  0.80419002446E+02 0. -1.
<mgrwt>
<rscale>  0 0.82099432E+02</rscale>
<asrwt>0</asrwt>
<pdfrwt beam="1">  1        2 0.13029886E-01 0.82099432E+02</pdfrwt>
<pdfrwt beam="2">  1       -2 0.12457881E-01 0.82099432E+02</pdfrwt>
<totfact> 0.18849968E+04</totfact>
</mgrwt>
</event>
<event>
 4    1  0.1437859E-001  0.2256472E+03  0.7546771E-02  0.1129742E+00
          1   -1    0    0  501    0  0.00000000000E+00  0.00000000000E+00  0.99780136743E+03  0.99780136743E+03  0.00000000000E+00 0. -1.
         -1   -1    0    0    0  501 -0.00000000000E+00 -0.00000000000E+00 -0.53914077618E+02  0.53914077618E+02  0.00000000000E+00 0.  1.
         24    1    1    2    0    0  0.19112229248E+03 -0.89003932911E+02  0.35029481652E+03  0.41668105932E+03  0.80419002446E+02 0.  0.
        -24    1    1    2    0    0 -0.19112229248E+03  0.89003932911E+02  0.59359247329E+03  0.63503438573E+03  0.80419002446E+02 0. -1.
<mgrwt>
<rscale>  0 0.22564717E+03</rscale>
<asrwt>0</asrwt>
<pdfrwt beam="1">  1        1 0.15350789E+00 0.22564717E+03</pdfrwt>
<pdfrwt beam="2">  1       -1 0.82944742E-02 0.22564717E+03</pdfrwt>
<totfact> 0.13085796E+03</totfact>
</mgrwt>
</event>
<event>
 4    1  0.1437859E-001  0.1030501E+03  0.7546771E-02  0.1274010E+00
         -2   -1    0    0    0  501 -0.00000000000E+00  0.00000000000E+00  0.21862312549E+02  0.21862312549E+02  0.00000000000E+00 0.  1.
          2   -1    0    0  501    0  0.00000000000E+00 -0.00000000000E+00 -0.88507124822E+03  0.88507124822E+03  0.00000000000E+00 0. -1.
         24    1    1    2    0    0 -0.50372164367E+02  0.40183931419E+02 -0.73620103890E+03  0.74337829462E+03  0.80419002446E+02 0. -1.
        -24    1    1    2    0    0  0.50372164367E+02 -0.40183931419E+02 -0.12700789677E+03  0.16355526615E+03  0.80419002446E+02 0.  1.
<mgrwt>
<rscale>  0 0.10305008E+03</rscale>
<asrwt>0</asrwt>
<pdfrwt beam="1">  1        2 0.13616484E+00 0.10305008E+03</pdfrwt>
<pdfrwt beam="2">  1       -2 0.33634319E-02 0.10305008E+03</pdfrwt>
<totfact> 0.10470785E+04</totfact>
</mgrwt>
</event>
<event>
 4    1  0.1437859E-001  0.8682678E+02  0.7546771E-02  0.1310723E+00
         -3   -1    0    0    0  501 -0.00000000000E+00  0.00000000000E+00  0.36025766394E+03  0.36025766394E+03  0.00000000000E+00 0.  1.
          3   -1    0    0  501    0  0.00000000000E+00 -0.00000000000E+00 -0.21378723885E+02  0.21378723885E+02  0.00000000000E+00 0. -1.
         24    1    1    2    0    0 -0.27600316477E+02 -0.17603891210E+02  0.19719573810E+03  0.21546472921E+03  0.80419002446E+02 0.  1.
        -24    1    1    2    0    0  0.27600316477E+02  0.17603891210E+02  0.14168320195E+03  0.16617165861E+03  0.80419002446E+02 0. -1.
<mgrwt>
<rscale>  0 0.86826784E+02</rscale>
<asrwt>0</asrwt>
<pdfrwt beam="1">  1        3 0.32890347E-02 0.86826784E+02</pdfrwt>
<pdfrwt beam="2">  1       -3 0.55424251E-01 0.86826784E+02</pdfrwt>
<totfact> 0.29911723E+03</totfact>
</mgrwt>
</event>
<event>
 4    1  0.1437859E-001  0.1222271E+03  0.7546771E-02  0.1239468E+00
         -1   -1    0    0    0  501 -0.00000000000E+00  0.00000000000E+00  0.52166666300E+02  0.52166666300E+02  0.00000000000E+00 0.  1.
          1   -1    0    0  501    0  0.00000000000E+00 -0.00000000000E+00 -0.37692314969E+03  0.37692314969E+03  0.00000000000E+00 0. -1.
         24    1    1    2    0    0  0.91874957920E+02 -0.55888692305E+01 -0.26753108271E+03  0.29412980047E+03  0.80419002446E+02 0.  0.
        -24    1    1    2    0    0 -0.91874957920E+02  0.55888692305E+01 -0.57225400675E+02  0.13496001552E+03  0.80419002446E+02 0.  0.
<mgrwt>
<rscale>  0 0.12222710E+03</rscale>
<asrwt>0</asrwt>
<pdfrwt beam="1">  1        1 0.57988174E-01 0.12222711E+03</pdfrwt>
<pdfrwt beam="2">  1       -1 0.80256413E-02 0.12222711E+03</pdfrwt>
<totfact> 0.53460708E+03</totfact>
</mgrwt>
</event>
<event>
 4    1  0.1437859E-001  0.1496430E+03  0.7546771E-02  0.1200912E+00
         -2   -1    0    0    0  501 -0.00000000000E+00  0.00000000000E+00  0.97747916421E+02  0.97747916421E+02  0.00000000000E+00 0.  1.
          2   -1    0    0  501    0  0.00000000000E+00 -0.00000000000E+00 -0.13342263331E+04  0.13342263331E+04  0.00000000000E+00 0. -1.
         24    1    1    2    0    0 -0.12347473601E+03 -0.26073236272E+02 -0.12698652736E+04  0.12786519672E+04  0.80419002446E+02 0. -1.
        -24    1    1    2    0    0  0.12347473601E+03  0.26073236272E+02  0.33386856963E+02  0.15332228232E+03  0.80419002446E+02 0.  1.
<mgrwt>
<rscale>  0 0.14964304E+03</rscale>
<asrwt>0</asrwt>
<pdfrwt beam="1">  1        2 0.20526558E+00 0.14964304E+03</pdfrwt>
<pdfrwt beam="2">  1       -2 0.15038142E-01 0.14964304E+03</pdfrwt>
<totfact> 0.58433956E+02</totfact>
</mgrwt>
</event>
<event>
 4    1  0.1437859E-001  0.8577629E+02  0.7546771E-02  0.1313415E+00
          1   -1    0    0  501    0  0.00000000000E+00  0.00000000000E+00  0.53491351668E+02  0.53491351668E+02  0.00000000000E+00 0. -1.
         -1   -1    0    0    0  501 -0.00000000000E+00 -0.00000000000E+00 -0.14139511453E+03  0.14139511453E+03  0.00000000000E+00 0.  1.
         24    1    1    2    0    0 -0.61977603442E+01 -0.29188078403E+02 -0.60027269766E+02  0.10469405534E+03  0.80419002446E+02 0.  1.
        -24    1    1    2    0    0  0.61977603442E+01  0.29188078403E+02 -0.27876493094E+02  0.90192410855E+02  0.80419002446E+02 0. -1.
<mgrwt>
<rscale>  0 0.85776291E+02</rscale>
<asrwt>0</asrwt>
<pdfrwt beam="1">  1        1 0.82294388E-02 0.85776291E+02</pdfrwt>
<pdfrwt beam="2">  1       -1 0.21753094E-01 0.85776291E+02</pdfrwt>
<totfact> 0.13092086E+04</totfact>
</mgrwt>
</event>
<event>
 4    1  0.1437859E-001  0.8467917E+02  0.7546771E-02  0.1316274E+00
          3   -1    0    0  501    0  0.00000000000E+00  0.00000000000E+00  0.10889893268E+02  0.10889893268E+02  0.00000000000E+00 0. -1.
         -3   -1    0    0    0  501 -0.00000000000E+00 -0.00000000000E+00 -0.12957430982E+04  0.12957430982E+04  0.00000000000E+00 0.  1.
         24    1    1    2    0    0 -0.20683011051E+02 -0.16599969477E+02 -0.11006004388E+04  0.11038532003E+04  0.80419002446E+02 0.  1.
        -24    1    1    2    0    0  0.20683011051E+02  0.16599969477E+02 -0.18425276616E+03  0.20277979121E+03  0.80419002446E+02 0. -1.
<mgrwt>
<rscale>  0 0.84679170E+02</rscale>
<asrwt>0</asrwt>
<pdfrwt beam="1">  1        3 0.16753678E-02 0.84679170E+02</pdfrwt>
<pdfrwt beam="2">  1       -3 0.19934514E+00 0.84679170E+02</pdfrwt>
<totfact> 0.44022090E+02</totfact>
</mgrwt>
</event>
<event>
 4    1  0.1437859E-001  0.9850418E+02  0.7546771E-02  0.1283473E+00
          2   -1    0    0  501    0  0.00000000000E+00  0.00000000000E+00  0.18823831641E+03  0.18823831641E+03  0.00000000000E+00 0. -1.
         -2   -1    0    0    0  501 -0.00000000000E+00 -0.00000000000E+00 -0.85098001869E+02  0.85098001869E+02  0.00000000000E+00 0.  1.
         24    1    1    2    0    0  0.52153148434E+02 -0.22713575312E+02  0.13738492491E+03  0.16904937428E+03  0.80419002446E+02 0. -1.
        -24    1    1    2    0    0 -0.52153148434E+02  0.22713575312E+02 -0.34244610376E+02  0.10428694400E+03  0.80419002446E+02 0.  1.
<mgrwt>
<rscale>  0 0.98504179E+02</rscale>
<asrwt>0</asrwt>
<pdfrwt beam="1">  1        2 0.28959741E-01 0.98504179E+02</pdfrwt>
<pdfrwt beam="2">  1       -2 0.13092000E-01 0.98504179E+02</pdfrwt>
<totfact> 0.72391127E+03</totfact>
</mgrwt>
</event>
<event>
 4    1  0.1437859E-001  0.8308383E+02  0.7546771E-02  0.1320521E+00
          2   -1    0    0  501    0  0.00000000000E+00  0.00000000000E+00  0.27780837976E+03  0.27780837976E+03  0.00000000000E+00 0. -1.
         -2   -1    0    0    0  501 -0.00000000000E+00 -0.00000000000E+00 -0.25043765079E+02  0.25043765079E+02  0.00000000000E+00 0.  1.
         24    1    1    2    0    0  0.16975338474E+02  0.12146690438E+02  0.11298653653E+03  0.14024577568E+03  0.80419002446E+02 0.  0.
        -24    1    1    2    0    0 -0.16975338474E+02 -0.12146690438E+02  0.13977807815E+03  0.16260636916E+03  0.80419002446E+02 0.  1.
<mgrwt>
<rscale>  0 0.83083824E+02</rscale>
<asrwt>0</asrwt>
<pdfrwt beam="1">  1        2 0.42739749E-01 0.83083835E+02</pdfrwt>
<pdfrwt beam="2">  1       -2 0.38528871E-02 0.83083835E+02</pdfrwt>
<totfact> 0.30301673E+04</totfact>
</mgrwt>
</event>
<event>
 4    1  0.1437859E-001  0.8974400E+02  0.7546771E-02  0.1303473E+00
          1   -1    0    0  501    0  0.00000000000E+00  0.00000000000E+00  0.76476219870E+02  0.76476219870E+02  0.00000000000E+00 0. -1.
         -1   -1    0    0    0  501 -0.00000000000E+00 -0.00000000000E+00 -0.31524957427E+03  0.31524957427E+03  0.00000000000E+00 0.  1.
         24    1    1    2    0    0  0.24012057303E+02 -0.31783507115E+02 -0.27922037611E+03  0.29328826197E+03  0.80419002446E+02 0.  1.
        -24    1    1    2    0    0 -0.24012057303E+02  0.31783507115E+02  0.40447021708E+02  0.98437532171E+02  0.80419002446E+02 0. -1.
<mgrwt>
<rscale>  0 0.89744004E+02</rscale>
<asrwt>0</asrwt>
<pdfrwt beam="1">  1        1 0.11765572E-01 0.89744004E+02</pdfrwt>
<pdfrwt beam="2">  1       -1 0.48499935E-01 0.89744004E+02</pdfrwt>
<totfact> 0.21321027E+03</totfact>
</mgrwt>
</event>
<event>
 4    1  0.1437859E-001  0.8392628E+02  0.7546771E-02  0.1318265E+00
         -2   -1    0    0    0  501 -0.00000000000E+00  0.00000000000E+00  0.79850248605E+01  0.79850248605E+01  0.00000000000E+00 0.  1.
          2   -1    0    0  501    0  0.00000000000E+00 -0.00000000000E+00 -0.98644968268E+03  0.98644968268E+03  0.00000000000E+00 0. -1.
         24    1    1    2    0    0  0.23190193670E+02 -0.62144645079E+01 -0.65094591621E+03  0.65633391382E+03  0.80419002446E+02 0.  0.
        -24    1    1    2    0    0 -0.23190193670E+02  0.62144645079E+01 -0.32751874161E+03  0.33810079372E+03  0.80419002446E+02 0.  0.
<mgrwt>
<rscale>  0 0.83926281E+02</rscale>
<asrwt>0</asrwt>
<pdfrwt beam="1">  1        2 0.15176147E+00 0.83926281E+02</pdfrwt>
<pdfrwt beam="2">  1       -2 0.12284655E-02 0.83926281E+02</pdfrwt>
<totfact> 0.38035088E+04</totfact>
</mgrwt>
</event>
<event>
 4    1  0.1437859E-001  0.8410337E+02  0.7546771E-02  0.1317794E+00
         -1   -1    0    0    0  501 -0.00000000000E+00  0.00000000000E+00  0.31615377575E+03  0.31615377575E+03  0.00000000000E+00 0.  1.
          1   -1    0    0  501    0  0.00000000000E+00 -0.00000000000E+00 -0.25602829244E+02  0.25602829244E+02  0.00000000000E+00 0. -1.
         24    1    1    2    0    0 -0.14473597124E+02 -0.19916709055E+02  0.20596563498E+03  0.22247520999E+03  0.80419002446E+02 0.  1.
        -24    1    1    2    0    0  0.14473597124E+02  0.19916709055E+02  0.84585311518E+02  0.11928139500E+03  0.80419002446E+02 0. -1.
<mgrwt>
<rscale>  0 0.84103367E+02</rscale>
<asrwt>0</asrwt>
<pdfrwt beam="1">  1        1 0.39388971E-02 0.84103367E+02</pdfrwt>
<pdfrwt beam="2">  1       -1 0.48639039E-01 0.84103367E+02</pdfrwt>
<totfact> 0.90540869E+03</totfact>
</mgrwt>
</event>
<event>
 4    1  0.1437859E-001  0.9800064E+02  0.7546771E-02  0.1284557E+00
         -2   -1    0    0    0  501 -0.00000000000E+00  0.00000000000E+00  0.14578394087E+03  0.14578394087E+03  0.00000000000E+00 0.  1.
          2   -1    0    0  501    0  0.00000000000E+00 -0.00000000000E+00 -0.70453596451E+02  0.70453596451E+02  0.00000000000E+00 0. -1.
         24    1    1    2    0    0  0.52563071782E+02 -0.19339922037E+02  0.10115412074E+02  0.98521300313E+02  0.80419002446E+02 0. -1.
        -24    1    1    2    0    0 -0.52563071782E+02  0.19339922037E+02  0.65214932341E+02  0.11771623700E+03  0.80419002446E+02 0.  1.
<mgrwt>
<rscale>  0 0.98000638E+02</rscale>
<asrwt>0</asrwt>
<pdfrwt beam="1">  1        2 0.10839015E-01 0.98000638E+02</pdfrwt>
<pdfrwt beam="2">  1       -2 0.22428299E-01 0.98000638E+02</pdfrwt>
<totfact> 0.91118172E+03</totfact>
</mgrwt>
</event>
<event>
 4    1  0.1437859E-001  0.1301772E+03  0.7546771E-02  0.1227193E+00
          4   -1    0    0  501    0  0.00000000000E+00  0.00000000000E+00  0.16410931562E+02  0.16410931562E+02  0.00000000000E+00 0. -1.
         -4   -1    0    0    0  501 -0.00000000000E+00 -0.00000000000E+00 -0.10435617472E+04  0.10435617472E+04  0.00000000000E+00 0.  1.
         24    1    1    2    0    0  0.10090573226E+03 -0.17230987970E+02 -0.56786919381E+03  0.58259892806E+03  0.80419002446E+02 0.  1.
        -24    1    1    2    0    0 -0.10090573226E+03  0.17230987970E+02 -0.45928162183E+03  0.47737375070E+03  0.80419002446E+02 0. -1.
<mgrwt>
<rscale>  0 0.13017716E+03</rscale>
<asrwt>0</asrwt>
<pdfrwt beam="1">  1        4 0.25247584E-02 0.13017718E+03</pdfrwt>
<pdfrwt beam="2">  1       -4 0.16054798E+00 0.13017718E+03</pdfrwt>
<totfact> 0.31292593E+02</totfact>
</mgrwt>
</event>
<event>
 4    1  0.1437859E-001  0.9813736E+02  0.7546771E-02  0.1284262E+00
         -1   -1    0    0    0  501 -0.00000000000E+00  0.00000000000E+00  0.12133311286E+03  0.12133311286E+03  0.00000000000E+00 0.  1.
          1   -1    0    0  501    0  0.00000000000E+00 -0.00000000000E+00 -0.14193908067E+03  0.14193908067E+03  0.00000000000E+00 0. -1.
         24    1    1    2    0    0  0.54579571506E+02 -0.13593965516E+02  0.77091282600E+02  0.12479586264E+03  0.80419002446E+02 0.  1.
        -24    1    1    2    0    0 -0.54579571506E+02  0.13593965516E+02 -0.97697250414E+02  0.13847633089E+03  0.80419002446E+02 0. -1.
<mgrwt>
<rscale>  0 0.98137360E+02</rscale>
<asrwt>0</asrwt>
<pdfrwt beam="1">  1        1 0.21836782E-01 0.98137360E+02</pdfrwt>
<pdfrwt beam="2">  1       -1 0.18666633E-01 0.98137360E+02</pdfrwt>
<totfact> 0.48107512E+03</totfact>
</mgrwt>
</event>
<event>
 4    1  0.1437859E-001  0.9594040E+02  0.7546771E-02  0.1289072E+00
          1   -1    0    0  501    0  0.00000000000E+00  0.00000000000E+00  0.48665413542E+02  0.48665413542E+02  0.00000000000E+00 0. -1.
         -1   -1    0    0    0  501 -0.00000000000E+00 -0.00000000000E+00 -0.20830440012E+03  0.20830440012E+03  0.00000000000E+00 0.  1.
         24    1    1    2    0    0 -0.48661086750E+02  0.19220880051E+02 -0.11879164740E+03  0.15269582522E+03  0.80419002446E+02 0.  1.
        -24    1    1    2    0    0  0.48661086750E+02 -0.19220880051E+02 -0.40847339183E+02  0.10427398845E+03  0.80419002446E+02 0. -1.
<mgrwt>
<rscale>  0 0.95940396E+02</rscale>
<asrwt>0</asrwt>
<pdfrwt beam="1">  1        1 0.74869866E-02 0.95940396E+02</pdfrwt>
<pdfrwt beam="2">  1       -1 0.32046831E-01 0.95940396E+02</pdfrwt>
<totfact> 0.79585039E+03</totfact>
</mgrwt>
</event>
<event>
 4    1  0.1437859E-001  0.8966802E+02  0.7546771E-02  0.1303658E+00
          2   -1    0    0  501    0  0.00000000000E+00  0.00000000000E+00  0.10298523033E+04  0.10298523033E+04  0.00000000000E+00 0. -1.
         -2   -1    0    0    0  501 -0.00000000000E+00 -0.00000000000E+00 -0.78131582838E+01  0.78131582838E+01  0.00000000000E+00 0.  1.
         24    1    1    2    0    0 -0.35976874592E+02  0.16697384411E+02  0.52524033513E+03  0.53283934141E+03  0.80419002446E+02 0.  1.
        -24    1    1    2    0    0  0.35976874592E+02 -0.16697384411E+02  0.49679880987E+03  0.50482612016E+03  0.80419002446E+02 0.  0.
<mgrwt>
<rscale>  0 0.89668022E+02</rscale>
<asrwt>0</asrwt>
<pdfrwt beam="1">  1        2 0.15843871E+00 0.89668022E+02</pdfrwt>
<pdfrwt beam="2">  1       -2 0.12020252E-02 0.89668022E+02</pdfrwt>
<totfact> 0.37264781E+04</totfact>
</mgrwt>
</event>
<event>
 4    1  0.1437859E-001  0.1227997E+03  0.7546771E-02  0.1238549E+00
          3   -1    0    0  501    0  0.00000000000E+00  0.00000000000E+00  0.70336677937E+02  0.70336677937E+02  0.00000000000E+00 0. -1.
         -3   -1    0    0    0  501 -0.00000000000E+00 -0.00000000000E+00 -0.22174263718E+03  0.22174263718E+03  0.00000000000E+00 0.  1.
         24    1    1    2    0    0 -0.53940596615E+02  0.75518037660E+02 -0.10228835512E+03  0.15982079189E+03  0.80419002446E+02 0.  1.
        -24    1    1    2    0    0  0.53940596615E+02 -0.75518037660E+02 -0.49117604128E+02  0.13225852322E+03  0.80419002446E+02 0. -1.
<mgrwt>
<rscale>  0 0.12279975E+03</rscale>
<asrwt>0</asrwt>
<pdfrwt beam="1">  1        3 0.10821028E-01 0.12279975E+03</pdfrwt>
<pdfrwt beam="2">  1       -3 0.34114251E-01 0.12279975E+03</pdfrwt>
<totfact> 0.12338383E+03</totfact>
</mgrwt>
</event>
<event>
 4    1  0.1437859E-001  0.1105218E+03  0.7546771E-02  0.1259607E+00
         -2   -1    0    0    0  501 -0.00000000000E+00  0.00000000000E+00  0.10415333706E+03  0.10415333706E+03  0.00000000000E+00 0.  1.
          2   -1    0    0  501    0  0.00000000000E+00 -0.00000000000E+00 -0.19456036686E+03  0.19456036686E+03  0.00000000000E+00 0. -1.
         24    1    1    2    0    0 -0.73843935746E+02  0.17173310348E+02 -0.13933471058E+03  0.17784607660E+03  0.80419002446E+02 0. -1.
        -24    1    1    2    0    0  0.73843935746E+02 -0.17173310348E+02  0.48927680770E+02  0.12086762732E+03  0.80419002446E+02 0.  1.
<mgrwt>
<rscale>  0 0.11052179E+03</rscale>
<asrwt>0</asrwt>
<pdfrwt beam="1">  1        2 0.29932364E-01 0.11052179E+03</pdfrwt>
<pdfrwt beam="2">  1       -2 0.16023590E-01 0.11052179E+03</pdfrwt>
<totfact> 0.50814258E+03</totfact>
</mgrwt>
</event>
<event>
 4    1  0.1437859E-001  0.8883204E+02  0.7546771E-02  0.1305705E+00
          4   -1    0    0  501    0  0.00000000000E+00  0.00000000000E+00  0.14454694095E+03  0.14454694095E+03  0.00000000000E+00 0. -1.
         -4   -1    0    0    0  501 -0.00000000000E+00 -0.00000000000E+00 -0.54662574872E+02  0.54662574872E+02  0.00000000000E+00 0.  1.
         24    1    1    2    0    0  0.12813471116E+02 -0.35492615201E+02  0.41366729102E+02  0.97991494564E+02  0.80419002446E+02 0.  0.
        -24    1    1    2    0    0 -0.12813471116E+02  0.35492615201E+02  0.48517636981E+02  0.10121802126E+03  0.80419002446E+02 0.  1.
<mgrwt>
<rscale>  0 0.88832025E+02</rscale>
<asrwt>0</asrwt>
<pdfrwt beam="1">  1        4 0.22237991E-01 0.88832036E+02</pdfrwt>
<pdfrwt beam="2">  1       -4 0.84096270E-02 0.88832036E+02</pdfrwt>
<totfact> 0.27813264E+03</totfact>
</mgrwt>
</event>
<event>
 4    1  0.1437859E-001  0.1091778E+03  0.7546771E-02  0.1262100E+00
          2   -1    0    0  501    0  0.00000000000E+00  0.00000000000E+00  0.62941531130E+02  0.62941531130E+02  0.00000000000E+00 0. -1.
         -2   -1    0    0    0  501 -0.00000000000E+00 -0.00000000000E+00 -0.24976175820E+03  0.24976175820E+03  0.00000000000E+00 0.  1.
         24    1    1    2    0    0 -0.20665961738E+02  0.70890754825E+02 -0.16533124396E+02  0.11042255771E+03  0.80419002446E+02 0. -1.
        -24    1    1    2    0    0  0.20665961738E+02 -0.70890754825E+02 -0.17028710268E+03  0.20228073162E+03  0.80419002446E+02 0.  1.
<mgrwt>
<rscale>  0 0.10917782E+03</rscale>
<asrwt>0</asrwt>
<pdfrwt beam="1">  1        2 0.96833123E-02 0.10917782E+03</pdfrwt>
<pdfrwt beam="2">  1       -2 0.38424887E-01 0.10917782E+03</pdfrwt>
<totfact> 0.40365737E+03</totfact>
</mgrwt>
</event>
<event>
 4    1  0.1437859E-001  0.1254804E+03  0.7546771E-02  0.1234320E+00
          2   -1    0    0  501    0  0.00000000000E+00  0.00000000000E+00  0.43409998230E+04  0.43409998230E+04  0.00000000000E+00 0. -1.
         -2   -1    0    0    0  501 -0.00000000000E+00 -0.00000000000E+00 -0.39188650856E+01  0.39188650856E+01  0.00000000000E+00 0.  1.
         24    1    1    2    0    0 -0.29780379941E+02  0.91603729542E+02  0.15757888358E+04  0.15807769562E+04  0.80419002446E+02 0.  0.
        -24    1    1    2    0    0  0.29780379941E+02 -0.91603729542E+02  0.27612921221E+04  0.27641417319E+04  0.80419002446E+02 0.  1.
<mgrwt>
<rscale>  0 0.12548041E+03</rscale>
<asrwt>0</asrwt>
<pdfrwt beam="1">  1        2 0.66784228E+00 0.12548043E+03</pdfrwt>
<pdfrwt beam="2">  1       -2 0.60290579E-03 0.12548043E+03</pdfrwt>
<totfact> 0.11016945E+03</totfact>
</mgrwt>
</event>
<event>
 4    1  0.1437859E-001  0.8791494E+02  0.7546771E-02  0.1307981E+00
          1   -1    0    0  501    0  0.00000000000E+00  0.00000000000E+00  0.74633862779E+03  0.74633862779E+03  0.00000000000E+00 0. -1.
         -1   -1    0    0    0  501 -0.00000000000E+00 -0.00000000000E+00 -0.19285351007E+02  0.19285351007E+02  0.00000000000E+00 0.  1.
         24    1    1    2    0    0  0.16232408936E+02 -0.31596349530E+02  0.10304133883E+03  0.13544945133E+03  0.80419002446E+02 0.  0.
        -24    1    1    2    0    0 -0.16232408936E+02  0.31596349530E+02  0.62401193795E+03  0.63017452746E+03  0.80419002446E+02 0.  0.
<mgrwt>
<rscale>  0 0.87914938E+02</rscale>
<asrwt>0</asrwt>
<pdfrwt beam="1">  1        1 0.11482131E+00 0.87914938E+02</pdfrwt>
<pdfrwt beam="2">  1       -1 0.29669776E-02 0.87914938E+02</pdfrwt>
<totfact> 0.91600543E+03</totfact>
</mgrwt>
</event>
<event>
 4    1  0.1437859E-001  0.2209091E+03  0.7546771E-02  0.1133207E+00
          2   -1    0    0  501    0  0.00000000000E+00  0.00000000000E+00  0.82560941625E+03  0.82560941625E+03  0.00000000000E+00 0. -1.
         -2   -1    0    0    0  501 -0.00000000000E+00 -0.00000000000E+00 -0.64376539316E+02  0.64376539316E+02  0.00000000000E+00 0.  1.
         24    1    1    2    0    0 -0.20210963616E+03  0.38539397058E+02  0.25332468436E+03  0.33611635161E+03  0.80419002446E+02 0.  1.
        -24    1    1    2    0    0  0.20210963616E+03 -0.38539397058E+02  0.50790819257E+03  0.55386960396E+03  0.80419002446E+02 0. -1.
<mgrwt>
<rscale>  0 0.22090907E+03</rscale>
<asrwt>0</asrwt>
<pdfrwt beam="1">  1        2 0.12701683E+00 0.22090910E+03</pdfrwt>
<pdfrwt beam="2">  1       -2 0.99040836E-02 0.22090910E+03</pdfrwt>
<totfact> 0.22853743E+03</totfact>
</mgrwt>
</event>
<event>
 4    1  0.1437859E-001  0.1011863E+03  0.7546771E-02  0.1277821E+00
          1   -1    0    0  501    0  0.00000000000E+00  0.00000000000E+00  0.39540026327E+03  0.39540026327E+03  0.00000000000E+00 0. -1.
         -1   -1    0    0    0  501 -0.00000000000E+00 -0.00000000000E+00 -0.30127993574E+02  0.30127993574E+02  0.00000000000E+00 0.  1.
         24    1    1    2    0    0 -0.54831442879E+02 -0.27657927893E+02  0.10287957816E+03  0.14430132245E+03  0.80419002446E+02 0.  1.
        -24    1    1    2    0    0  0.54831442879E+02  0.27657927893E+02  0.26239269154E+03  0.28122693440E+03  0.80419002446E+02 0. -1.
<mgrwt>
<rscale>  0 0.10118628E+03</rscale>
<asrwt>0</asrwt>
<pdfrwt beam="1">  1        1 0.60830806E-01 0.10118628E+03</pdfrwt>
<pdfrwt beam="2">  1       -1 0.46350762E-02 0.10118628E+03</pdfrwt>
<totfact> 0.11216403E+04</totfact>
</mgrwt>
</event>
<event>
 4    1  0.1437859E-001  0.1005775E+03  0.7546771E-02  0.1279086E+00
          2   -1    0    0  501    0  0.00000000000E+00  0.00000000000E+00  0.14508794337E+03  0.14508794337E+03  0.00000000000E+00 0. -1.
         -2   -1    0    0    0  501 -0.00000000000E+00 -0.00000000000E+00 -0.81915417011E+02  0.81915417011E+02  0.00000000000E+00 0.  1.
         24    1    1    2    0    0  0.59475177173E+02  0.10550805627E+02  0.75376861972E+02  0.12568811986E+03  0.80419002446E+02 0.  0.
        -24    1    1    2    0    0 -0.59475177173E+02 -0.10550805627E+02 -0.12204335613E+02  0.10131524052E+03  0.80419002446E+02 0. -1.
<mgrwt>
<rscale>  0 0.10057749E+03</rscale>
<asrwt>0</asrwt>
<pdfrwt beam="1">  1        2 0.22321222E-01 0.10057749E+03</pdfrwt>
<pdfrwt beam="2">  1       -2 0.12602372E-01 0.10057749E+03</pdfrwt>
<totfact> 0.10236964E+04</totfact>
</mgrwt>
</event>
<event>
 4    1  0.1437859E-001  0.1325388E+03  0.7546771E-02  0.1223736E+00
         -1   -1    0    0    0  501 -0.00000000000E+00  0.00000000000E+00  0.50081291150E+02  0.50081291150E+02  0.00000000000E+00 0.  1.
          1   -1    0    0  501    0  0.00000000000E+00 -0.00000000000E+00 -0.13151116902E+04  0.13151116902E+04  0.00000000000E+00 0. -1.
         24    1    1    2    0    0 -0.91438403881E+02 -0.52329145871E+02 -0.47993888834E+02  0.14096081204E+03  0.80419002446E+02 0.  1.
        -24    1    1    2    0    0  0.91438403881E+02  0.52329145871E+02 -0.12170365102E+04  0.12242321693E+04  0.80419002446E+02 0. -1.
<mgrwt>
<rscale>  0 0.13253881E+03</rscale>
<asrwt>0</asrwt>
<pdfrwt beam="1">  1        1 0.20232486E+00 0.13253881E+03</pdfrwt>
<pdfrwt beam="2">  1       -1 0.77048147E-02 0.13253881E+03</pdfrwt>
<totfact> 0.87988514E+02</totfact>
</mgrwt>
</event>
<event>
 4    1  0.1437859E-001  0.9255306E+02  0.7546771E-02  0.1296784E+00
          1   -1    0    0  501    0  0.00000000000E+00  0.00000000000E+00  0.13993569457E+03  0.13993569457E+03  0.00000000000E+00 0. -1.
         -1   -1    0    0    0  501 -0.00000000000E+00 -0.00000000000E+00 -0.61241600248E+02  0.61241600248E+02  0.00000000000E+00 0.  1.
         24    1    1    2    0    0 -0.10872860243E+02  0.44504309800E+02  0.37224116806E+02  0.99758225260E+02  0.80419002446E+02 0.  1.
        -24    1    1    2    0    0  0.10872860243E+02 -0.44504309800E+02  0.41469977518E+02  0.10141906956E+03  0.80419002446E+02 0.  0.
<mgrwt>
<rscale>  0 0.92553058E+02</rscale>
<asrwt>0</asrwt>
<pdfrwt beam="1">  1        1 0.21528568E-01 0.92553058E+02</pdfrwt>
<pdfrwt beam="2">  1       -1 0.94217847E-02 0.92553058E+02</pdfrwt>
<totfact> 0.13968574E+04</totfact>
</mgrwt>
</event>
<event>
 4    1  0.1437859E-001  0.9610551E+02  0.7546771E-02  0.1288705E+00
          2   -1    0    0  501    0  0.00000000000E+00  0.00000000000E+00  0.58868503389E+03  0.58868503389E+03  0.00000000000E+00 0. -1.
         -2   -1    0    0    0  501 -0.00000000000E+00 -0.00000000000E+00 -0.21011195381E+02  0.21011195381E+02  0.00000000000E+00 0.  1.
         24    1    1    2    0    0 -0.28739129227E+02  0.44080785424E+02  0.43725499536E+03  0.44769208181E+03  0.80419002446E+02 0.  1.
        -24    1    1    2    0    0  0.28739129227E+02 -0.44080785424E+02  0.13041884315E+03  0.16200414746E+03  0.80419002446E+02 0.  0.
<mgrwt>
<rscale>  0 0.96105510E+02</rscale>
<asrwt>0</asrwt>
<pdfrwt beam="1">  1        2 0.90566916E-01 0.96105510E+02</pdfrwt>
<pdfrwt beam="2">  1       -2 0.32324920E-02 0.96105510E+02</pdfrwt>
<totfact> 0.17915010E+04</totfact>
</mgrwt>
</event>
<event>
 4    1  0.1437859E-001  0.9828625E+02  0.7546771E-02  0.1283942E+00
         -2   -1    0    0    0  501 -0.00000000000E+00  0.00000000000E+00  0.43250060392E+01  0.43250060392E+01  0.00000000000E+00 0.  1.
          2   -1    0    0  501    0  0.00000000000E+00 -0.00000000000E+00 -0.23802126963E+04  0.23802126963E+04  0.00000000000E+00 0. -1.
         24    1    1    2    0    0 -0.42684362733E+02  0.37027224643E+02 -0.14838830877E+04  0.14871345615E+04  0.80419002446E+02 0.  1.
        -24    1    1    2    0    0  0.42684362733E+02 -0.37027224643E+02 -0.89200460260E+03  0.89740314085E+03  0.80419002446E+02 0.  0.
<mgrwt>
<rscale>  0 0.98286246E+02</rscale>
<asrwt>0</asrwt>
<pdfrwt beam="1">  1        2 0.36618636E+00 0.98286246E+02</pdfrwt>
<pdfrwt beam="2">  1       -2 0.66538593E-03 0.98286246E+02</pdfrwt>
<totfact> 0.17324289E+04</totfact>
</mgrwt>
</event>
<event>
 4    1  0.1437859E-001  0.1029643E+03  0.7546771E-02  0.1274183E+00
          1   -1    0    0  501    0  0.00000000000E+00  0.00000000000E+00  0.35246663975E+02  0.35246663975E+02  0.00000000000E+00 0. -1.
         -1   -1    0    0    0  501 -0.00000000000E+00 -0.00000000000E+00 -0.32419492505E+03  0.32419492505E+03  0.00000000000E+00 0.  1.
         24    1    1    2    0    0  0.55737366707E+02 -0.32058854411E+02 -0.19276916927E+03  0.21854425815E+03  0.80419002446E+02 0.  0.
        -24    1    1    2    0    0 -0.55737366707E+02  0.32058854411E+02 -0.96179091800E+02  0.14089733087E+03  0.80419002446E+02 0.  1.
<mgrwt>
<rscale>  0 0.10296427E+03</rscale>
<asrwt>0</asrwt>
<pdfrwt beam="1">  1        1 0.54225636E-02 0.10296427E+03</pdfrwt>
<pdfrwt beam="2">  1       -1 0.49876144E-01 0.10296427E+03</pdfrwt>
<totfact> 0.57153614E+03</totfact>
</mgrwt>
</event>
<event>
 4    1  0.1437859E-001  0.1119410E+03  0.7546771E-02  0.1257017E+00
         -1   -1    0    0    0  501 -0.00000000000E+00  0.00000000000E+00  0.34730228904E+02  0.34730228904E+02  0.00000000000E+00 0.  1.
          1   -1    0    0  501    0  0.00000000000E+00 -0.00000000000E+00 -0.16615609237E+04  0.16615609237E+04  0.00000000000E+00 0. -1.
         24    1    1    2    0    0 -0.61026636912E+02  0.48366589344E+02 -0.62984983864E+02  0.12844415722E+03  0.80419002446E+02 0.  1.
        -24    1    1    2    0    0  0.61026636912E+02 -0.48366589344E+02 -0.15638457110E+04  0.15678469954E+04  0.80419002446E+02 0. -1.
<mgrwt>
<rscale>  0 0.11194103E+03</rscale>
<asrwt>0</asrwt>
<pdfrwt beam="1">  1        1 0.25562477E+00 0.11194103E+03</pdfrwt>
<pdfrwt beam="2">  1       -1 0.53431120E-02 0.11194103E+03</pdfrwt>
<totfact> 0.90743384E+02</totfact>
</mgrwt>
</event>
<event>
 4    1  0.1437859E-001  0.8516776E+02  0.7546771E-02  0.1314994E+00
          2   -1    0    0  501    0  0.00000000000E+00  0.00000000000E+00  0.11914635610E+04  0.11914635610E+04  0.00000000000E+00 0. -1.
         -2   -1    0    0    0  501 -0.00000000000E+00 -0.00000000000E+00 -0.76248272271E+01  0.76248272271E+01  0.00000000000E+00 0.  1.
         24    1    1    2    0    0  0.22802700317E+02  0.16320790348E+02  0.86109054035E+03  0.86529212753E+03  0.80419002446E+02 0. -1.
        -24    1    1    2    0    0 -0.22802700317E+02 -0.16320790348E+02  0.32274819339E+03  0.33379626066E+03  0.80419002446E+02 0.  1.
<mgrwt>
<rscale>  0 0.85167760E+02</rscale>
<asrwt>0</asrwt>
<pdfrwt beam="1">  1        2 0.18330194E+00 0.85167760E+02</pdfrwt>
<pdfrwt beam="2">  1       -2 0.11730513E-02 0.85167760E+02</pdfrwt>
<totfact> 0.31174214E+04</totfact>
</mgrwt>
</event>
<event>
 4    1  0.1437859E-001  0.1135218E+03  0.7546771E-02  0.1254184E+00
         -2   -1    0    0    0  501 -0.00000000000E+00  0.00000000000E+00  0.35538811565E+02  0.35538811565E+02  0.00000000000E+00 0.  1.
          2   -1    0    0  501    0  0.00000000000E+00 -0.00000000000E+00 -0.18263297626E+04  0.18263297626E+04  0.00000000000E+00 0. -1.
         24    1    1    2    0    0 -0.19170615596E+01  0.80101846125E+02 -0.17288011263E+04  0.17325243234E+04  0.80419002446E+02 0. -1.
        -24    1    1    2    0    0  0.19170615596E+01 -0.80101846125E+02 -0.61989824684E+02  0.12934425073E+03  0.80419002446E+02 0.  1.
<mgrwt>
<rscale>  0 0.11352179E+03</rscale>
<asrwt>0</asrwt>
<pdfrwt beam="1">  1        2 0.28097389E+00 0.11352179E+03</pdfrwt>
<pdfrwt beam="2">  1       -2 0.54675079E-02 0.11352179E+03</pdfrwt>
<totfact> 0.15855113E+03</totfact>
</mgrwt>
</event>
<event>
 4    1  0.1437859E-001  0.9421168E+02  0.7546771E-02  0.1292962E+00
         -1   -1    0    0    0  501 -0.00000000000E+00  0.00000000000E+00  0.17077543749E+02  0.17077543749E+02  0.00000000000E+00 0.  1.
          1   -1    0    0  501    0  0.00000000000E+00 -0.00000000000E+00 -0.10007951477E+04  0.10007951477E+04  0.00000000000E+00 0. -1.
         24    1    1    2    0    0 -0.90459211514E+01  0.48236883519E+02 -0.13900939744E+03  0.16792693099E+03  0.80419002446E+02 0.  1.
        -24    1    1    2    0    0  0.90459211514E+01 -0.48236883519E+02 -0.84470820654E+03  0.84994576049E+03  0.80419002446E+02 0. -1.
<mgrwt>
<rscale>  0 0.94211685E+02</rscale>
<asrwt>0</asrwt>
<pdfrwt beam="1">  1        1 0.15396845E+00 0.94211685E+02</pdfrwt>
<pdfrwt beam="2">  1       -1 0.26273150E-02 0.94211685E+02</pdfrwt>
<totfact> 0.69746805E+03</totfact>
</mgrwt>
</event>
<event>
 4    1  0.1437859E-001  0.8093583E+02  0.7546771E-02  0.1326416E+00
         -1   -1    0    0    0  501 -0.00000000000E+00  0.00000000000E+00  0.92029176469E+01  0.92029176469E+01  0.00000000000E+00 0.  1.
          1   -1    0    0  501    0  0.00000000000E+00 -0.00000000000E+00 -0.14549578679E+04  0.14549578679E+04  0.00000000000E+00 0. -1.
         24    1    1    2    0    0  0.79445665221E+01 -0.45028649446E+01 -0.19966869407E+03  0.21544882287E+03  0.80419002446E+02 0.  1.
        -24    1    1    2    0    0 -0.79445665221E+01  0.45028649446E+01 -0.12460862562E+04  0.12487119627E+04  0.80419002446E+02 0. -1.
<mgrwt>
<rscale>  0 0.80935826E+02</rscale>
<asrwt>0</asrwt>
<pdfrwt beam="1">  1        1 0.22383956E+00 0.80935826E+02</pdfrwt>
<pdfrwt beam="2">  1       -1 0.14158342E-02 0.80935826E+02</pdfrwt>
<totfact> 0.82679609E+03</totfact>
</mgrwt>
</event>
<event>
 4    1  0.1437859E-001  0.1059334E+03  0.7546771E-02  0.1268292E+00
          1   -1    0    0  501    0  0.00000000000E+00  0.00000000000E+00  0.10467682699E+03  0.10467682699E+03  0.00000000000E+00 0. -1.
         -1   -1    0    0    0  501 -0.00000000000E+00 -0.00000000000E+00 -0.10938226796E+03  0.10938226796E+03  0.00000000000E+00 0.  1.
         24    1    1    2    0    0  0.68226581723E+02 -0.99896990633E+01 -0.17453131944E+02  0.10736148429E+03  0.80419002446E+02 0.  1.
        -24    1    1    2    0    0 -0.68226581723E+02  0.99896990633E+01  0.12747690976E+02  0.10669761066E+03  0.80419002446E+02 0. -1.
<mgrwt>
<rscale>  0 0.10593336E+03</rscale>
<asrwt>0</asrwt>
<pdfrwt beam="1">  1        1 0.16104127E-01 0.10593336E+03</pdfrwt>
<pdfrwt beam="2">  1       -1 0.16828041E-01 0.10593336E+03</pdfrwt>
<totfact> 0.83770903E+03</totfact>
</mgrwt>
</event>
<event>
 4    1  0.1437859E-001  0.9541259E+02  0.7546771E-02  0.1290250E+00
          1   -1    0    0  501    0  0.00000000000E+00  0.00000000000E+00  0.82592690172E+03  0.82592690172E+03  0.00000000000E+00 0. -1.
         -1   -1    0    0    0  501 -0.00000000000E+00 -0.00000000000E+00 -0.11449500920E+02  0.11449500920E+02  0.00000000000E+00 0.  1.
         24    1    1    2    0    0  0.50611718187E+02 -0.86487179025E+01  0.32635790603E+03  0.34001918346E+03  0.80419002446E+02 0.  1.
        -24    1    1    2    0    0 -0.50611718187E+02  0.86487179025E+01  0.48811949477E+03  0.49735721918E+03  0.80419002446E+02 0. -1.
<mgrwt>
<rscale>  0 0.95412590E+02</rscale>
<asrwt>0</asrwt>
<pdfrwt beam="1">  1        1 0.12706563E+00 0.95412590E+02</pdfrwt>
<pdfrwt beam="2">  1       -1 0.17614623E-02 0.95412590E+02</pdfrwt>
<totfact> 0.16753392E+04</totfact>
</mgrwt>
</event>
<event>
 4    1  0.1437859E-001  0.8729309E+02  0.7546771E-02  0.1309542E+00
          1   -1    0    0  501    0  0.00000000000E+00  0.00000000000E+00  0.86274264700E+03  0.86274264700E+03  0.00000000000E+00 0. -1.
         -1   -1    0    0    0  501 -0.00000000000E+00 -0.00000000000E+00 -0.25424448051E+02  0.25424448051E+02  0.00000000000E+00 0.  1.
         24    1    1    2    0    0  0.19161474239E+02 -0.28030440216E+02  0.59911516274E+02  0.10587480064E+03  0.80419002446E+02 0.  1.
        -24    1    1    2    0    0 -0.19161474239E+02  0.28030440216E+02  0.77740668268E+03  0.78229229441E+03  0.80419002446E+02 0. -1.
<mgrwt>
<rscale>  0 0.87293090E+02</rscale>
<asrwt>0</asrwt>
<pdfrwt beam="1">  1        1 0.13272961E+00 0.87293090E+02</pdfrwt>
<pdfrwt beam="2">  1       -1 0.39114542E-02 0.87293090E+02</pdfrwt>
<totfact> 0.49550531E+03</totfact>
</mgrwt>
</event>
<event>
 4    1  0.1437859E-001  0.9319992E+02  0.7546771E-02  0.1295283E+00
          2   -1    0    0  501    0  0.00000000000E+00  0.00000000000E+00  0.22444021043E+03  0.22444021043E+03  0.00000000000E+00 0. -1.
         -2   -1    0    0    0  501 -0.00000000000E+00 -0.00000000000E+00 -0.61239902702E+02  0.61239902702E+02  0.00000000000E+00 0.  1.
         24    1    1    2    0    0 -0.15819972554E+01 -0.47079795721E+02  0.16825484092E+03  0.19234322792E+03  0.80419002446E+02 0. -1.
        -24    1    1    2    0    0  0.15819972554E+01  0.47079795721E+02 -0.50545331927E+01  0.93336885209E+02  0.80419002446E+02 0.  1.
<mgrwt>
<rscale>  0 0.93199924E+02</rscale>
<asrwt>0</asrwt>
<pdfrwt beam="1">  1        2 0.34529263E-01 0.93199924E+02</pdfrwt>
<pdfrwt beam="2">  1       -2 0.94215236E-02 0.93199924E+02</pdfrwt>
<totfact> 0.10019308E+04</totfact>
</mgrwt>
</event>
<event>
 4    1  0.1437859E-001  0.1424551E+03  0.7546771E-02  0.1210063E+00
         -2   -1    0    0    0  501 -0.00000000000E+00  0.00000000000E+00  0.69064340047E+02  0.69064340047E+02  0.00000000000E+00 0.  1.
          2   -1    0    0  501    0  0.00000000000E+00 -0.00000000000E+00 -0.35884294938E+03  0.35884294938E+03  0.00000000000E+00 0. -1.
         24    1    1    2    0    0 -0.97143657349E+02 -0.66252134712E+02 -0.23595484010E+03  0.27562318124E+03  0.80419002446E+02 0. -1.
        -24    1    1    2    0    0  0.97143657349E+02  0.66252134712E+02 -0.53823769235E+02  0.15228410819E+03  0.80419002446E+02 0.  1.
<mgrwt>
<rscale>  0 0.14245509E+03</rscale>
<asrwt>0</asrwt>
<pdfrwt beam="1">  1        2 0.55206607E-01 0.14245509E+03</pdfrwt>
<pdfrwt beam="2">  1       -2 0.10625283E-01 0.14245509E+03</pdfrwt>
<totfact> 0.52100259E+03</totfact>
</mgrwt>
</event>
<event>
 4    1  0.1437859E-001  0.9089527E+02  0.7546771E-02  0.1300698E+00
          1   -1    0    0  501    0  0.00000000000E+00  0.00000000000E+00  0.45123329892E+03  0.45123329892E+03  0.00000000000E+00 0. -1.
         -1   -1    0    0    0  501 -0.00000000000E+00 -0.00000000000E+00 -0.46108273984E+02  0.46108273984E+02  0.00000000000E+00 0.  1.
         24    1    1    2    0    0  0.11873313981E+02 -0.40666427138E+02  0.94784029186E+01  0.91388128098E+02  0.80419002446E+02 0.  1.
        -24    1    1    2    0    0 -0.11873313981E+02  0.40666427138E+02  0.39564662202E+03  0.40595344481E+03  0.80419002446E+02 0. -1.
<mgrwt>
<rscale>  0 0.90895268E+02</rscale>
<asrwt>0</asrwt>
<pdfrwt beam="1">  1        1 0.69420504E-01 0.90895268E+02</pdfrwt>
<pdfrwt beam="2">  1       -1 0.70935809E-02 0.90895268E+02</pdfrwt>
<totfact> 0.50379512E+03</totfact>
</mgrwt>
</event>
<event>
 4    1  0.1437859E-001  0.1007816E+03  0.7546771E-02  0.1278661E+00
          1   -1    0    0  501    0  0.00000000000E+00  0.00000000000E+00  0.10792308367E+04  0.10792308367E+04  0.00000000000E+00 0. -1.
         -1   -1    0    0    0  501 -0.00000000000E+00 -0.00000000000E+00 -0.41162705386E+02  0.41162705386E+02  0.00000000000E+00 0.  1.
         24    1    1    2    0    0 -0.40779587380E+02 -0.45019291445E+02  0.27028107241E+02  0.10434292446E+03  0.80419002446E+02 0.  1.
        -24    1    1    2    0    0  0.40779587380E+02  0.45019291445E+02  0.10110400241E+04  0.10160506176E+04  0.80419002446E+02 0. -1.
<mgrwt>
<rscale>  0 0.10078158E+03</rscale>
<asrwt>0</asrwt>
<pdfrwt beam="1">  1        1 0.16603549E+00 0.10078158E+03</pdfrwt>
<pdfrwt beam="2">  1       -1 0.63327247E-02 0.10078158E+03</pdfrwt>
<totfact> 0.17065836E+03</totfact>
</mgrwt>
</event>
<event>
 4    1  0.1437859E-001  0.1084065E+03  0.7546771E-02  0.1263550E+00
         -1   -1    0    0    0  501 -0.00000000000E+00  0.00000000000E+00  0.54472033502E+02  0.54472033502E+02  0.00000000000E+00 0.  1.
          1   -1    0    0  501    0  0.00000000000E+00 -0.00000000000E+00 -0.21785701691E+03  0.21785701691E+03  0.00000000000E+00 0. -1.
         24    1    1    2    0    0  0.55595060435E+02  0.46839448527E+02 -0.95105651001E+02  0.14421180773E+03  0.80419002446E+02 0.  0.
        -24    1    1    2    0    0 -0.55595060435E+02 -0.46839448527E+02 -0.68279332405E+02  0.12811724268E+03  0.80419002446E+02 0.  1.
<mgrwt>
<rscale>  0 0.10840647E+03</rscale>
<asrwt>0</asrwt>
<pdfrwt beam="1">  1        1 0.33516464E-01 0.10840649E+03</pdfrwt>
<pdfrwt beam="2">  1       -1 0.83803129E-02 0.10840649E+03</pdfrwt>
<totfact> 0.97672443E+03</totfact>
</mgrwt>
</event>
<event>
 4    1  0.1437859E-001  0.8283264E+02  0.7546771E-02  0.1321200E+00
          1   -1    0    0  501    0  0.00000000000E+00  0.00000000000E+00  0.77532872455E+02  0.77532872455E+02  0.00000000000E+00 0. -1.
         -1   -1    0    0    0  501 -0.00000000000E+00 -0.00000000000E+00 -0.15412511564E+03  0.15412511564E+03  0.00000000000E+00 0.  1.
         24    1    1    2    0    0 -0.10268071130E+02 -0.16988120275E+02 -0.11388071383E+03  0.14081925455E+03  0.80419002446E+02 0.  0.
        -24    1    1    2    0    0  0.10268071130E+02  0.16988120275E+02  0.37288470643E+02  0.90838733547E+02  0.80419002446E+02 0.  0.
<mgrwt>
<rscale>  0 0.82832635E+02</rscale>
<asrwt>0</asrwt>
<pdfrwt beam="1">  1        1 0.11928134E-01 0.82832635E+02</pdfrwt>
<pdfrwt beam="2">  1       -1 0.23711556E-01 0.82832635E+02</pdfrwt>
<totfact> 0.69939542E+03</totfact>
</mgrwt>
</event>
<event>
 4    1  0.1437859E-001  0.8192484E+02  0.7546771E-02  0.1323676E+00
          2   -1    0    0  501    0  0.00000000000E+00  0.00000000000E+00  0.15182140355E+03  0.15182140355E+03  0.00000000000E+00 0. -1.
         -2   -1    0    0    0  501 -0.00000000000E+00 -0.00000000000E+00 -0.52438168459E+02  0.52438168459E+02  0.00000000000E+00 0.  1.
         24    1    1    2    0    0  0.30367369662E+01  0.15337613055E+02  0.90152939383E+02  0.12181638880E+03  0.80419002446E+02 0.  0.
        -24    1    1    2    0    0 -0.30367369662E+01 -0.15337613055E+02  0.92302957116E+01  0.82443183217E+02  0.80419002446E+02 0.  1.
<mgrwt>
<rscale>  0 0.81924844E+02</rscale>
<asrwt>0</asrwt>
<pdfrwt beam="1">  1        2 0.23357139E-01 0.81924844E+02</pdfrwt>
<pdfrwt beam="2">  1       -2 0.80674106E-02 0.81924844E+02</pdfrwt>
<totfact> 0.19104612E+04</totfact>
</mgrwt>
</event>
<event>
 4    1  0.1437859E-001  0.1169756E+03  0.7546771E-02  0.1248171E+00
          1   -1    0    0  501    0  0.00000000000E+00  0.00000000000E+00  0.14544368123E+03  0.14544368123E+03  0.00000000000E+00 0. -1.
         -1   -1    0    0    0  501 -0.00000000000E+00 -0.00000000000E+00 -0.17997625047E+03  0.17997625047E+03  0.00000000000E+00 0.  1.
         24    1    1    2    0    0  0.15605795541E+02  0.83501769194E+02 -0.12967353893E+03  0.17463828036E+03  0.80419002446E+02 0.  1.
        -24    1    1    2    0    0 -0.15605795541E+02 -0.83501769194E+02  0.95140969693E+02  0.15078165134E+03  0.80419002446E+02 0. -1.
<mgrwt>
<rscale>  0 0.11697565E+03</rscale>
<asrwt>0</asrwt>
<pdfrwt beam="1">  1        1 0.22375951E-01 0.11697565E+03</pdfrwt>
<pdfrwt beam="2">  1       -1 0.27688654E-01 0.11697565E+03</pdfrwt>
<totfact> 0.24917048E+03</totfact>
</mgrwt>
</event>
<event>
 4    1  0.1437859E-001  0.9568058E+02  0.7546771E-02  0.1289651E+00
         -1   -1    0    0    0  501 -0.00000000000E+00  0.00000000000E+00  0.13063475116E+02  0.13063475116E+02  0.00000000000E+00 0.  1.
          1   -1    0    0  501    0  0.00000000000E+00 -0.00000000000E+00 -0.74291107402E+03  0.74291107402E+03  0.00000000000E+00 0. -1.
         24    1    1    2    0    0 -0.48217029360E+02 -0.19043934735E+02 -0.45492575187E+03  0.46487870358E+03  0.80419002446E+02 0. -1.
        -24    1    1    2    0    0  0.48217029360E+02  0.19043934735E+02 -0.27492184704E+03  0.29109584556E+03  0.80419002446E+02 0.  1.
<mgrwt>
<rscale>  0 0.95680571E+02</rscale>
<asrwt>0</asrwt>
<pdfrwt beam="1">  1        1 0.11429400E+00 0.95680583E+02</pdfrwt>
<pdfrwt beam="2">  1       -1 0.20097657E-02 0.95680583E+02</pdfrwt>
<totfact> 0.16226491E+04</totfact>
</mgrwt>
</event>
<event>
 4    1  0.1437859E-001  0.1047960E+03  0.7546771E-02  0.1270522E+00
         -2   -1    0    0    0  501 -0.00000000000E+00  0.00000000000E+00  0.18863047126E+02  0.18863047126E+02  0.00000000000E+00 0.  1.
          2   -1    0    0  501    0  0.00000000000E+00 -0.00000000000E+00 -0.60178860435E+03  0.60178860435E+03  0.00000000000E+00 0. -1.
         24    1    1    2    0    0 -0.10727454272E+02 -0.66331762406E+02 -0.34744121309E+03  0.36290163059E+03  0.80419002446E+02 0. -1.
        -24    1    1    2    0    0  0.10727454272E+02  0.66331762406E+02 -0.23548434413E+03  0.25775002088E+03  0.80419002446E+02 0.  0.
<mgrwt>
<rscale>  0 0.10479598E+03</rscale>
<asrwt>0</asrwt>
<pdfrwt beam="1">  1        2 0.92582884E-01 0.10479598E+03</pdfrwt>
<pdfrwt beam="2">  1       -2 0.29020066E-02 0.10479598E+03</pdfrwt>
<totfact> 0.20620587E+04</totfact>
</mgrwt>
</event>
<event>
 4    1  0.1437859E-001  0.1055141E+03  0.7546771E-02  0.1269110E+00
          2   -1    0    0  501    0  0.00000000000E+00  0.00000000000E+00  0.93344649032E+02  0.93344649032E+02  0.00000000000E+00 0. -1.
         -2   -1    0    0    0  501 -0.00000000000E+00 -0.00000000000E+00 -0.12469602010E+03  0.12469602010E+03  0.00000000000E+00 0.  1.
         24    1    1    2    0    0  0.83395688504E+01 -0.67797281722E+02  0.70655240511E+01  0.10575044871E+03  0.80419002446E+02 0.  0.
        -24    1    1    2    0    0 -0.83395688504E+01  0.67797281722E+02 -0.38416895118E+02  0.11229022042E+03  0.80419002446E+02 0. -1.
<mgrwt>
<rscale>  0 0.10551415E+03</rscale>
<asrwt>0</asrwt>
<pdfrwt beam="1">  1        2 0.14360715E-01 0.10551415E+03</pdfrwt>
<pdfrwt beam="2">  1       -2 0.19184003E-01 0.10551415E+03</pdfrwt>
<totfact> 0.85541203E+03</totfact>
</mgrwt>
</event>
<event>
 4    1  0.1437859E-001  0.8331297E+02  0.7546771E-02  0.1319904E+00
         -1   -1    0    0    0  501 -0.00000000000E+00  0.00000000000E+00  0.85277549753E+02  0.85277549753E+02  0.00000000000E+00 0.  1.
          1   -1    0    0  501    0  0.00000000000E+00 -0.00000000000E+00 -0.10128713945E+03  0.10128713945E+03  0.00000000000E+00 0. -1.
         24    1    1    2    0    0  0.14597841020E+01 -0.21718651111E+02 -0.49345543358E+02  0.96829899201E+02  0.80419002446E+02 0. -1.
        -24    1    1    2    0    0 -0.14597841020E+01  0.21718651111E+02  0.33335953661E+02  0.89734790001E+02  0.80419002446E+02 0.  0.
<mgrwt>
<rscale>  0 0.83312955E+02</rscale>
<asrwt>0</asrwt>
<pdfrwt beam="1">  1        1 0.15582637E-01 0.83312965E+02</pdfrwt>
<pdfrwt beam="2">  1       -1 0.13119623E-01 0.83312965E+02</pdfrwt>
<totfact> 0.12566777E+04</totfact>
</mgrwt>
</event>
<event>
 4    1  0.1437859E-001  0.1005624E+03  0.7546771E-02  0.1279118E+00
         -2   -1    0    0    0  501 -0.00000000000E+00  0.00000000000E+00  0.14243521657E+02  0.14243521657E+02  0.00000000000E+00 0.  1.
          2   -1    0    0  501    0  0.00000000000E+00 -0.00000000000E+00 -0.88697692134E+03  0.88697692134E+03  0.00000000000E+00 0. -1.
         24    1    1    2    0    0 -0.42582224540E+02  0.42805776235E+02 -0.63765204835E+03  0.64553305961E+03  0.80419002446E+02 0. -1.
        -24    1    1    2    0    0  0.42582224540E+02 -0.42805776235E+02 -0.23508135133E+03  0.25568738339E+03  0.80419002446E+02 0.  1.
<mgrwt>
<rscale>  0 0.10056240E+03</rscale>
<asrwt>0</asrwt>
<pdfrwt beam="1">  1        2 0.13645800E+00 0.10056240E+03</pdfrwt>
<pdfrwt beam="2">  1       -2 0.21913108E-02 0.10056240E+03</pdfrwt>
<totfact> 0.19432932E+04</totfact>
</mgrwt>
</event>
<event>
 4    1  0.1437859E-001  0.1008988E+03  0.7546771E-02  0.1278417E+00
         -2   -1    0    0    0  501 -0.00000000000E+00  0.00000000000E+00  0.28495316555E+01  0.28495316555E+01  0.00000000000E+00 0.  1.
          2   -1    0    0  501    0  0.00000000000E+00 -0.00000000000E+00 -0.37245565145E+04  0.37245565145E+04  0.00000000000E+00 0. -1.
         24    1    1    2    0    0  0.36707331409E+02 -0.48640829872E+02 -0.22371495613E+04  0.22394237504E+04  0.80419002446E+02 0. -1.
        -24    1    1    2    0    0 -0.36707331409E+02  0.48640829872E+02 -0.14845574216E+04  0.14879822957E+04  0.80419002446E+02 0.  1.
<mgrwt>
<rscale>  0 0.10089883E+03</rscale>
<asrwt>0</asrwt>
<pdfrwt beam="1">  1        2 0.57300881E+00 0.10089883E+03</pdfrwt>
<pdfrwt beam="2">  1       -2 0.43838939E-03 0.10089883E+03</pdfrwt>
<totfact> 0.50980851E+03</totfact>
</mgrwt>
</event>
<event>
 4    1  0.1437859E-001  0.8194980E+02  0.7546771E-02  0.1323608E+00
          2   -1    0    0  501    0  0.00000000000E+00  0.00000000000E+00  0.17351261280E+03  0.17351261280E+03  0.00000000000E+00 0. -1.
         -2   -1    0    0    0  501 -0.00000000000E+00 -0.00000000000E+00 -0.49322394672E+02  0.49322394672E+02  0.00000000000E+00 0.  1.
         24    1    1    2    0    0 -0.14067420492E+02 -0.71173942623E+01  0.10400523889E+02  0.82607121194E+02  0.80419002446E+02 0.  0.
        -24    1    1    2    0    0  0.14067420492E+02  0.71173942623E+01  0.11378969424E+03  0.14022788628E+03  0.80419002446E+02 0. -1.
<mgrwt>
<rscale>  0 0.81949785E+02</rscale>
<asrwt>0</asrwt>
<pdfrwt beam="1">  1        2 0.26694248E-01 0.81949795E+02</pdfrwt>
<pdfrwt beam="2">  1       -2 0.75880608E-02 0.81949795E+02</pdfrwt>
<totfact> 0.18140807E+04</totfact>
</mgrwt>
</event>
<event>
 4    1  0.1437859E-001  0.9881904E+02  0.7546771E-02  0.1282799E+00
         -1   -1    0    0    0  501 -0.00000000000E+00  0.00000000000E+00  0.85879141354E+01  0.85879141354E+01  0.00000000000E+00 0.  1.
          1   -1    0    0  501    0  0.00000000000E+00 -0.00000000000E+00 -0.19303827415E+04  0.19303827415E+04  0.00000000000E+00 0. -1.
         24    1    1    2    0    0  0.48934471481E+02  0.30056693257E+02 -0.33940309747E+03  0.35349634487E+03  0.80419002446E+02 0.  1.
        -24    1    1    2    0    0 -0.48934471481E+02 -0.30056693257E+02 -0.15823917299E+04  0.15854743107E+04  0.80419002446E+02 0. -1.
<mgrwt>
<rscale>  0 0.98819043E+02</rscale>
<asrwt>0</asrwt>
<pdfrwt beam="1">  1        1 0.29698241E+00 0.98819043E+02</pdfrwt>
<pdfrwt beam="2">  1       -1 0.13212156E-02 0.98819043E+02</pdfrwt>
<totfact> 0.46131395E+03</totfact>
</mgrwt>
</event>
<event>
 4    1  0.1437859E-001  0.9824299E+02  0.7546771E-02  0.1284035E+00
         -2   -1    0    0    0  501 -0.00000000000E+00  0.00000000000E+00  0.31423363031E+02  0.31423363031E+02  0.00000000000E+00 0.  1.
          2   -1    0    0  501    0  0.00000000000E+00 -0.00000000000E+00 -0.34357844103E+03  0.34357844103E+03  0.00000000000E+00 0. -1.
         24    1    1    2    0    0  0.43181242454E+02  0.36329738939E+02 -0.21713106800E+03  0.23832244182E+03  0.80419002446E+02 0. -1.
        -24    1    1    2    0    0 -0.43181242454E+02 -0.36329738939E+02 -0.95024010001E+02  0.13667936224E+03  0.80419002446E+02 0.  0.
<mgrwt>
<rscale>  0 0.98242993E+02</rscale>
<asrwt>0</asrwt>
<pdfrwt beam="1">  1        2 0.52858224E-01 0.98242993E+02</pdfrwt>
<pdfrwt beam="2">  1       -2 0.48343634E-02 0.98242993E+02</pdfrwt>
<totfact> 0.17685382E+04</totfact>
</mgrwt>
</event>
<event>
 4    1  0.1437859E-001  0.1067704E+03  0.7546771E-02  0.1266670E+00
         -1   -1    0    0    0  501 -0.00000000000E+00  0.00000000000E+00  0.96026278037E+01  0.96026278037E+01  0.00000000000E+00 0.  1.
          1   -1    0    0  501    0  0.00000000000E+00 -0.00000000000E+00 -0.18324232286E+04  0.18324232286E+04  0.00000000000E+00 0. -1.
         24    1    1    2    0    0  0.20638284351E+02  0.67132429566E+02 -0.36487387702E+03  0.38017478081E+03  0.80419002446E+02 0.  1.
        -24    1    1    2    0    0 -0.20638284351E+02 -0.67132429566E+02 -0.14579467238E+04  0.14618510756E+04  0.80419002446E+02 0. -1.
<mgrwt>
<rscale>  0 0.10677040E+03</rscale>
<asrwt>0</asrwt>
<pdfrwt beam="1">  1        1 0.28191134E+00 0.10677040E+03</pdfrwt>
<pdfrwt beam="2">  1       -1 0.14773269E-02 0.10677040E+03</pdfrwt>
<totfact> 0.45450556E+03</totfact>
</mgrwt>
</event>
<event>
 4    1  0.1437859E-001  0.2710329E+03  0.7546771E-02  0.1100690E+00
         -2   -1    0    0    0  501 -0.00000000000E+00  0.00000000000E+00  0.21965238397E+03  0.21965238397E+03  0.00000000000E+00 0.  1.
          2   -1    0    0  501    0  0.00000000000E+00 -0.00000000000E+00 -0.36991932411E+03  0.36991932411E+03  0.00000000000E+00 0. -1.
         24    1    1    2    0    0 -0.20367266112E+03  0.15971550579E+03 -0.16643731029E+03  0.31805689725E+03  0.80419002446E+02 0. -1.
        -24    1    1    2    0    0  0.20367266112E+03 -0.15971550579E+03  0.16170370146E+02  0.27151481084E+03  0.80419002446E+02 0.  1.
<mgrwt>
<rscale>  0 0.27103286E+03</rscale>
<asrwt>0</asrwt>
<pdfrwt beam="1">  1        2 0.56910665E-01 0.27103286E+03</pdfrwt>
<pdfrwt beam="2">  1       -2 0.33792675E-01 0.27103286E+03</pdfrwt>
<totfact> 0.71585826E+02</totfact>
</mgrwt>
</event>
<event>
 4    1  0.1437859E-001  0.1328129E+03  0.7546771E-02  0.1223341E+00
          1   -1    0    0  501    0  0.00000000000E+00  0.00000000000E+00  0.31800285345E+03  0.31800285345E+03  0.00000000000E+00 0. -1.
         -1   -1    0    0    0  501 -0.00000000000E+00 -0.00000000000E+00 -0.13901613647E+03  0.13901613647E+03  0.00000000000E+00 0.  1.
         24    1    1    2    0    0  0.93765345416E+02  0.48786335249E+02 -0.87655246609E+02  0.15913109288E+03  0.80419002446E+02 0.  1.
        -24    1    1    2    0    0 -0.93765345416E+02 -0.48786335249E+02  0.26664196358E+03  0.29788789705E+03  0.80419002446E+02 0. -1.
<mgrwt>
<rscale>  0 0.13281289E+03</rscale>
<asrwt>0</asrwt>
<pdfrwt beam="1">  1        1 0.48923516E-01 0.13281289E+03</pdfrwt>
<pdfrwt beam="2">  1       -1 0.21387098E-01 0.13281289E+03</pdfrwt>
<totfact> 0.14469657E+03</totfact>
</mgrwt>
</event>
<event>
 4    1  0.1437859E-001  0.8308290E+02  0.7546771E-02  0.1320523E+00
          1   -1    0    0  501    0  0.00000000000E+00  0.00000000000E+00  0.11808197673E+04  0.11808197673E+04  0.00000000000E+00 0. -1.
         -1   -1    0    0    0  501 -0.00000000000E+00 -0.00000000000E+00 -0.10576387058E+02  0.10576387058E+02  0.00000000000E+00 0.  1.
         24    1    1    2    0    0  0.19086125335E+02  0.84422837319E+01  0.18672319468E+03  0.20437299166E+03  0.80419002446E+02 0.  1.
        -24    1    1    2    0    0 -0.19086125335E+02 -0.84422837319E+01  0.98352018561E+03  0.98702316275E+03  0.80419002446E+02 0. -1.
<mgrwt>
<rscale>  0 0.83082900E+02</rscale>
<asrwt>0</asrwt>
<pdfrwt beam="1">  1        1 0.18166448E+00 0.83082900E+02</pdfrwt>
<pdfrwt beam="2">  1       -1 0.16271374E-02 0.83082900E+02</pdfrwt>
<totfact> 0.10276244E+04</totfact>
</mgrwt>
</event>
<event>
 4    1  0.1437859E-001  0.1007040E+03  0.7546771E-02  0.1278822E+00
         -1   -1    0    0    0  501 -0.00000000000E+00  0.00000000000E+00  0.36588500833E+02  0.36588500833E+02  0.00000000000E+00 0.  1.
          1   -1    0    0  501    0  0.00000000000E+00 -0.00000000000E+00 -0.40594391663E+03  0.40594391663E+03  0.00000000000E+00 0. -1.
         24    1    1    2    0    0  0.28316560822E+01 -0.60548045951E+02 -0.60056195482E+02  0.11725206486E+03  0.80419002446E+02 0.  1.
        -24    1    1    2    0    0 -0.28316560822E+01  0.60548045951E+02 -0.30929922032E+03  0.32528035260E+03  0.80419002446E+02 0. -1.
<mgrwt>
<rscale>  0 0.10070402E+03</rscale>
<asrwt>0</asrwt>
<pdfrwt beam="1">  1        1 0.62452910E-01 0.10070402E+03</pdfrwt>
<pdfrwt beam="2">  1       -1 0.56290002E-02 0.10070402E+03</pdfrwt>
<totfact> 0.81564094E+03</totfact>
</mgrwt>
</event>
<event>
 4    1  0.1437859E-001  0.8430735E+02  0.7546771E-02  0.1317254E+00
          1   -1    0    0  501    0  0.00000000000E+00  0.00000000000E+00  0.32532429126E+02  0.32532429126E+02  0.00000000000E+00 0. -1.
         -1   -1    0    0    0  501 -0.00000000000E+00 -0.00000000000E+00 -0.39220563860E+03  0.39220563860E+03  0.00000000000E+00 0.  1.
         24    1    1    2    0    0 -0.23812359869E+02  0.85723036128E+01 -0.32117643119E+03  0.33205726731E+03  0.80419002446E+02 0.  1.
        -24    1    1    2    0    0  0.23812359869E+02 -0.85723036128E+01 -0.38496778282E+02  0.92680800408E+02  0.80419002446E+02 0. -1.
<mgrwt>
<rscale>  0 0.84307347E+02</rscale>
<asrwt>0</asrwt>
<pdfrwt beam="1">  1        1 0.50049891E-02 0.84307347E+02</pdfrwt>
<pdfrwt beam="2">  1       -1 0.60339330E-01 0.84307347E+02</pdfrwt>
<totfact> 0.44117042E+03</totfact>
</mgrwt>
</event>
<event>
 4    1  0.1437859E-001  0.1032271E+03  0.7546771E-02  0.1273652E+00
          4   -1    0    0  501    0  0.00000000000E+00  0.00000000000E+00  0.39539283532E+02  0.39539283532E+02  0.00000000000E+00 0. -1.
         -4   -1    0    0    0  501 -0.00000000000E+00 -0.00000000000E+00 -0.32119709368E+03  0.32119709368E+03  0.00000000000E+00 0.  1.
         24    1    1    2    0    0  0.64719388881E+02 -0.15172489711E+00 -0.68467488515E+02  0.12386942825E+03  0.80419002446E+02 0. -1.
        -24    1    1    2    0    0 -0.64719388881E+02  0.15172489711E+00 -0.21319032163E+03  0.23686694896E+03  0.80419002446E+02 0.  1.
<mgrwt>
<rscale>  0 0.10322712E+03</rscale>
<asrwt>0</asrwt>
<pdfrwt beam="1">  1        4 0.60829667E-02 0.10322712E+03</pdfrwt>
<pdfrwt beam="2">  1       -4 0.49414938E-01 0.10322712E+03</pdfrwt>
<totfact> 0.10710321E+03</totfact>
</mgrwt>
</event>
<event>
 4    1  0.1437859E-001  0.8288395E+02  0.7546771E-02  0.1321061E+00
          2   -1    0    0  501    0  0.00000000000E+00  0.00000000000E+00  0.44380144146E+02  0.44380144146E+02  0.00000000000E+00 0. -1.
         -2   -1    0    0    0  501 -0.00000000000E+00 -0.00000000000E+00 -0.19225458803E+03  0.19225458803E+03  0.00000000000E+00 0.  1.
         24    1    1    2    0    0  0.19727438366E+02 -0.36552763817E+01 -0.21709448907E+02  0.85679921779E+02  0.80419002446E+02 0. -1.
        -24    1    1    2    0    0 -0.19727438366E+02  0.36552763817E+01 -0.12616499498E+03  0.15095481040E+03  0.80419002446E+02 0.  0.
<mgrwt>
<rscale>  0 0.82883948E+02</rscale>
<asrwt>0</asrwt>
<pdfrwt beam="1">  1        2 0.68277145E-02 0.82883948E+02</pdfrwt>
<pdfrwt beam="2">  1       -2 0.29577629E-01 0.82883948E+02</pdfrwt>
<totfact> 0.97825305E+03</totfact>
</mgrwt>
</event>
<event>
 4    1  0.1437859E-001  0.8480984E+02  0.7546771E-02  0.1315931E+00
          2   -1    0    0  501    0  0.00000000000E+00  0.00000000000E+00  0.17215435300E+04  0.17215435300E+04  0.00000000000E+00 0. -1.
         -2   -1    0    0    0  501 -0.00000000000E+00 -0.00000000000E+00 -0.68810033882E+01  0.68810033882E+01  0.00000000000E+00 0.  1.
         24    1    1    2    0    0 -0.91113259926E+01  0.25347108844E+02  0.13989743483E+04  0.14015426984E+04  0.80419002446E+02 0.  0.
        -24    1    1    2    0    0  0.91113259926E+01 -0.25347108844E+02  0.31568817836E+03  0.32688183507E+03  0.80419002446E+02 0.  1.
<mgrwt>
<rscale>  0 0.84809835E+02</rscale>
<asrwt>0</asrwt>
<pdfrwt beam="1">  1        2 0.26485251E+00 0.84809835E+02</pdfrwt>
<pdfrwt beam="2">  1       -2 0.10586173E-02 0.84809835E+02</pdfrwt>
<totfact> 0.19212997E+04</totfact>
</mgrwt>
</event>
<event>
 4    1  0.1437859E-001  0.1421183E+03  0.7546771E-02  0.1210507E+00
         -1   -1    0    0    0  501 -0.00000000000E+00  0.00000000000E+00  0.40906938130E+02  0.40906938130E+02  0.00000000000E+00 0.  1.
          1   -1    0    0  501    0  0.00000000000E+00 -0.00000000000E+00 -0.63344853627E+03  0.63344853627E+03  0.00000000000E+00 0. -1.
         24    1    1    2    0    0  0.11424566673E+03  0.26044801533E+02 -0.13792519283E+03  0.19804287118E+03  0.80419002446E+02 0.  1.
        -24    1    1    2    0    0 -0.11424566673E+03 -0.26044801533E+02 -0.45461640530E+03  0.47631260321E+03  0.80419002446E+02 0. -1.
<mgrwt>
<rscale>  0 0.14211833E+03</rscale>
<asrwt>0</asrwt>
<pdfrwt beam="1">  1        1 0.97453614E-01 0.14211833E+03</pdfrwt>
<pdfrwt beam="2">  1       -1 0.62933755E-02 0.14211833E+03</pdfrwt>
<totfact> 0.39425399E+03</totfact>
</mgrwt>
</event>
<event>
 4    1  0.1437859E-001  0.9193234E+02  0.7546771E-02  0.1298239E+00
          1   -1    0    0  501    0  0.00000000000E+00  0.00000000000E+00  0.15050835501E+04  0.15050835501E+04  0.00000000000E+00 0. -1.
         -1   -1    0    0    0  501 -0.00000000000E+00 -0.00000000000E+00 -0.16901931065E+02  0.16901931065E+02  0.00000000000E+00 0.  1.
         24    1    1    2    0    0  0.44089830834E+02 -0.63580893232E+01  0.12222917497E+03  0.15294288362E+03  0.80419002446E+02 0.  1.
        -24    1    1    2    0    0 -0.44089830834E+02  0.63580893232E+01  0.13659524441E+04  0.13690425976E+04  0.80419002446E+02 0. -1.
<mgrwt>
<rscale>  0 0.91932336E+02</rscale>
<asrwt>0</asrwt>
<pdfrwt beam="1">  1        1 0.23155121E+00 0.91932336E+02</pdfrwt>
<pdfrwt beam="2">  1       -1 0.26002983E-02 0.91932336E+02</pdfrwt>
<totfact> 0.32491844E+03</totfact>
</mgrwt>
</event>
<event>
 4    1  0.1437859E-001  0.8844076E+02  0.7546771E-02  0.1306672E+00
         -2   -1    0    0    0  501 -0.00000000000E+00  0.00000000000E+00  0.10646472437E+02  0.10646472437E+02  0.00000000000E+00 0.  1.
          2   -1    0    0  501    0  0.00000000000E+00 -0.00000000000E+00 -0.13240742066E+04  0.13240742066E+04  0.00000000000E+00 0. -1.
         24    1    1    2    0    0 -0.36211244525E+02  0.65800686960E+01 -0.11019665753E+04  0.11055098826E+04  0.80419002446E+02 0. -1.
        -24    1    1    2    0    0  0.36211244525E+02 -0.65800686960E+01 -0.21146115889E+03  0.22921079644E+03  0.80419002446E+02 0.  1.
<mgrwt>
<rscale>  0 0.88440757E+02</rscale>
<asrwt>0</asrwt>
<pdfrwt beam="1">  1        2 0.20370383E+00 0.88440757E+02</pdfrwt>
<pdfrwt beam="2">  1       -2 0.16379180E-02 0.88440757E+02</pdfrwt>
<totfact> 0.16527428E+04</totfact>
</mgrwt>
</event>
<event>
 4    1  0.1437859E-001  0.1675424E+03  0.7546771E-02  0.1180435E+00
         -2   -1    0    0    0  501 -0.00000000000E+00  0.00000000000E+00  0.44890901748E+02  0.44890901748E+02  0.00000000000E+00 0.  1.
          2   -1    0    0  501    0  0.00000000000E+00 -0.00000000000E+00 -0.11929574922E+04  0.11929574922E+04  0.00000000000E+00 0. -1.
         24    1    1    2    0    0  0.94259744106E+02  0.11277569173E+03 -0.10009729908E+04  0.10148977290E+04  0.80419002446E+02 0. -1.
        -24    1    1    2    0    0 -0.94259744106E+02 -0.11277569173E+03 -0.14709359967E+03  0.22295066500E+03  0.80419002446E+02 0.  1.
<mgrwt>
<rscale>  0 0.16754245E+03</rscale>
<asrwt>0</asrwt>
<pdfrwt beam="1">  1        2 0.18353192E+00 0.16754245E+03</pdfrwt>
<pdfrwt beam="2">  1       -2 0.69062926E-02 0.16754245E+03</pdfrwt>
<totfact> 0.23901353E+03</totfact>
</mgrwt>
</event>
<event>
 4    1  0.1437859E-001  0.8787623E+02  0.7546771E-02  0.1308078E+00
          2   -1    0    0  501    0  0.00000000000E+00  0.00000000000E+00  0.38239870519E+02  0.38239870519E+02  0.00000000000E+00 0. -1.
         -2   -1    0    0    0  501 -0.00000000000E+00 -0.00000000000E+00 -0.54220172990E+03  0.54220172990E+03  0.00000000000E+00 0.  1.
         24    1    1    2    0    0 -0.48052573155E+01 -0.35098784777E+02 -0.22073269195E+02  0.90606072413E+02  0.80419002446E+02 0. -1.
        -24    1    1    2    0    0  0.48052573155E+01  0.35098784777E+02 -0.48188859019E+03  0.48983552801E+03  0.80419002446E+02 0.  1.
<mgrwt>
<rscale>  0 0.87876226E+02</rscale>
<asrwt>0</asrwt>
<pdfrwt beam="1">  1        2 0.58830568E-02 0.87876226E+02</pdfrwt>
<pdfrwt beam="2">  1       -2 0.83415654E-01 0.87876226E+02</pdfrwt>
<totfact> 0.15469530E+03</totfact>
</mgrwt>
</event>
<event>
 4    1  0.1437859E-001  0.1198124E+03  0.7546771E-02  0.1243407E+00
         -1   -1    0    0    0  501 -0.00000000000E+00  0.00000000000E+00  0.31365335339E+03  0.31365335339E+03  0.00000000000E+00 0.  1.
          1   -1    0    0  501    0  0.00000000000E+00 -0.00000000000E+00 -0.63149839662E+02  0.63149839662E+02  0.00000000000E+00 0. -1.
         24    1    1    2    0    0 -0.38645320419E+02 -0.79964621659E+02  0.22409728926E+03  0.25411535277E+03  0.80419002446E+02 0.  1.
        -24    1    1    2    0    0  0.38645320419E+02  0.79964621659E+02  0.26406224471E+02  0.12268784028E+03  0.80419002446E+02 0. -1.
<mgrwt>
<rscale>  0 0.11981243E+03</rscale>
<asrwt>0</asrwt>
<pdfrwt beam="1">  1        1 0.97153601E-02 0.11981243E+03</pdfrwt>
<pdfrwt beam="2">  1       -1 0.48254361E-01 0.11981243E+03</pdfrwt>
<totfact> 0.28081827E+03</totfact>
</mgrwt>
</event>
<event>
 4    1  0.1437859E-001  0.8476572E+02  0.7546771E-02  0.1316046E+00
         -1   -1    0    0    0  501 -0.00000000000E+00  0.00000000000E+00  0.54922322260E+02  0.54922322260E+02  0.00000000000E+00 0.  1.
          1   -1    0    0  501    0  0.00000000000E+00 -0.00000000000E+00 -0.13473461519E+03  0.13473461519E+03  0.00000000000E+00 0. -1.
         24    1    1    2    0    0  0.12585167482E+02  0.23656393283E+02 -0.23753210989E+02  0.88030917128E+02  0.80419002446E+02 0.  0.
        -24    1    1    2    0    0 -0.12585167482E+02 -0.23656393283E+02 -0.56059081938E+02  0.10162602032E+03  0.80419002446E+02 0.  0.
<mgrwt>
<rscale>  0 0.84765720E+02</rscale>
<asrwt>0</asrwt>
<pdfrwt beam="1">  1        1 0.20728402E-01 0.84765720E+02</pdfrwt>
<pdfrwt beam="2">  1       -1 0.84495882E-02 0.84765720E+02</pdfrwt>
<totfact> 0.17083701E+04</totfact>
</mgrwt>
</event>
<event>
 4    1  0.1437859E-001  0.9976709E+02  0.7546771E-02  0.1280786E+00
         -2   -1    0    0    0  501 -0.00000000000E+00  0.00000000000E+00  0.44315783777E+03  0.44315783777E+03  0.00000000000E+00 0.  1.
          2   -1    0    0  501    0  0.00000000000E+00 -0.00000000000E+00 -0.33015558448E+02  0.33015558448E+02  0.00000000000E+00 0. -1.
         24    1    1    2    0    0  0.36967623328E+02  0.46039666755E+02  0.70451138074E+02  0.12213449513E+03  0.80419002446E+02 0. -1.
        -24    1    1    2    0    0 -0.36967623328E+02 -0.46039666755E+02  0.33969114125E+03  0.35403890109E+03  0.80419002446E+02 0.  1.
<mgrwt>
<rscale>  0 0.99767089E+02</rscale>
<asrwt>0</asrwt>
<pdfrwt beam="1">  1        2 0.50793170E-02 0.99767089E+02</pdfrwt>
<pdfrwt beam="2">  1       -2 0.68178124E-01 0.99767089E+02</pdfrwt>
<totfact> 0.29048461E+03</totfact>
</mgrwt>
</event>
<event>
 4    1  0.1437859E-001  0.9015405E+02  0.7546771E-02  0.1302479E+00
         -1   -1    0    0    0  501 -0.00000000000E+00  0.00000000000E+00  0.16363531438E+02  0.16363531438E+02  0.00000000000E+00 0.  1.
          1   -1    0    0  501    0  0.00000000000E+00 -0.00000000000E+00 -0.77418145676E+03  0.77418145676E+03  0.00000000000E+00 0. -1.
         24    1    1    2    0    0 -0.36861926509E+02 -0.17370541368E+02 -0.14226642950E+03  0.16842651291E+03  0.80419002446E+02 0.  1.
        -24    1    1    2    0    0  0.36861926509E+02  0.17370541368E+02 -0.61555149583E+03  0.62211847529E+03  0.80419002446E+02 0. -1.
<mgrwt>
<rscale>  0 0.90154053E+02</rscale>
<asrwt>0</asrwt>
<pdfrwt beam="1">  1        1 0.11910483E+00 0.90154053E+02</pdfrwt>
<pdfrwt beam="2">  1       -1 0.25174666E-02 0.90154053E+02</pdfrwt>
<totfact> 0.11018756E+04</totfact>
</mgrwt>
</event>
<event>
 4    1  0.1437859E-001  0.8465563E+02  0.7546771E-02  0.1316336E+00
          1   -1    0    0  501    0  0.00000000000E+00  0.00000000000E+00  0.38248997043E+02  0.38248997043E+02  0.00000000000E+00 0. -1.
         -1   -1    0    0    0  501 -0.00000000000E+00 -0.00000000000E+00 -0.41891185188E+03  0.41891185188E+03  0.00000000000E+00 0.  1.
         24    1    1    2    0    0 -0.14769238887E+02 -0.21936851456E+02 -0.20391291055E+02  0.87076842928E+02  0.80419002446E+02 0.  0.
        -24    1    1    2    0    0  0.14769238887E+02  0.21936851456E+02 -0.36027156378E+03  0.37008400599E+03  0.80419002446E+02 0.  1.
<mgrwt>
<rscale>  0 0.84655618E+02</rscale>
<asrwt>0</asrwt>
<pdfrwt beam="1">  1        1 0.58844609E-02 0.84655628E+02</pdfrwt>
<pdfrwt beam="2">  1       -1 0.64447979E-01 0.84655628E+02</pdfrwt>
<totfact> 0.31341201E+03</totfact>
</mgrwt>
</event>
<event>
 4    1  0.1437859E-001  0.9862106E+02  0.7546771E-02  0.1283223E+00
          2   -1    0    0  501    0  0.00000000000E+00  0.00000000000E+00  0.37226685199E+02  0.37226685199E+02  0.00000000000E+00 0. -1.
         -2   -1    0    0    0  501 -0.00000000000E+00 -0.00000000000E+00 -0.11730782201E+04  0.11730782201E+04  0.00000000000E+00 0.  1.
         24    1    1    2    0    0  0.33827459116E+02 -0.45984789235E+02 -0.34402065634E+02  0.10444910677E+03  0.80419002446E+02 0. -1.
        -24    1    1    2    0    0 -0.33827459116E+02  0.45984789235E+02 -0.11014494692E+04  0.11058557985E+04  0.80419002446E+02 0.  1.
<mgrwt>
<rscale>  0 0.98621062E+02</rscale>
<asrwt>0</asrwt>
<pdfrwt beam="1">  1        2 0.57271834E-02 0.98621062E+02</pdfrwt>
<pdfrwt beam="2">  1       -2 0.18047354E+00 0.98621062E+02</pdfrwt>
<totfact> 0.24986454E+02</totfact>
</mgrwt>
</event>
<event>
 4    1  0.1437859E-001  0.8123709E+02  0.7546771E-02  0.1325577E+00
          2   -1    0    0  501    0  0.00000000000E+00  0.00000000000E+00  0.19561068875E+04  0.19561068875E+04  0.00000000000E+00 0. -1.
         -2   -1    0    0    0  501 -0.00000000000E+00 -0.00000000000E+00 -0.42441189401E+01  0.42441189401E+01  0.00000000000E+00 0.  1.
         24    1    1    2    0    0  0.59619711264E+01 -0.98338435400E+01  0.14198009785E+04  0.14221231607E+04  0.80419002446E+02 0.  1.
        -24    1    1    2    0    0 -0.59619711264E+01  0.98338435400E+01  0.53206179008E+03  0.53822784580E+03  0.80419002446E+02 0.  1.
<mgrwt>
<rscale>  0 0.81237095E+02</rscale>
<asrwt>0</asrwt>
<pdfrwt beam="1">  1        2 0.30093880E+00 0.81237095E+02</pdfrwt>
<pdfrwt beam="2">  1       -2 0.65294294E-03 0.81237095E+02</pdfrwt>
<totfact> 0.28880257E+04</totfact>
</mgrwt>
</event>
<event>
 4    1  0.1437859E-001  0.8788912E+02  0.7546771E-02  0.1308046E+00
          1   -1    0    0  501    0  0.00000000000E+00  0.00000000000E+00  0.35168386264E+03  0.35168386264E+03  0.00000000000E+00 0. -1.
         -1   -1    0    0    0  501 -0.00000000000E+00 -0.00000000000E+00 -0.22107082480E+02  0.22107082480E+02  0.00000000000E+00 0.  1.
         24    1    1    2    0    0 -0.35396550916E+02 -0.20883399747E+01  0.17980795131E+03  0.20013843281E+03  0.80419002446E+02 0.  1.
        -24    1    1    2    0    0  0.35396550916E+02  0.20883399747E+01  0.14976882885E+03  0.17365251231E+03  0.80419002446E+02 0. -1.
<mgrwt>
<rscale>  0 0.87889106E+02</rscale>
<asrwt>0</asrwt>
<pdfrwt beam="1">  1        1 0.54105206E-01 0.87889116E+02</pdfrwt>
<pdfrwt beam="2">  1       -1 0.34010899E-02 0.87889116E+02</pdfrwt>
<totfact> 0.20063272E+04</totfact>
</mgrwt>
</event>
<event>
 4    1  0.1437859E-001  0.1196241E+03  0.7546771E-02  0.1243718E+00
          2   -1    0    0  501    0  0.00000000000E+00  0.00000000000E+00  0.13892945102E+03  0.13892945102E+03  0.00000000000E+00 0. -1.
         -2   -1    0    0    0  501 -0.00000000000E+00 -0.00000000000E+00 -0.11896957572E+03  0.11896957572E+03  0.00000000000E+00 0.  1.
         24    1    1    2    0    0 -0.53478833211E+02  0.70588422109E+02  0.57222071618E+02  0.13260577805E+03  0.80419002446E+02 0. -1.
        -24    1    1    2    0    0  0.53478833211E+02 -0.70588422109E+02 -0.37262196323E+02  0.12529324869E+03  0.80419002446E+02 0.  1.
<mgrwt>
<rscale>  0 0.11962411E+03</rscale>
<asrwt>0</asrwt>
<pdfrwt beam="1">  1        2 0.21373762E-01 0.11962411E+03</pdfrwt>
<pdfrwt beam="2">  1       -2 0.18303012E-01 0.11962411E+03</pdfrwt>
<totfact> 0.59322589E+03</totfact>
</mgrwt>
</event>
<event>
 4    1  0.1437859E-001  0.9853220E+02  0.7546771E-02  0.1283413E+00
          2   -1    0    0  501    0  0.00000000000E+00  0.00000000000E+00  0.92015808922E+03  0.92015808922E+03  0.00000000000E+00 0. -1.
         -2   -1    0    0    0  501 -0.00000000000E+00 -0.00000000000E+00 -0.19961087028E+02  0.19961087028E+02  0.00000000000E+00 0.  1.
         24    1    1    2    0    0 -0.26579439805E+02  0.50347900746E+02  0.77284199713E+03  0.77909777705E+03  0.80419002446E+02 0. -1.
        -24    1    1    2    0    0  0.26579439805E+02 -0.50347900746E+02  0.12735500507E+03  0.16102139920E+03  0.80419002446E+02 0.  1.
<mgrwt>
<rscale>  0 0.98532196E+02</rscale>
<asrwt>0</asrwt>
<pdfrwt beam="1">  1        2 0.14156275E+00 0.98532196E+02</pdfrwt>
<pdfrwt beam="2">  1       -2 0.30709372E-02 0.98532196E+02</pdfrwt>
<totfact> 0.11340348E+04</totfact>
</mgrwt>
</event>
<event>
 4    1  0.1437859E-001  0.8302501E+02  0.7546771E-02  0.1320680E+00
         -3   -1    0    0    0  501 -0.00000000000E+00  0.00000000000E+00  0.23352105577E+03  0.23352105577E+03  0.00000000000E+00 0.  1.
          3   -1    0    0  501    0  0.00000000000E+00 -0.00000000000E+00 -0.63532555082E+02  0.63532555082E+02  0.00000000000E+00 0. -1.
         24    1    1    2    0    0 -0.13124181097E+02  0.15927692773E+02  0.19367108306E+03  0.21071696632E+03  0.80419002446E+02 0.  1.
        -24    1    1    2    0    0  0.13124181097E+02 -0.15927692773E+02 -0.23682582375E+02  0.86336644531E+02  0.80419002446E+02 0. -1.
<mgrwt>
<rscale>  0 0.83025005E+02</rscale>
<asrwt>0</asrwt>
<pdfrwt beam="1">  1        3 0.97742394E-02 0.83025005E+02</pdfrwt>
<pdfrwt beam="2">  1       -3 0.35926316E-01 0.83025005E+02</pdfrwt>
<totfact> 0.12321538E+03</totfact>
</mgrwt>
</event>
<event>
 4    1  0.1437859E-001  0.1154847E+03  0.7546771E-02  0.1250737E+00
          2   -1    0    0  501    0  0.00000000000E+00  0.00000000000E+00  0.21324218617E+04  0.21324218617E+04  0.00000000000E+00 0. -1.
         -2   -1    0    0    0  501 -0.00000000000E+00 -0.00000000000E+00 -0.87666857225E+01  0.87666857225E+01  0.00000000000E+00 0.  1.
         24    1    1    2    0    0  0.42170786959E+02  0.71352198411E+02  0.16349581155E+04  0.16390316553E+04  0.80419002446E+02 0. -1.
        -24    1    1    2    0    0 -0.42170786959E+02 -0.71352198411E+02  0.48869706047E+03  0.50215689218E+03  0.80419002446E+02 0.  1.
<mgrwt>
<rscale>  0 0.11548475E+03</rscale>
<asrwt>0</asrwt>
<pdfrwt beam="1">  1        2 0.32806449E+00 0.11548475E+03</pdfrwt>
<pdfrwt beam="2">  1       -2 0.13487226E-02 0.11548475E+03</pdfrwt>
<totfact> 0.85687875E+03</totfact>
</mgrwt>
</event>
<event>
 4    1  0.1437859E-001  0.1963599E+03  0.7546771E-02  0.1152847E+00
         -1   -1    0    0    0  501 -0.00000000000E+00  0.00000000000E+00  0.14491262040E+04  0.14491262040E+04  0.00000000000E+00 0.  1.
          1   -1    0    0  501    0  0.00000000000E+00 -0.00000000000E+00 -0.40032393360E+02  0.40032393360E+02  0.00000000000E+00 0. -1.
         24    1    1    2    0    0  0.46824477213E+01  0.17907560963E+03  0.11357334311E+04  0.11525830303E+04  0.80419002446E+02 0.  1.
        -24    1    1    2    0    0 -0.46824477213E+01 -0.17907560963E+03  0.27336037955E+03  0.33657556707E+03  0.80419002446E+02 0. -1.
<mgrwt>
<rscale>  0 0.19635991E+03</rscale>
<asrwt>0</asrwt>
<pdfrwt beam="1">  1        1 0.61588309E-02 0.19635991E+03</pdfrwt>
<pdfrwt beam="2">  1       -1 0.22294245E+00 0.19635991E+03</pdfrwt>
<totfact> 0.14830167E+02</totfact>
</mgrwt>
</event>
<event>
 4    1  0.1437859E-001  0.8203718E+02  0.7546771E-02  0.1323368E+00
          2   -1    0    0  501    0  0.00000000000E+00  0.00000000000E+00  0.11094347953E+03  0.11094347953E+03  0.00000000000E+00 0. -1.
         -2   -1    0    0    0  501 -0.00000000000E+00 -0.00000000000E+00 -0.74663215038E+02  0.74663215038E+02  0.00000000000E+00 0.  1.
         24    1    1    2    0    0 -0.15980350011E+02 -0.27406021748E+01  0.58327249827E+02  0.10065866338E+03  0.80419002446E+02 0. -1.
        -24    1    1    2    0    0  0.15980350011E+02  0.27406021748E+01 -0.22046985332E+02  0.84948031192E+02  0.80419002446E+02 0.  0.
<mgrwt>
<rscale>  0 0.82037177E+02</rscale>
<asrwt>0</asrwt>
<pdfrwt beam="1">  1        2 0.17068228E-01 0.82037177E+02</pdfrwt>
<pdfrwt beam="2">  1       -2 0.11486649E-01 0.82037177E+02</pdfrwt>
<totfact> 0.15688925E+04</totfact>
</mgrwt>
</event>
<event>
 4    1  0.3436321E-001  0.8264032E+02  0.7546771E-02  0.1321721E+00
          1   -1    0    0  501    0  0.00000000000E+00  0.00000000000E+00  0.11720930726E+04  0.11720930726E+04  0.00000000000E+00 0. -1.
         -1   -1    0    0    0  501 -0.00000000000E+00 -0.00000000000E+00 -0.69539430056E+02  0.69539430056E+02  0.00000000000E+00 0.  1.
         24    1    1    2    0    0 -0.10496137880E+02  0.15875701899E+02 -0.42961500729E+02  0.93140288385E+02  0.80419002446E+02 0.  1.
        -24    1    1    2    0    0  0.10496137880E+02 -0.15875701899E+02  0.11455151432E+04  0.11484922142E+04  0.80419002446E+02 0. -1.
<mgrwt>
<rscale>  0 0.82640322E+02</rscale>
<asrwt>0</asrwt>
<pdfrwt beam="1">  1        1 0.18032200E+00 0.82640322E+02</pdfrwt>
<pdfrwt beam="2">  1       -1 0.10698375E-01 0.82640322E+02</pdfrwt>
<totfact> 0.67234599E+02</totfact>
</mgrwt>
</event>
<event>
 4    1  0.1437859E-001  0.8110142E+02  0.7546771E-02  0.1325955E+00
          2   -1    0    0  501    0  0.00000000000E+00  0.00000000000E+00  0.22382448174E+04  0.22382448174E+04  0.00000000000E+00 0. -1.
         -2   -1    0    0    0  501 -0.00000000000E+00 -0.00000000000E+00 -0.30711427680E+01  0.30711427680E+01  0.00000000000E+00 0.  1.
         24    1    1    2    0    0 -0.10327704846E+02  0.18876825380E+01  0.13503437471E+04  0.13527770238E+04  0.80419002446E+02 0.  1.
        -24    1    1    2    0    0  0.10327704846E+02 -0.18876825380E+01  0.88482992753E+03  0.88853893636E+03  0.80419002446E+02 0.  1.
<mgrwt>
<rscale>  0 0.81101423E+02</rscale>
<asrwt>0</asrwt>
<pdfrwt beam="1">  1        2 0.34434405E+00 0.81101423E+02</pdfrwt>
<pdfrwt beam="2">  1       -2 0.47248529E-03 0.81101423E+02</pdfrwt>
<totfact> 0.32750884E+04</totfact>
</mgrwt>
</event>
<event>
 4    1  0.1437859E-001  0.9354779E+02  0.7546771E-02  0.1294481E+00
          1   -1    0    0  501    0  0.00000000000E+00  0.00000000000E+00  0.10705436230E+04  0.10705436230E+04  0.00000000000E+00 0. -1.
         -1   -1    0    0    0  501 -0.00000000000E+00 -0.00000000000E+00 -0.10077116034E+02  0.10077116034E+02  0.00000000000E+00 0.  1.
         24    1    1    2    0    0  0.47222991941E+02  0.73459282416E+01  0.29546061975E+03  0.30991638777E+03  0.80419002446E+02 0. -1.
        -24    1    1    2    0    0 -0.47222991941E+02 -0.73459282416E+01  0.76500588718E+03  0.77070435123E+03  0.80419002446E+02 0. -1.
<mgrwt>
<rscale>  0 0.93547793E+02</rscale>
<asrwt>0</asrwt>
<pdfrwt beam="1">  1        1 0.16469893E+00 0.93547793E+02</pdfrwt>
<pdfrwt beam="2">  1       -1 0.15503264E-02 0.93547793E+02</pdfrwt>
<totfact> 0.13214147E+04</totfact>
</mgrwt>
</event>
<event>
 4    1  0.1437859E-001  0.9193294E+02  0.7546771E-02  0.1298237E+00
          4   -1    0    0  501    0  0.00000000000E+00  0.00000000000E+00  0.12562639780E+03  0.12562639780E+03  0.00000000000E+00 0. -1.
         -4   -1    0    0    0  501 -0.00000000000E+00 -0.00000000000E+00 -0.85820414124E+02  0.85820414124E+02  0.00000000000E+00 0.  1.
         24    1    1    2    0    0  0.43645025470E+02  0.89197054818E+01  0.69048087197E+02  0.11497523078E+03  0.80419002446E+02 0. -1.
        -24    1    1    2    0    0 -0.43645025470E+02 -0.89197054818E+01 -0.29242103524E+02  0.96471581137E+02  0.80419002446E+02 0.  1.
<mgrwt>
<rscale>  0 0.91932939E+02</rscale>
<asrwt>0</asrwt>
<pdfrwt beam="1">  1        4 0.19327138E-01 0.91932939E+02</pdfrwt>
<pdfrwt beam="2">  1       -4 0.13203141E-01 0.91932939E+02</pdfrwt>
<totfact> 0.16931700E+03</totfact>
</mgrwt>
</event>
<event>
 4    1  0.1437859E-001  0.8291425E+02  0.7546771E-02  0.1320979E+00
         -1   -1    0    0    0  501 -0.00000000000E+00  0.00000000000E+00  0.26759171226E+02  0.26759171226E+02  0.00000000000E+00 0.  1.
          1   -1    0    0  501    0  0.00000000000E+00 -0.00000000000E+00 -0.29158587727E+03  0.29158587727E+03  0.00000000000E+00 0. -1.
         24    1    1    2    0    0 -0.20151227777E+02  0.12183031864E+01 -0.77524850304E+02  0.11351156158E+03  0.80419002446E+02 0.  1.
        -24    1    1    2    0    0  0.20151227777E+02 -0.12183031864E+01 -0.18730185574E+03  0.20483348692E+03  0.80419002446E+02 0. -1.
<mgrwt>
<rscale>  0 0.82914246E+02</rscale>
<asrwt>0</asrwt>
<pdfrwt beam="1">  1        1 0.44859367E-01 0.82914246E+02</pdfrwt>
<pdfrwt beam="2">  1       -1 0.41167954E-02 0.82914246E+02</pdfrwt>
<totfact> 0.19015023E+04</totfact>
</mgrwt>
</event>
<event>
 4    1  0.1437859E-001  0.1412451E+03  0.7546771E-02  0.1211663E+00
          2   -1    0    0  501    0  0.00000000000E+00  0.00000000000E+00  0.36499883632E+03  0.36499883632E+03  0.00000000000E+00 0. -1.
         -2   -1    0    0    0  501 -0.00000000000E+00 -0.00000000000E+00 -0.71759534750E+02  0.71759534750E+02  0.00000000000E+00 0.  1.
         24    1    1    2    0    0 -0.58134605819E+02 -0.10051536417E+03  0.25322676363E+03  0.28995513550E+03  0.80419002446E+02 0.  1.
        -24    1    1    2    0    0  0.58134605819E+02  0.10051536417E+03  0.40012537935E+02  0.14680323557E+03  0.80419002446E+02 0. -1.
<mgrwt>
<rscale>  0 0.14124513E+03</rscale>
<asrwt>0</asrwt>
<pdfrwt beam="1">  1        2 0.56153666E-01 0.14124513E+03</pdfrwt>
<pdfrwt beam="2">  1       -2 0.11039929E-01 0.14124513E+03</pdfrwt>
<totfact> 0.48132515E+03</totfact>
</mgrwt>
</event>
<event>
 4    1  0.1437859E-001  0.8100881E+02  0.7546771E-02  0.1326213E+00
          1   -1    0    0  501    0  0.00000000000E+00  0.00000000000E+00  0.10793347824E+02  0.10793347824E+02  0.00000000000E+00 0. -1.
         -1   -1    0    0    0  501 -0.00000000000E+00 -0.00000000000E+00 -0.64534453206E+03  0.64534453206E+03  0.00000000000E+00 0.  1.
         24    1    1    2    0    0  0.70507542822E+01  0.67452081764E+01 -0.39618782187E+03  0.40438498627E+03  0.80419002446E+02 0.  1.
        -24    1    1    2    0    0 -0.70507542822E+01 -0.67452081764E+01 -0.23836336237E+03  0.25175289361E+03  0.80419002446E+02 0.  0.
<mgrwt>
<rscale>  0 0.81008808E+02</rscale>
<asrwt>0</asrwt>
<pdfrwt beam="1">  1        1 0.16605154E-02 0.81008808E+02</pdfrwt>
<pdfrwt beam="2">  1       -1 0.99283752E-01 0.81008808E+02</pdfrwt>
<totfact> 0.72880845E+03</totfact>
</mgrwt>
</event>
<event>
 4    1  0.1437859E-001  0.1371956E+03  0.7546771E-02  0.1217153E+00
          1   -1    0    0  501    0  0.00000000000E+00  0.00000000000E+00  0.31024576828E+03  0.31024576828E+03  0.00000000000E+00 0. -1.
         -1   -1    0    0    0  501 -0.00000000000E+00 -0.00000000000E+00 -0.75809924592E+02  0.75809924592E+02  0.00000000000E+00 0.  1.
         24    1    1    2    0    0  0.49912432771E+02  0.99318536272E+02  0.30956322776E+02  0.14064470294E+03  0.80419002446E+02 0.  1.
        -24    1    1    2    0    0 -0.49912432771E+02 -0.99318536272E+02  0.20347952091E+03  0.24541098993E+03  0.80419002446E+02 0. -1.
<mgrwt>
<rscale>  0 0.13719562E+03</rscale>
<asrwt>0</asrwt>
<pdfrwt beam="1">  1        1 0.47730117E-01 0.13719562E+03</pdfrwt>
<pdfrwt beam="2">  1       -1 0.11663066E-01 0.13719562E+03</pdfrwt>
<totfact> 0.38808398E+03</totfact>
</mgrwt>
</event>
<event>
 4    1  0.1437859E-001  0.8959079E+02  0.7546771E-02  0.1303846E+00
          2   -1    0    0  501    0  0.00000000000E+00  0.00000000000E+00  0.41992860281E+03  0.41992860281E+03  0.00000000000E+00 0. -1.
         -2   -1    0    0    0  501 -0.00000000000E+00 -0.00000000000E+00 -0.23892768403E+02  0.23892768403E+02  0.00000000000E+00 0.  1.
         24    1    1    2    0    0 -0.24298185960E+02  0.31127036014E+02  0.29726174974E+03  0.31046909351E+03  0.80419002446E+02 0. -1.
        -24    1    1    2    0    0  0.24298185960E+02 -0.31127036014E+02  0.98774084661E+02  0.13335227770E+03  0.80419002446E+02 0.  1.
<mgrwt>
<rscale>  0 0.89590793E+02</rscale>
<asrwt>0</asrwt>
<pdfrwt beam="1">  1        2 0.64604395E-01 0.89590793E+02</pdfrwt>
<pdfrwt beam="2">  1       -2 0.36758108E-02 0.89590793E+02</pdfrwt>
<totfact> 0.21254734E+04</totfact>
</mgrwt>
</event>
<event>
 4    1  0.1437859E-001  0.1091130E+03  0.7546771E-02  0.1262221E+00
         -1   -1    0    0    0  501 -0.00000000000E+00  0.00000000000E+00  0.25086171401E+02  0.25086171401E+02  0.00000000000E+00 0.  1.
          1   -1    0    0  501    0  0.00000000000E+00 -0.00000000000E+00 -0.69779865206E+03  0.69779865206E+03  0.00000000000E+00 0. -1.
         24    1    1    2    0    0 -0.15596184357E+00  0.73745606144E+02 -0.13193349025E+03  0.17120777014E+03  0.80419002446E+02 0.  1.
        -24    1    1    2    0    0  0.15596184357E+00 -0.73745606144E+02 -0.54077899040E+03  0.55167705333E+03  0.80419002446E+02 0. -1.
<mgrwt>
<rscale>  0 0.10911304E+03</rscale>
<asrwt>0</asrwt>
<pdfrwt beam="1">  1        1 0.10735363E+00 0.10911304E+03</pdfrwt>
<pdfrwt beam="2">  1       -1 0.38594112E-02 0.10911304E+03</pdfrwt>
<totfact> 0.69896417E+03</totfact>
</mgrwt>
</event>
<event>
 4    1  0.1437859E-001  0.1439463E+03  0.7546771E-02  0.1208115E+00
          1   -1    0    0  501    0  0.00000000000E+00  0.00000000000E+00  0.12753564921E+03  0.12753564921E+03  0.00000000000E+00 0. -1.
         -1   -1    0    0    0  501 -0.00000000000E+00 -0.00000000000E+00 -0.16301535716E+03  0.16301535716E+03  0.00000000000E+00 0.  1.
         24    1    1    2    0    0 -0.10962033602E+03 -0.47293847511E+02 -0.26153107343E+02  0.14630286074E+03  0.80419002446E+02 0.  0.
        -24    1    1    2    0    0  0.10962033602E+03  0.47293847511E+02 -0.93266006073E+01  0.14424814562E+03  0.80419002446E+02 0. -1.
<mgrwt>
<rscale>  0 0.14394632E+03</rscale>
<asrwt>0</asrwt>
<pdfrwt beam="1">  1        1 0.19620869E-01 0.14394632E+03</pdfrwt>
<pdfrwt beam="2">  1       -1 0.25079286E-01 0.14394632E+03</pdfrwt>
<totfact> 0.35008500E+03</totfact>
</mgrwt>
</event>
<event>
 4    1  0.1437859E-001  0.9844391E+02  0.7546771E-02  0.1283603E+00
         -1   -1    0    0    0  501 -0.00000000000E+00  0.00000000000E+00  0.43022985927E+02  0.43022985927E+02  0.00000000000E+00 0.  1.
          1   -1    0    0  501    0  0.00000000000E+00 -0.00000000000E+00 -0.26590860301E+03  0.26590860301E+03  0.00000000000E+00 0. -1.
         24    1    1    2    0    0 -0.12491617364E+02 -0.55389002769E+02 -0.17183889138E+03  0.19803990173E+03  0.80419002446E+02 0. -1.
        -24    1    1    2    0    0  0.12491617364E+02  0.55389002769E+02 -0.51046725702E+02  0.11089168721E+03  0.80419002446E+02 0.  1.
<mgrwt>
<rscale>  0 0.98443895E+02</rscale>
<asrwt>0</asrwt>
<pdfrwt beam="1">  1        1 0.40909016E-01 0.98443908E+02</pdfrwt>
<pdfrwt beam="2">  1       -1 0.66189209E-02 0.98443908E+02</pdfrwt>
<totfact> 0.10788444E+04</totfact>
</mgrwt>
</event>
<event>
 4    1  0.1437859E-001  0.8752543E+02  0.7546771E-02  0.1308957E+00
          1   -1    0    0  501    0  0.00000000000E+00  0.00000000000E+00  0.46889976118E+02  0.46889976118E+02  0.00000000000E+00 0. -1.
         -1   -1    0    0    0  501 -0.00000000000E+00 -0.00000000000E+00 -0.25416736837E+03  0.25416736837E+03  0.00000000000E+00 0.  1.
         24    1    1    2    0    0 -0.12950918042E+02 -0.32027478172E+02 -0.19360530856E+03  0.21247050876E+03  0.80419002446E+02 0.  1.
        -24    1    1    2    0    0  0.12950918042E+02  0.32027478172E+02 -0.13672083686E+02  0.88586835720E+02  0.80419002446E+02 0. -1.
<mgrwt>
<rscale>  0 0.87525434E+02</rscale>
<asrwt>0</asrwt>
<pdfrwt beam="1">  1        1 0.72138426E-02 0.87525434E+02</pdfrwt>
<pdfrwt beam="2">  1       -1 0.39102672E-01 0.87525434E+02</pdfrwt>
<totfact> 0.59128798E+03</totfact>
</mgrwt>
</event>
<event>
 4    1  0.1437859E-001  0.9451252E+02  0.7546771E-02  0.1292278E+00
         -1   -1    0    0    0  501 -0.00000000000E+00  0.00000000000E+00  0.10065402180E+02  0.10065402180E+02  0.00000000000E+00 0.  1.
          1   -1    0    0  501    0  0.00000000000E+00 -0.00000000000E+00 -0.89815306549E+03  0.89815306549E+03  0.00000000000E+00 0. -1.
         24    1    1    2    0    0 -0.41458308367E+02  0.27324073657E+02 -0.49359978532E+03  0.50256677204E+03  0.80419002446E+02 0. -1.
        -24    1    1    2    0    0  0.41458308367E+02 -0.27324073657E+02 -0.39448787799E+03  0.40565169563E+03  0.80419002446E+02 0.  1.
<mgrwt>
<rscale>  0 0.94512510E+02</rscale>
<asrwt>0</asrwt>
<pdfrwt beam="1">  1        1 0.13817746E+00 0.94512522E+02</pdfrwt>
<pdfrwt beam="2">  1       -1 0.15485227E-02 0.94512522E+02</pdfrwt>
<totfact> 0.17679501E+04</totfact>
</mgrwt>
</event>
<event>
 4    1  0.1437859E-001  0.8612634E+02  0.7546771E-02  0.1312513E+00
          2   -1    0    0  501    0  0.00000000000E+00  0.00000000000E+00  0.14094881130E+04  0.14094881130E+04  0.00000000000E+00 0. -1.
         -2   -1    0    0    0  501 -0.00000000000E+00 -0.00000000000E+00 -0.58167614036E+01  0.58167614036E+01  0.00000000000E+00 0.  1.
         24    1    1    2    0    0 -0.21809397833E+02  0.21791654577E+02  0.48343685294E+03  0.49104880895E+03  0.80419002446E+02 0. -1.
        -24    1    1    2    0    0  0.21809397833E+02 -0.21791654577E+02  0.92023449864E+03  0.92425606543E+03  0.80419002446E+02 0.  0.
<mgrwt>
<rscale>  0 0.86126325E+02</rscale>
<asrwt>0</asrwt>
<pdfrwt beam="1">  1        2 0.21684405E+00 0.86126336E+02</pdfrwt>
<pdfrwt beam="2">  1       -2 0.89488749E-03 0.86126336E+02</pdfrwt>
<totfact> 0.35100430E+04</totfact>
</mgrwt>
</event>
<event>
 4    1  0.1437859E-001  0.8244076E+02  0.7546771E-02  0.1322264E+00
          2   -1    0    0  501    0  0.00000000000E+00  0.00000000000E+00  0.17725382675E+04  0.17725382675E+04  0.00000000000E+00 0. -1.
         -2   -1    0    0    0  501 -0.00000000000E+00 -0.00000000000E+00 -0.93787038841E+01  0.93787038841E+01  0.00000000000E+00 0.  1.
         24    1    1    2    0    0  0.15394824389E+02  0.96053650046E+01  0.15666146660E+04  0.15687823276E+04  0.80419002446E+02 0. -1.
        -24    1    1    2    0    0 -0.15394824389E+02 -0.96053650046E+01  0.19654489760E+03  0.21313464379E+03  0.80419002446E+02 0.  1.
<mgrwt>
<rscale>  0 0.82440764E+02</rscale>
<asrwt>0</asrwt>
<pdfrwt beam="1">  1        2 0.27269793E+00 0.82440764E+02</pdfrwt>
<pdfrwt beam="2">  1       -2 0.14428789E-02 0.82440764E+02</pdfrwt>
<totfact> 0.11660361E+04</totfact>
</mgrwt>
</event>
<event>
 4    1  0.1437859E-001  0.9817018E+02  0.7546771E-02  0.1284192E+00
          1   -1    0    0  501    0  0.00000000000E+00  0.00000000000E+00  0.20864396712E+04  0.20864396712E+04  0.00000000000E+00 0. -1.
         -1   -1    0    0    0  501 -0.00000000000E+00 -0.00000000000E+00 -0.16643475250E+02  0.16643475250E+02  0.00000000000E+00 0.  1.
         24    1    1    2    0    0 -0.21948376215E+02  0.51850143277E+02  0.14110608263E+03  0.17189622185E+03  0.80419002446E+02 0.  1.
        -24    1    1    2    0    0  0.21948376215E+02 -0.51850143277E+02  0.19286901133E+04  0.19311869246E+04  0.80419002446E+02 0. -1.
<mgrwt>
<rscale>  0 0.98170181E+02</rscale>
<asrwt>0</asrwt>
<pdfrwt beam="1">  1        1 0.32099051E+00 0.98170181E+02</pdfrwt>
<pdfrwt beam="2">  1       -1 0.25605363E-02 0.98170181E+02</pdfrwt>
<totfact> 0.14304871E+03</totfact>
</mgrwt>
</event>
<event>
 4    1  0.1437859E-001  0.8077457E+02  0.7546771E-02  0.1326868E+00
          2   -1    0    0  501    0  0.00000000000E+00  0.00000000000E+00  0.86035659576E+03  0.86035659576E+03  0.00000000000E+00 0. -1.
         -2   -1    0    0    0  501 -0.00000000000E+00 -0.00000000000E+00 -0.55826036745E+02  0.55826036745E+02  0.00000000000E+00 0.  1.
         24    1    1    2    0    0  0.33856593344E+01 -0.67714896595E+01  0.82810742124E+03  0.83203751888E+03  0.80419002446E+02 0. -1.
        -24    1    1    2    0    0 -0.33856593344E+01  0.67714896595E+01 -0.23576862218E+02  0.84145113630E+02  0.80419002446E+02 0.  1.
<mgrwt>
<rscale>  0 0.80774573E+02</rscale>
<asrwt>0</asrwt>
<pdfrwt beam="1">  1        2 0.13236254E+00 0.80774573E+02</pdfrwt>
<pdfrwt beam="2">  1       -2 0.85886217E-02 0.80774573E+02</pdfrwt>
<totfact> 0.26425049E+03</totfact>
</mgrwt>
</event>
<event>
 4    1  0.1437859E-001  0.8409881E+02  0.7546771E-02  0.1317806E+00
         -1   -1    0    0    0  501 -0.00000000000E+00  0.00000000000E+00  0.29439483590E+03  0.29439483590E+03  0.00000000000E+00 0.  1.
          1   -1    0    0  501    0  0.00000000000E+00 -0.00000000000E+00 -0.24029314346E+02  0.24029314346E+02  0.00000000000E+00 0. -1.
         24    1    1    2    0    0  0.24465346544E+02  0.26153427654E+01  0.13749875039E+03  0.16117852063E+03  0.80419002446E+02 0.  1.
        -24    1    1    2    0    0 -0.24465346544E+02 -0.26153427654E+01  0.13286677116E+03  0.15724562962E+03  0.80419002446E+02 0. -1.
<mgrwt>
<rscale>  0 0.84098806E+02</rscale>
<asrwt>0</asrwt>
<pdfrwt beam="1">  1        1 0.36968178E-02 0.84098806E+02</pdfrwt>
<pdfrwt beam="2">  1       -1 0.45291511E-01 0.84098806E+02</pdfrwt>
<totfact> 0.11204606E+04</totfact>
</mgrwt>
</event>
<event>
 4    1  0.1437859E-001  0.1176774E+03  0.7546771E-02  0.1246979E+00
         -2   -1    0    0    0  501 -0.00000000000E+00  0.00000000000E+00  0.65764759169E+02  0.65764759169E+02  0.00000000000E+00 0.  1.
          2   -1    0    0  501    0  0.00000000000E+00 -0.00000000000E+00 -0.21578443007E+03  0.21578443007E+03  0.00000000000E+00 0. -1.
         24    1    1    2    0    0 -0.67417273869E+02  0.53250975479E+02 -0.53122648639E+02  0.12911230367E+03  0.80419002446E+02 0. -1.
        -24    1    1    2    0    0  0.67417273869E+02 -0.53250975479E+02 -0.96897022263E+02  0.15243688557E+03  0.80419002446E+02 0.  0.
<mgrwt>
<rscale>  0 0.11767742E+03</rscale>
<asrwt>0</asrwt>
<pdfrwt beam="1">  1        2 0.33197605E-01 0.11767743E+03</pdfrwt>
<pdfrwt beam="2">  1       -2 0.10117655E-01 0.11767743E+03</pdfrwt>
<totfact> 0.95335169E+03</totfact>
</mgrwt>
</event>
<event>
 4    1  0.1437859E-001  0.8474661E+02  0.7546771E-02  0.1316097E+00
         -1   -1    0    0    0  501 -0.00000000000E+00  0.00000000000E+00  0.15811732256E+03  0.15811732256E+03  0.00000000000E+00 0.  1.
          1   -1    0    0  501    0  0.00000000000E+00 -0.00000000000E+00 -0.59810054170E+02  0.59810054170E+02  0.00000000000E+00 0. -1.
         24    1    1    2    0    0 -0.18679732025E+02  0.19126919150E+02  0.10259744452E+03  0.13307224730E+03  0.80419002446E+02 0.  0.
        -24    1    1    2    0    0  0.18679732025E+02 -0.19126919150E+02 -0.42901761319E+01  0.84855129428E+02  0.80419002446E+02 0.  0.
<mgrwt>
<rscale>  0 0.84746607E+02</rscale>
<asrwt>0</asrwt>
<pdfrwt beam="1">  1        1 0.92015468E-02 0.84746607E+02</pdfrwt>
<pdfrwt beam="2">  1       -1 0.24325742E-01 0.84746607E+02</pdfrwt>
<totfact> 0.94312682E+03</totfact>
</mgrwt>
</event>
<event>
 4    1  0.1437859E-001  0.8292614E+02  0.7546771E-02  0.1320947E+00
          2   -1    0    0  501    0  0.00000000000E+00  0.00000000000E+00  0.82583154323E+03  0.82583154323E+03  0.00000000000E+00 0. -1.
         -2   -1    0    0    0  501 -0.00000000000E+00 -0.00000000000E+00 -0.90901975724E+01  0.90901975724E+01  0.00000000000E+00 0.  1.
         24    1    1    2    0    0 -0.53430091544E+01 -0.19518736464E+02  0.52932792764E+03  0.53578428472E+03  0.80419002446E+02 0. -1.
        -24    1    1    2    0    0  0.53430091544E+01  0.19518736464E+02  0.28741341802E+03  0.29913745608E+03  0.80419002446E+02 0. -1.
<mgrwt>
<rscale>  0 0.82926140E+02</rscale>
<asrwt>0</asrwt>
<pdfrwt beam="1">  1        2 0.12705095E+00 0.82926140E+02</pdfrwt>
<pdfrwt beam="2">  1       -2 0.13984926E-02 0.82926140E+02</pdfrwt>
<totfact> 0.39679118E+04</totfact>
</mgrwt>
</event>
<event>
 4    1  0.1437859E-001  0.8713480E+02  0.7546771E-02  0.1309942E+00
          1   -1    0    0  501    0  0.00000000000E+00  0.00000000000E+00  0.11053516062E+04  0.11053516062E+04  0.00000000000E+00 0. -1.
         -1   -1    0    0    0  501 -0.00000000000E+00 -0.00000000000E+00 -0.11362957719E+02  0.11362957719E+02  0.00000000000E+00 0.  1.
         24    1    1    2    0    0  0.33009251206E+02  0.59704263251E+01  0.19584714858E+03  0.21435619472E+03  0.80419002446E+02 0.  1.
        -24    1    1    2    0    0 -0.33009251206E+02 -0.59704263251E+01  0.89814149986E+03  0.90235836915E+03  0.80419002446E+02 0. -1.
<mgrwt>
<rscale>  0 0.87134796E+02</rscale>
<asrwt>0</asrwt>
<pdfrwt beam="1">  1        1 0.17005401E+00 0.87134796E+02</pdfrwt>
<pdfrwt beam="2">  1       -1 0.17481482E-02 0.87134796E+02</pdfrwt>
<totfact> 0.10483146E+04</totfact>
</mgrwt>
</event>
<event>
 4    1  0.1437859E-001  0.8233122E+02  0.7546771E-02  0.1322563E+00
         -1   -1    0    0    0  501 -0.00000000000E+00  0.00000000000E+00  0.39739823810E+02  0.39739823810E+02  0.00000000000E+00 0.  1.
          1   -1    0    0  501    0  0.00000000000E+00 -0.00000000000E+00 -0.17137642934E+03  0.17137642934E+03  0.00000000000E+00 0. -1.
         24    1    1    2    0    0  0.92784975642E+01  0.15003989947E+02 -0.73058813657E+02  0.11007277792E+03  0.80419002446E+02 0.  1.
        -24    1    1    2    0    0 -0.92784975642E+01 -0.15003989947E+02 -0.58577791870E+02  0.10104347523E+03  0.80419002446E+02 0.  0.
<mgrwt>
<rscale>  0 0.82331208E+02</rscale>
<asrwt>0</asrwt>
<pdfrwt beam="1">  1        1 0.26365604E-01 0.82331219E+02</pdfrwt>
<pdfrwt beam="2">  1       -1 0.61138191E-02 0.82331219E+02</pdfrwt>
<totfact> 0.20404410E+04</totfact>
</mgrwt>
</event>
<event>
 4    1  0.1437859E-001  0.8853908E+02  0.7546771E-02  0.1306429E+00
          1   -1    0    0  501    0  0.00000000000E+00  0.00000000000E+00  0.21366648636E+04  0.21366648636E+04  0.00000000000E+00 0. -1.
         -1   -1    0    0    0  501 -0.00000000000E+00 -0.00000000000E+00 -0.39703499975E+01  0.39703499975E+01  0.00000000000E+00 0.  1.
         24    1    1    2    0    0 -0.33038266108E+02 -0.16745799650E+02  0.13612786910E+04  0.13641549909E+04  0.80419002446E+02 0.  0.
        -24    1    1    2    0    0  0.33038266108E+02  0.16745799650E+02  0.77141582266E+03  0.77648022270E+03  0.80419002446E+02 0. -1.
<mgrwt>
<rscale>  0 0.88539069E+02</rscale>
<asrwt>0</asrwt>
<pdfrwt beam="1">  1        1 0.32871675E+00 0.88539080E+02</pdfrwt>
<pdfrwt beam="2">  1       -1 0.61082478E-03 0.88539080E+02</pdfrwt>
<totfact> 0.10114920E+04</totfact>
</mgrwt>
</event>
<event>
 4    1  0.1437859E-001  0.8727538E+02  0.7546771E-02  0.1309587E+00
         -1   -1    0    0    0  501 -0.00000000000E+00  0.00000000000E+00  0.15623546166E+02  0.15623546166E+02  0.00000000000E+00 0.  1.
          1   -1    0    0  501    0  0.00000000000E+00 -0.00000000000E+00 -0.67299711269E+03  0.67299711269E+03  0.00000000000E+00 0. -1.
         24    1    1    2    0    0  0.30336898008E+02 -0.15147560019E+02 -0.14793875181E+03  0.17176398400E+03  0.80419002446E+02 0.  1.
        -24    1    1    2    0    0 -0.30336898008E+02  0.15147560019E+02 -0.50943481471E+03  0.51685667486E+03  0.80419002446E+02 0. -1.
<mgrwt>
<rscale>  0 0.87275380E+02</rscale>
<asrwt>0</asrwt>
<pdfrwt beam="1">  1        1 0.10353801E+00 0.87275380E+02</pdfrwt>
<pdfrwt beam="2">  1       -1 0.24036226E-02 0.87275380E+02</pdfrwt>
<totfact> 0.14328719E+04</totfact>
</mgrwt>
</event>
<event>
 4    1  0.1437859E-001  0.9638734E+02  0.7546771E-02  0.1288082E+00
          2   -1    0    0  501    0  0.00000000000E+00  0.00000000000E+00  0.62092482997E+02  0.62092482997E+02  0.00000000000E+00 0. -1.
         -2   -1    0    0    0  501 -0.00000000000E+00 -0.00000000000E+00 -0.15716226235E+03  0.15716226235E+03  0.00000000000E+00 0.  1.
         24    1    1    2    0    0 -0.36643364630E+02 -0.38478129567E+02 -0.23525352654E+02  0.99216736482E+02  0.80419002446E+02 0.  1.
        -24    1    1    2    0    0  0.36643364630E+02  0.38478129567E+02 -0.71544426701E+02  0.12003800887E+03  0.80419002446E+02 0. -1.
<mgrwt>
<rscale>  0 0.96387336E+02</rscale>
<asrwt>0</asrwt>
<pdfrwt beam="1">  1        2 0.95526898E-02 0.96387336E+02</pdfrwt>
<pdfrwt beam="2">  1       -2 0.24178809E-01 0.96387336E+02</pdfrwt>
<totfact> 0.93211279E+03</totfact>
</mgrwt>
</event>
<event>
 4    1  0.1437859E-001  0.1050230E+03  0.7546771E-02  0.1270074E+00
          1   -1    0    0  501    0  0.00000000000E+00  0.00000000000E+00  0.14492863763E+04  0.14492863763E+04  0.00000000000E+00 0. -1.
         -1   -1    0    0    0  501 -0.00000000000E+00 -0.00000000000E+00 -0.16992142955E+02  0.16992142955E+02  0.00000000000E+00 0.  1.
         24    1    1    2    0    0  0.58911141391E+02 -0.33046956161E+02  0.17139225145E+03  0.20101030746E+03  0.80419002446E+02 0.  1.
        -24    1    1    2    0    0 -0.58911141391E+02  0.33046956161E+02  0.12609019819E+04  0.12652682118E+04  0.80419002446E+02 0. -1.
<mgrwt>
<rscale>  0 0.10502304E+03</rscale>
<asrwt>0</asrwt>
<pdfrwt beam="1">  1        1 0.22296704E+00 0.10502304E+03</pdfrwt>
<pdfrwt beam="2">  1       -1 0.26141770E-02 0.10502304E+03</pdfrwt>
<totfact> 0.35138494E+03</totfact>
</mgrwt>
</event>
<event>
 4    1  0.1437859E-001  0.1280676E+03  0.7546771E-02  0.1230352E+00
          1   -1    0    0  501    0  0.00000000000E+00  0.00000000000E+00  0.28025868750E+03  0.28025868750E+03  0.00000000000E+00 0. -1.
         -1   -1    0    0    0  501 -0.00000000000E+00 -0.00000000000E+00 -0.58620207689E+02  0.58620207689E+02  0.00000000000E+00 0.  1.
         24    1    1    2    0    0  0.49393259652E+02  0.86570106546E+02  0.11775520747E+03  0.17397580949E+03  0.80419002446E+02 0. -1.
        -24    1    1    2    0    0 -0.49393259652E+02 -0.86570106546E+02  0.10388327234E+03  0.16490308570E+03  0.80419002446E+02 0.  1.
<mgrwt>
<rscale>  0 0.12806755E+03</rscale>
<asrwt>0</asrwt>
<pdfrwt beam="1">  1        1 0.43116720E-01 0.12806757E+03</pdfrwt>
<pdfrwt beam="2">  1       -1 0.90184936E-02 0.12806757E+03</pdfrwt>
<totfact> 0.64918468E+03</totfact>
</mgrwt>
</event>
<event>
 4    1  0.1437859E-001  0.8071811E+02  0.7546771E-02  0.1327026E+00
         -2   -1    0    0    0  501 -0.00000000000E+00  0.00000000000E+00  0.60776175772E+01  0.60776175772E+01  0.00000000000E+00 0.  1.
          2   -1    0    0  501    0  0.00000000000E+00 -0.00000000000E+00 -0.20101359936E+04  0.20101359936E+04  0.00000000000E+00 0. -1.
         24    1    1    2    0    0  0.59636138956E+01 -0.35541393952E+01 -0.16907113924E+04  0.16926371215E+04  0.80419002446E+02 0.  0.
        -24    1    1    2    0    0 -0.59636138956E+01  0.35541393952E+01 -0.31334698360E+03  0.32357648969E+03  0.80419002446E+02 0.  1.
<mgrwt>
<rscale>  0 0.80718105E+02</rscale>
<asrwt>0</asrwt>
<pdfrwt beam="1">  1        2 0.30925166E+00 0.80718105E+02</pdfrwt>
<pdfrwt beam="2">  1       -2 0.93501818E-03 0.80718105E+02</pdfrwt>
<totfact> 0.16377829E+04</totfact>
</mgrwt>
</event>
<event>
 4    1  0.1437859E-001  0.9160030E+02  0.7546771E-02  0.1299022E+00
          2   -1    0    0  501    0  0.00000000000E+00  0.00000000000E+00  0.96612883583E+01  0.96612883583E+01  0.00000000000E+00 0. -1.
         -2   -1    0    0    0  501 -0.00000000000E+00 -0.00000000000E+00 -0.97733978315E+03  0.97733978315E+03  0.00000000000E+00 0.  1.
         24    1    1    2    0    0 -0.61856785638E+01  0.43418101267E+02 -0.64854313960E+03  0.65498001039E+03  0.80419002446E+02 0.  1.
        -24    1    1    2    0    0  0.61856785638E+01 -0.43418101267E+02 -0.31913535519E+03  0.33202106112E+03  0.80419002446E+02 0. -1.
<mgrwt>
<rscale>  0 0.91600285E+02</rscale>
<asrwt>0</asrwt>
<pdfrwt beam="1">  1        2 0.14863527E-02 0.91600296E+02</pdfrwt>
<pdfrwt beam="2">  1       -2 0.15035991E+00 0.91600296E+02</pdfrwt>
<totfact> 0.24038507E+03</totfact>
</mgrwt>
</event>
<event>
 4    1  0.1437859E-001  0.1323725E+03  0.7546771E-02  0.1223977E+00
          2   -1    0    0  501    0  0.00000000000E+00  0.00000000000E+00  0.11671813778E+03  0.11671813778E+03  0.00000000000E+00 0. -1.
         -2   -1    0    0    0  501 -0.00000000000E+00 -0.00000000000E+00 -0.16692648186E+03  0.16692648186E+03  0.00000000000E+00 0.  1.
         24    1    1    2    0    0 -0.10457792052E+03 -0.10895502229E+02  0.19888120888E+02  0.13385815902E+03  0.80419002446E+02 0. -1.
        -24    1    1    2    0    0  0.10457792052E+03  0.10895502229E+02 -0.70096464967E+02  0.14978646062E+03  0.80419002446E+02 0.  1.
<mgrwt>
<rscale>  0 0.13237246E+03</rscale>
<asrwt>0</asrwt>
<pdfrwt beam="1">  1        2 0.17956637E-01 0.13237246E+03</pdfrwt>
<pdfrwt beam="2">  1       -2 0.25680997E-01 0.13237246E+03</pdfrwt>
<totfact> 0.40776817E+03</totfact>
</mgrwt>
</event>
<event>
 4    1  0.1437859E-001  0.1178259E+03  0.7546771E-02  0.1246727E+00
          1   -1    0    0  501    0  0.00000000000E+00  0.00000000000E+00  0.46187037593E+03  0.46187037593E+03  0.00000000000E+00 0. -1.
         -1   -1    0    0    0  501 -0.00000000000E+00 -0.00000000000E+00 -0.61530226397E+02  0.61530226397E+02  0.00000000000E+00 0.  1.
         24    1    1    2    0    0  0.44711864705E+02  0.73597370906E+02  0.13005737389E+02  0.11854150754E+03  0.80419002446E+02 0.  1.
        -24    1    1    2    0    0 -0.44711864705E+02 -0.73597370906E+02  0.38733441214E+03  0.40485909479E+03  0.80419002446E+02 0. -1.
<mgrwt>
<rscale>  0 0.11782589E+03</rscale>
<asrwt>0</asrwt>
<pdfrwt beam="1">  1        1 0.71056979E-01 0.11782589E+03</pdfrwt>
<pdfrwt beam="2">  1       -1 0.94661890E-02 0.11782589E+03</pdfrwt>
<totfact> 0.32174883E+03</totfact>
</mgrwt>
</event>
<event>
 4    1  0.1437859E-001  0.1692452E+03  0.7546771E-02  0.1178637E+00
         -4   -1    0    0    0  501 -0.00000000000E+00  0.00000000000E+00  0.56880671872E+02  0.56880671872E+02  0.00000000000E+00 0.  1.
          4   -1    0    0  501    0  0.00000000000E+00 -0.00000000000E+00 -0.50362972057E+03  0.50362972057E+03  0.00000000000E+00 0. -1.
         24    1    1    2    0    0  0.14835398879E+03 -0.12954292427E+02 -0.22617539521E+03  0.28248760156E+03  0.80419002446E+02 0.  1.
        -24    1    1    2    0    0 -0.14835398879E+03  0.12954292427E+02 -0.22057365349E+03  0.27802279088E+03  0.80419002446E+02 0. -1.
<mgrwt>
<rscale>  0 0.16924519E+03</rscale>
<asrwt>0</asrwt>
<pdfrwt beam="1">  1        4 0.77481493E-01 0.16924519E+03</pdfrwt>
<pdfrwt beam="2">  1       -4 0.87508729E-02 0.16924519E+03</pdfrwt>
<totfact> 0.25125247E+02</totfact>
</mgrwt>
</event>
<event>
 4    1  0.1437859E-001  0.8775434E+02  0.7546771E-02  0.1308383E+00
          1   -1    0    0  501    0  0.00000000000E+00  0.00000000000E+00  0.10363594100E+04  0.10363594100E+04  0.00000000000E+00 0. -1.
         -1   -1    0    0    0  501 -0.00000000000E+00 -0.00000000000E+00 -0.13562573689E+02  0.13562573689E+02  0.00000000000E+00 0.  1.
         24    1    1    2    0    0 -0.10667475848E+02 -0.33463622112E+02  0.15841499017E+03  0.18109702955E+03  0.80419002446E+02 0. -1.
        -24    1    1    2    0    0  0.10667475848E+02  0.33463622112E+02  0.86438184616E+03  0.86882495416E+03  0.80419002446E+02 0. -1.
<mgrwt>
<rscale>  0 0.87754345E+02</rscale>
<asrwt>0</asrwt>
<pdfrwt beam="1">  1        1 0.15943985E+00 0.87754345E+02</pdfrwt>
<pdfrwt beam="2">  1       -1 0.20865506E-02 0.87754345E+02</pdfrwt>
<totfact> 0.91097962E+03</totfact>
</mgrwt>
</event>
<event>
 4    1  0.1437859E-001  0.1019793E+03  0.7546771E-02  0.1276188E+00
          2   -1    0    0  501    0  0.00000000000E+00  0.00000000000E+00  0.11335666276E+04  0.11335666276E+04  0.00000000000E+00 0.  1.
         -2   -1    0    0    0  501 -0.00000000000E+00 -0.00000000000E+00 -0.12562587450E+02  0.12562587450E+02  0.00000000000E+00 0. -1.
         24    1    1    2    0    0  0.14465043119E+02 -0.61019010125E+02  0.26289106046E+03  0.28197780532E+03  0.80419002446E+02 0.  0.
        -24    1    1    2    0    0 -0.14465043119E+02  0.61019010125E+02  0.85811297965E+03  0.86415140969E+03  0.80419002446E+02 0.  1.
<mgrwt>
<rscale>  0 0.10197929E+03</rscale>
<asrwt>0</asrwt>
<pdfrwt beam="1">  1        2 0.17439478E+00 0.10197930E+03</pdfrwt>
<pdfrwt beam="2">  1       -2 0.19327067E-02 0.10197930E+03</pdfrwt>
<totfact> 0.16693380E+04</totfact>
</mgrwt>
</event>
<event>
 4    1  0.1437859E-001  0.9691665E+02  0.7546771E-02  0.1286917E+00
          1   -1    0    0  501    0  0.00000000000E+00  0.00000000000E+00  0.62879259468E+03  0.62879259468E+03  0.00000000000E+00 0. -1.
         -1   -1    0    0    0  501 -0.00000000000E+00 -0.00000000000E+00 -0.31211764691E+02  0.31211764691E+02  0.00000000000E+00 0.  1.
         24    1    1    2    0    0 -0.26829703609E-01 -0.54089008319E+02  0.60501922909E+02  0.11425112766E+03  0.80419002446E+02 0.  1.
        -24    1    1    2    0    0  0.26829703609E-01  0.54089008319E+02  0.53707890708E+03  0.54575323171E+03  0.80419002446E+02 0. -1.
<mgrwt>
<rscale>  0 0.96916652E+02</rscale>
<asrwt>0</asrwt>
<pdfrwt beam="1">  1        1 0.96737313E-01 0.96916652E+02</pdfrwt>
<pdfrwt beam="2">  1       -1 0.48018104E-02 0.96916652E+02</pdfrwt>
<totfact> 0.58271374E+03</totfact>
</mgrwt>
</event>
<event>
 4    1  0.1437859E-001  0.8616700E+02  0.7546771E-02  0.1312409E+00
          2   -1    0    0  501    0  0.00000000000E+00  0.00000000000E+00  0.10472284436E+04  0.10472284436E+04  0.00000000000E+00 0. -1.
         -2   -1    0    0    0  501 -0.00000000000E+00 -0.00000000000E+00 -0.15329052154E+02  0.15329052154E+02  0.00000000000E+00 0.  1.
         24    1    1    2    0    0 -0.26425884780E+02  0.16099934957E+02  0.90544829094E+03  0.90953909141E+03  0.80419002446E+02 0. -1.
        -24    1    1    2    0    0  0.26425884780E+02 -0.16099934957E+02  0.12645110049E+03  0.15301840432E+03  0.80419002446E+02 0.  1.
<mgrwt>
<rscale>  0 0.86166996E+02</rscale>
<asrwt>0</asrwt>
<pdfrwt beam="1">  1        2 0.16111201E+00 0.86166996E+02</pdfrwt>
<pdfrwt beam="2">  1       -2 0.23583165E-02 0.86166996E+02</pdfrwt>
<totfact> 0.13849175E+04</totfact>
</mgrwt>
</event>
<event>
 4    1  0.1437859E-001  0.1118453E+03  0.7546771E-02  0.1257190E+00
         -1   -1    0    0    0  501 -0.00000000000E+00  0.00000000000E+00  0.20280368087E+02  0.20280368087E+02  0.00000000000E+00 0.  1.
          1   -1    0    0  501    0  0.00000000000E+00 -0.00000000000E+00 -0.67824368856E+03  0.67824368856E+03  0.00000000000E+00 0. -1.
         24    1    1    2    0    0  0.71222113923E+02 -0.31137834244E+02 -0.22387733455E+03  0.25026072627E+03  0.80419002446E+02 0.  1.
        -24    1    1    2    0    0 -0.71222113923E+02  0.31137834244E+02 -0.43408598592E+03  0.44826333038E+03  0.80419002446E+02 0.  0.
<mgrwt>
<rscale>  0 0.11184530E+03</rscale>
<asrwt>0</asrwt>
<pdfrwt beam="1">  1        1 0.10434520E+00 0.11184530E+03</pdfrwt>
<pdfrwt beam="2">  1       -1 0.31200561E-02 0.11184530E+03</pdfrwt>
<totfact> 0.99276574E+03</totfact>
</mgrwt>
</event>
<event>
 4    1  0.1437859E-001  0.8147395E+02  0.7546771E-02  0.1324920E+00
          2   -1    0    0  501    0  0.00000000000E+00  0.00000000000E+00  0.31745580205E+02  0.31745580205E+02  0.00000000000E+00 0. -1.
         -2   -1    0    0    0  501 -0.00000000000E+00 -0.00000000000E+00 -0.21139514943E+03  0.21139514943E+03  0.00000000000E+00 0.  1.
         24    1    1    2    0    0 -0.50679786249E+01  0.12045791438E+02 -0.10249207743E+03  0.13092985675E+03  0.80419002446E+02 0.  0.
        -24    1    1    2    0    0  0.50679786249E+01 -0.12045791438E+02 -0.77157491795E+02  0.11221087288E+03  0.80419002446E+02 0.  1.
<mgrwt>
<rscale>  0 0.81473941E+02</rscale>
<asrwt>0</asrwt>
<pdfrwt beam="1">  1        2 0.48839355E-02 0.81473951E+02</pdfrwt>
<pdfrwt beam="2">  1       -2 0.32522330E-01 0.81473951E+02</pdfrwt>
<totfact> 0.12616054E+04</totfact>
</mgrwt>
</event>
<event>
 4    1  0.1437859E-001  0.8905932E+02  0.7546771E-02  0.1305146E+00
          2   -1    0    0  501    0  0.00000000000E+00  0.00000000000E+00  0.23118235390E+04  0.23118235390E+04  0.00000000000E+00 0. -1.
         -2   -1    0    0    0  501 -0.00000000000E+00 -0.00000000000E+00 -0.85182463123E+01  0.85182463123E+01  0.00000000000E+00 0.  1.
         24    1    1    2    0    0 -0.10774473806E+02  0.36718619130E+02  0.20482426040E+04  0.20501778769E+04  0.80419002446E+02 0. -1.
        -24    1    1    2    0    0  0.10774473806E+02 -0.36718619130E+02  0.25506268874E+03  0.27016390843E+03  0.80419002446E+02 0.  1.
<mgrwt>
<rscale>  0 0.89059319E+02</rscale>
<asrwt>0</asrwt>
<pdfrwt beam="1">  1        2 0.35566466E+00 0.89059319E+02</pdfrwt>
<pdfrwt beam="2">  1       -2 0.13105013E-02 0.89059319E+02</pdfrwt>
<totfact> 0.71754504E+03</totfact>
</mgrwt>
</event>
<event>
 4    1  0.1437859E-001  0.8292069E+02  0.7546771E-02  0.1320961E+00
         -2   -1    0    0    0  501 -0.00000000000E+00  0.00000000000E+00  0.10802496984E+02  0.10802496984E+02  0.00000000000E+00 0.  1.
          2   -1    0    0  501    0  0.00000000000E+00 -0.00000000000E+00 -0.10309392665E+04  0.10309392665E+04  0.00000000000E+00 0. -1.
         24    1    1    2    0    0 -0.39281306000E+01  0.19829136752E+02 -0.83225017162E+03  0.83637084418E+03  0.80419002446E+02 0. -1.
        -24    1    1    2    0    0  0.39281306000E+01 -0.19829136752E+02 -0.18788659792E+03  0.20537091933E+03  0.80419002446E+02 0.  1.
<mgrwt>
<rscale>  0 0.82920690E+02</rscale>
<asrwt>0</asrwt>
<pdfrwt beam="1">  1        2 0.15860603E+00 0.82920690E+02</pdfrwt>
<pdfrwt beam="2">  1       -2 0.16619228E-02 0.82920690E+02</pdfrwt>
<totfact> 0.23291923E+04</totfact>
</mgrwt>
</event>
<event>
 4    1  0.1437859E-001  0.8452644E+02  0.7546771E-02  0.1316676E+00
         -2   -1    0    0    0  501 -0.00000000000E+00  0.00000000000E+00  0.25864820005E+02  0.25864820005E+02  0.00000000000E+00 0.  1.
          2   -1    0    0  501    0  0.00000000000E+00 -0.00000000000E+00 -0.10661986856E+04  0.10661986856E+04  0.00000000000E+00 0. -1.
         24    1    1    2    0    0  0.23651810993E+02 -0.10867160175E+02 -0.99017240495E+03  0.99377367182E+03  0.80419002446E+02 0. -1.
        -24    1    1    2    0    0 -0.23651810993E+02  0.10867160175E+02 -0.50161460616E+02  0.98289833752E+02  0.80419002446E+02 0.  1.
<mgrwt>
<rscale>  0 0.84526441E+02</rscale>
<asrwt>0</asrwt>
<pdfrwt beam="1">  1        2 0.16403058E+00 0.84526441E+02</pdfrwt>
<pdfrwt beam="2">  1       -2 0.39792028E-02 0.84526441E+02</pdfrwt>
<totfact> 0.63092716E+03</totfact>
</mgrwt>
</event>
<event>
 4    1  0.1437859E-001  0.8730579E+02  0.7546771E-02  0.1309510E+00
         -3   -1    0    0    0  501 -0.00000000000E+00  0.00000000000E+00  0.24667858617E+03  0.24667858617E+03  0.00000000000E+00 0.  1.
          3   -1    0    0  501    0  0.00000000000E+00 -0.00000000000E+00 -0.42817762285E+02  0.42817762285E+02  0.00000000000E+00 0. -1.
         24    1    1    2    0    0  0.28766421085E+02 -0.18099110387E+02  0.17829701312E+03  0.19852487406E+03  0.80419002446E+02 0.  1.
        -24    1    1    2    0    0 -0.28766421085E+02  0.18099110387E+02  0.25563810769E+02  0.90971474399E+02  0.80419002446E+02 0. -1.
<mgrwt>
<rscale>  0 0.87305789E+02</rscale>
<asrwt>0</asrwt>
<pdfrwt beam="1">  1        3 0.65873482E-02 0.87305789E+02</pdfrwt>
<pdfrwt beam="2">  1       -3 0.37950551E-01 0.87305789E+02</pdfrwt>
<totfact> 0.21188625E+03</totfact>
</mgrwt>
</event>
<event>
 4    1  0.1437859E-001  0.9412952E+02  0.7546771E-02  0.1293149E+00
         -2   -1    0    0    0  501 -0.00000000000E+00  0.00000000000E+00  0.51810038653E+02  0.51810038653E+02  0.00000000000E+00 0.  1.
          2   -1    0    0  501    0  0.00000000000E+00 -0.00000000000E+00 -0.32417265152E+03  0.32417265152E+03  0.00000000000E+00 0. -1.
         24    1    1    2    0    0 -0.36472271937E+02 -0.32602511420E+02 -0.26539752635E+03  0.28159583327E+03  0.80419002446E+02 0. -1.
        -24    1    1    2    0    0  0.36472271937E+02  0.32602511420E+02 -0.69650865215E+01  0.94386856902E+02  0.80419002446E+02 0.  1.
<mgrwt>
<rscale>  0 0.94129519E+02</rscale>
<asrwt>0</asrwt>
<pdfrwt beam="1">  1        2 0.49872715E-01 0.94129519E+02</pdfrwt>
<pdfrwt beam="2">  1       -2 0.79707753E-02 0.94129519E+02</pdfrwt>
<totfact> 0.88167878E+03</totfact>
</mgrwt>
</event>
<event>
 4    1  0.1437859E-001  0.8731608E+02  0.7546771E-02  0.1309484E+00
         -2   -1    0    0    0  501 -0.00000000000E+00  0.00000000000E+00  0.27029306808E+03  0.27029306808E+03  0.00000000000E+00 0.  1.
          2   -1    0    0  501    0  0.00000000000E+00 -0.00000000000E+00 -0.29068028329E+02  0.29068028329E+02  0.00000000000E+00 0. -1.
         24    1    1    2    0    0  0.26305052756E+02  0.21562148231E+02  0.94848065543E+02  0.12891956224E+03  0.80419002446E+02 0. -1.
        -24    1    1    2    0    0 -0.26305052756E+02 -0.21562148231E+02  0.14637697421E+03  0.17044153417E+03  0.80419002446E+02 0.  1.
<mgrwt>
<rscale>  0 0.87316081E+02</rscale>
<asrwt>0</asrwt>
<pdfrwt beam="1">  1        2 0.44720046E-02 0.87316081E+02</pdfrwt>
<pdfrwt beam="2">  1       -2 0.41583547E-01 0.87316081E+02</pdfrwt>
<totfact> 0.90540571E+03</totfact>
</mgrwt>
</event>
<event>
 4    1  0.1437859E-001  0.1245163E+03  0.7546771E-02  0.1235827E+00
         -1   -1    0    0    0  501 -0.00000000000E+00  0.00000000000E+00  0.13557067191E+03  0.13557067191E+03  0.00000000000E+00 0.  1.
          1   -1    0    0  501    0  0.00000000000E+00 -0.00000000000E+00 -0.17720826043E+03  0.17720826043E+03  0.00000000000E+00 0. -1.
         24    1    1    2    0    0  0.32164815853E+01  0.95009230439E+02  0.72313561348E+02  0.14399155090E+03  0.80419002446E+02 0.  1.
        -24    1    1    2    0    0 -0.32164815853E+01 -0.95009230439E+02 -0.11395114987E+03  0.16878738144E+03  0.80419002446E+02 0. -1.
<mgrwt>
<rscale>  0 0.12451633E+03</rscale>
<asrwt>0</asrwt>
<pdfrwt beam="1">  1        1 0.27262809E-01 0.12451633E+03</pdfrwt>
<pdfrwt beam="2">  1       -1 0.20857026E-01 0.12451633E+03</pdfrwt>
<totfact> 0.30985979E+03</totfact>
</mgrwt>
</event>
<event>
 4    1  0.1437859E-001  0.1091949E+03  0.7546771E-02  0.1262068E+00
          2   -1    0    0  501    0  0.00000000000E+00  0.00000000000E+00  0.11449107222E+03  0.11449107222E+03  0.00000000000E+00 0. -1.
         -2   -1    0    0    0  501 -0.00000000000E+00 -0.00000000000E+00 -0.17889875306E+03  0.17889875306E+03  0.00000000000E+00 0.  1.
         24    1    1    2    0    0  0.75662382856E+00 -0.73863001669E+02  0.62623043814E+02  0.12587762735E+03  0.80419002446E+02 0. -1.
        -24    1    1    2    0    0 -0.75662382856E+00  0.73863001669E+02 -0.12703072465E+03  0.16751219793E+03  0.80419002446E+02 0.  1.
<mgrwt>
<rscale>  0 0.10919492E+03</rscale>
<asrwt>0</asrwt>
<pdfrwt beam="1">  1        2 0.17614011E-01 0.10919492E+03</pdfrwt>
<pdfrwt beam="2">  1       -2 0.27522885E-01 0.10919492E+03</pdfrwt>
<totfact> 0.36464647E+03</totfact>
</mgrwt>
</event>
<event>
 4    1  0.1437859E-001  0.9362258E+02  0.7546771E-02  0.1294309E+00
         -2   -1    0    0    0  501 -0.00000000000E+00  0.00000000000E+00  0.34605925948E+01  0.34605925948E+01  0.00000000000E+00 0.  1.
          2   -1    0    0  501    0  0.00000000000E+00 -0.00000000000E+00 -0.40741149214E+04  0.40741149214E+04  0.00000000000E+00 0. -1.
         24    1    1    2    0    0 -0.42485585162E+02  0.22202385104E+02 -0.32893141079E+04  0.32906462112E+04  0.80419002446E+02 0. -1.
        -24    1    1    2    0    0  0.42485585162E+02 -0.22202385104E+02 -0.78134022093E+03  0.78692930283E+03  0.80419002446E+02 0.  1.
<mgrwt>
<rscale>  0 0.93622576E+02</rscale>
<asrwt>0</asrwt>
<pdfrwt beam="1">  1        2 0.62679035E+00 0.93622576E+02</pdfrwt>
<pdfrwt beam="2">  1       -2 0.53239594E-03 0.93622576E+02</pdfrwt>
<totfact> 0.21809008E+03</totfact>
</mgrwt>
</event>
<event>
 4    1  0.1437859E-001  0.9113515E+02  0.7546771E-02  0.1300126E+00
         -2   -1    0    0    0  501 -0.00000000000E+00  0.00000000000E+00  0.15846661297E+02  0.15846661297E+02  0.00000000000E+00 0.  1.
          2   -1    0    0  501    0  0.00000000000E+00 -0.00000000000E+00 -0.32939112215E+04  0.32939112215E+04  0.00000000000E+00 0. -1.
         24    1    1    2    0    0 -0.11552108636E+02  0.41291024099E+02 -0.31565490064E+04  0.31578643489E+04  0.80419002446E+02 0. -1.
        -24    1    1    2    0    0  0.11552108636E+02 -0.41291024099E+02 -0.12151555374E+03  0.15189353390E+03  0.80419002446E+02 0.  1.
<mgrwt>
<rscale>  0 0.91135152E+02</rscale>
<asrwt>0</asrwt>
<pdfrwt beam="1">  1        2 0.50675599E+00 0.91135152E+02</pdfrwt>
<pdfrwt beam="2">  1       -2 0.24379459E-02 0.91135152E+02</pdfrwt>
<totfact> 0.84493508E+02</totfact>
</mgrwt>
</event>
<event>
 4    1  0.1437859E-001  0.9411394E+02  0.7546771E-02  0.1293184E+00
         -1   -1    0    0    0  501 -0.00000000000E+00  0.00000000000E+00  0.66611639121E+03  0.66611639121E+03  0.00000000000E+00 0.  1.
          1   -1    0    0  501    0  0.00000000000E+00 -0.00000000000E+00 -0.28934327902E+02  0.28934327902E+02  0.00000000000E+00 0. -1.
         24    1    1    2    0    0  0.46457812852E+02  0.15227907130E+02  0.57407245428E+03  0.58173586467E+03  0.80419002446E+02 0.  1.
        -24    1    1    2    0    0 -0.46457812852E+02 -0.15227907130E+02  0.63109609032E+02  0.11331485444E+03  0.80419002446E+02 0. -1.
<mgrwt>
<rscale>  0 0.94113939E+02</rscale>
<asrwt>0</asrwt>
<pdfrwt beam="1">  1        1 0.44514356E-02 0.94113939E+02</pdfrwt>
<pdfrwt beam="2">  1       -1 0.10247943E+00 0.94113939E+02</pdfrwt>
<totfact> 0.17839495E+03</totfact>
</mgrwt>
</event>
<event>
 4    1  0.1437859E-001  0.1227136E+03  0.7546771E-02  0.1238686E+00
          1   -1    0    0  501    0  0.00000000000E+00  0.00000000000E+00  0.27334375906E+03  0.27334375906E+03  0.00000000000E+00 0. -1.
         -1   -1    0    0    0  501 -0.00000000000E+00 -0.00000000000E+00 -0.57527406961E+02  0.57527406961E+02  0.00000000000E+00 0.  1.
         24    1    1    2    0    0 -0.73204185583E+02  0.56855603031E+02  0.73858246013E+02  0.14322593634E+03  0.80419002446E+02 0.  1.
        -24    1    1    2    0    0  0.73204185583E+02 -0.56855603031E+02  0.14195810608E+03  0.18764522968E+03  0.80419002446E+02 0. -1.
<mgrwt>
<rscale>  0 0.12271360E+03</rscale>
<asrwt>0</asrwt>
<pdfrwt beam="1">  1        1 0.42052885E-01 0.12271360E+03</pdfrwt>
<pdfrwt beam="2">  1       -1 0.88503705E-02 0.12271360E+03</pdfrwt>
<totfact> 0.68682466E+03</totfact>
</mgrwt>
</event>
<event>
 4    1  0.1437859E-001  0.9709718E+02  0.7546771E-02  0.1286521E+00
          4   -1    0    0  501    0  0.00000000000E+00  0.00000000000E+00  0.44564857035E+03  0.44564857035E+03  0.00000000000E+00 0. -1.
         -4   -1    0    0    0  501 -0.00000000000E+00 -0.00000000000E+00 -0.30208264894E+02  0.30208264894E+02  0.00000000000E+00 0.  1.
         24    1    1    2    0    0  0.22251257900E+02 -0.49654075294E+02  0.33796996280E+03  0.35164123390E+03  0.80419002446E+02 0. -1.
        -24    1    1    2    0    0 -0.22251257900E+02  0.49654075294E+02  0.77470342662E+02  0.12421560135E+03  0.80419002446E+02 0.  1.
<mgrwt>
<rscale>  0 0.97097176E+02</rscale>
<asrwt>0</asrwt>
<pdfrwt beam="1">  1        4 0.68561314E-01 0.97097176E+02</pdfrwt>
<pdfrwt beam="2">  1       -4 0.46474257E-02 0.97097176E+02</pdfrwt>
<totfact> 0.82357330E+02</totfact>
</mgrwt>
</event>
<event>
 4    1  0.1972376E-001  0.1026660E+03  0.7546771E-02  0.1274787E+00
         -3   -1    0    0    0  501 -0.00000000000E+00  0.00000000000E+00  0.15528857137E+03  0.15528857137E+03  0.00000000000E+00 0.  1.
          3   -1    0    0  501    0  0.00000000000E+00 -0.00000000000E+00 -0.44991363694E+03  0.44991363694E+03  0.00000000000E+00 0. -1.
         24    1    1    2    0    0 -0.34698264636E+02 -0.53564281152E+02  0.13153010702E+03  0.16685468765E+03  0.80419002446E+02 0.  1.
        -24    1    1    2    0    0  0.34698264636E+02  0.53564281152E+02 -0.42615517260E+03  0.43834752066E+03  0.80419002446E+02 0. -1.
<mgrwt>
<rscale>  0 0.10266605E+03</rscale>
<asrwt>0</asrwt>
<pdfrwt beam="1">  1        3 0.69217481E-01 0.10266605E+03</pdfrwt>
<pdfrwt beam="2">  1       -3 0.23890550E-01 0.10266605E+03</pdfrwt>
<totfact> 0.76062626E+01</totfact>
</mgrwt>
</event>
<event>
 4    1  0.1437859E-001  0.8546318E+02  0.7546771E-02  0.1314226E+00
          2   -1    0    0  501    0  0.00000000000E+00  0.00000000000E+00  0.85889983250E+03  0.85889983250E+03  0.00000000000E+00 0. -1.
         -2   -1    0    0    0  501 -0.00000000000E+00 -0.00000000000E+00 -0.63325203319E+02  0.63325203319E+02  0.00000000000E+00 0.  1.
         24    1    1    2    0    0 -0.65897886400E+01 -0.28165832089E+02  0.82682307445E+03  0.83122821885E+03  0.80419002446E+02 0. -1.
        -24    1    1    2    0    0  0.65897886400E+01  0.28165832089E+02 -0.31248445274E+02  0.90996816966E+02  0.80419002446E+02 0.  1.
<mgrwt>
<rscale>  0 0.85463181E+02</rscale>
<asrwt>0</asrwt>
<pdfrwt beam="1">  1        2 0.13213843E+00 0.85463181E+02</pdfrwt>
<pdfrwt beam="2">  1       -2 0.97423396E-02 0.85463181E+02</pdfrwt>
<totfact> 0.21848134E+03</totfact>
</mgrwt>
</event>
<event>
 4    1  0.1437859E-001  0.1266602E+03  0.7546771E-02  0.1232497E+00
          2   -1    0    0  501    0  0.00000000000E+00  0.00000000000E+00  0.21356388516E+04  0.21356388516E+04  0.00000000000E+00 0. -1.
         -2   -1    0    0    0  501 -0.00000000000E+00 -0.00000000000E+00 -0.78651098861E+01  0.78651098861E+01  0.00000000000E+00 0.  1.
         24    1    1    2    0    0  0.67319817006E+02  0.71018538035E+02  0.12909932088E+04  0.12971916865E+04  0.80419002446E+02 0. -1.
        -24    1    1    2    0    0 -0.67319817006E+02 -0.71018538035E+02  0.83678053290E+03  0.84631227493E+03  0.80419002446E+02 0.  1.
<mgrwt>
<rscale>  0 0.12666020E+03</rscale>
<asrwt>0</asrwt>
<pdfrwt beam="1">  1        2 0.32855936E+00 0.12666020E+03</pdfrwt>
<pdfrwt beam="2">  1       -2 0.12100186E-02 0.12666020E+03</pdfrwt>
<totfact> 0.99989519E+03</totfact>
</mgrwt>
</event>
<event>
 4    1  0.1437859E-001  0.1026446E+03  0.7546771E-02  0.1274831E+00
         -2   -1    0    0    0  501 -0.00000000000E+00  0.00000000000E+00  0.20661715653E+03  0.20661715653E+03  0.00000000000E+00 0.  1.
          2   -1    0    0  501    0  0.00000000000E+00 -0.00000000000E+00 -0.51137353080E+02  0.51137353080E+02  0.00000000000E+00 0. -1.
         24    1    1    2    0    0 -0.22675763878E+02 -0.59619609412E+02  0.84601504126E+02  0.13301623415E+03  0.80419002446E+02 0.  1.
        -24    1    1    2    0    0  0.22675763878E+02  0.59619609412E+02  0.70878299319E+02  0.12473827545E+03  0.80419002446E+02 0. -1.
<mgrwt>
<rscale>  0 0.10264456E+03</rscale>
<asrwt>0</asrwt>
<pdfrwt beam="1">  1        2 0.78672852E-02 0.10264458E+03</pdfrwt>
<pdfrwt beam="2">  1       -2 0.31787255E-01 0.10264458E+03</pdfrwt>
<totfact> 0.73531502E+03</totfact>
</mgrwt>
</event>
<event>
 4    1  0.1437859E-001  0.8696039E+02  0.7546771E-02  0.1310384E+00
          2   -1    0    0  501    0  0.00000000000E+00  0.00000000000E+00  0.19788320970E+02  0.19788320970E+02  0.00000000000E+00 0. -1.
         -2   -1    0    0    0  501 -0.00000000000E+00 -0.00000000000E+00 -0.39271330973E+03  0.39271330973E+03  0.00000000000E+00 0.  1.
         24    1    1    2    0    0 -0.30800450987E+02  0.12092347875E+02 -0.15263607344E+03  0.17566980255E+03  0.80419002446E+02 0. -1.
        -24    1    1    2    0    0  0.30800450987E+02 -0.12092347875E+02 -0.22028891533E+03  0.23683182816E+03  0.80419002446E+02 0.  1.
<mgrwt>
<rscale>  0 0.86960385E+02</rscale>
<asrwt>0</asrwt>
<pdfrwt beam="1">  1        2 0.30443572E-02 0.86960385E+02</pdfrwt>
<pdfrwt beam="2">  1       -2 0.60417430E-01 0.86960385E+02</pdfrwt>
<totfact> 0.72017020E+03</totfact>
</mgrwt>
</event>
<event>
 4    1  0.1437859E-001  0.1156965E+03  0.7546771E-02  0.1250370E+00
         -2   -1    0    0    0  501 -0.00000000000E+00  0.00000000000E+00  0.78547183685E+03  0.78547183685E+03  0.00000000000E+00 0.  1.
          2   -1    0    0  501    0  0.00000000000E+00 -0.00000000000E+00 -0.19130070445E+02  0.19130070445E+02  0.00000000000E+00 0. -1.
         24    1    1    2    0    0 -0.78144163944E+02  0.28494971488E+02  0.25024550959E+03  0.27569639965E+03  0.80419002446E+02 0. -1.
        -24    1    1    2    0    0  0.78144163944E+02 -0.28494971488E+02  0.51609625682E+03  0.52890550764E+03  0.80419002446E+02 0.  1.
<mgrwt>
<rscale>  0 0.11569654E+03</rscale>
<asrwt>0</asrwt>
<pdfrwt beam="1">  1        2 0.29430884E-02 0.11569654E+03</pdfrwt>
<pdfrwt beam="2">  1       -2 0.12084180E+00 0.11569654E+03</pdfrwt>
<totfact> 0.16684870E+03</totfact>
</mgrwt>
</event>
<event>
 4    1  0.1437859E-001  0.1001113E+03  0.7546771E-02  0.1280062E+00
         -1   -1    0    0    0  501 -0.00000000000E+00  0.00000000000E+00  0.95106324423E+03  0.95106324423E+03  0.00000000000E+00 0.  1.
          1   -1    0    0  501    0  0.00000000000E+00 -0.00000000000E+00 -0.29907515973E+02  0.29907515973E+02  0.00000000000E+00 0. -1.
         24    1    1    2    0    0  0.55644899988E+02  0.21417375494E+02  0.85530376881E+03  0.86114273600E+03  0.80419002446E+02 0.  1.
        -24    1    1    2    0    0 -0.55644899988E+02 -0.21417375494E+02  0.65851959451E+02  0.11982802421E+03  0.80419002446E+02 0. -1.
<mgrwt>
<rscale>  0 0.10011131E+03</rscale>
<asrwt>0</asrwt>
<pdfrwt beam="1">  1        1 0.46011570E-02 0.10011131E+03</pdfrwt>
<pdfrwt beam="2">  1       -1 0.14631740E+00 0.10011131E+03</pdfrwt>
<totfact> 0.73890045E+02</totfact>
</mgrwt>
</event>
<event>
 4    1  0.1437859E-001  0.1270482E+03  0.7546771E-02  0.1231903E+00
         -2   -1    0    0    0  501 -0.00000000000E+00  0.00000000000E+00  0.17233127533E+04  0.17233127533E+04  0.00000000000E+00 0.  1.
          2   -1    0    0  501    0  0.00000000000E+00 -0.00000000000E+00 -0.95906317622E+01  0.95906317622E+01  0.00000000000E+00 0. -1.
         24    1    1    2    0    0 -0.73686624067E+02 -0.65148414482E+02  0.72437764286E+03  0.73543471492E+03  0.80419002446E+02 0. -1.
        -24    1    1    2    0    0  0.73686624067E+02  0.65148414482E+02  0.98934447869E+03  0.99746867016E+03  0.80419002446E+02 0.  1.
<mgrwt>
<rscale>  0 0.12704822E+03</rscale>
<asrwt>0</asrwt>
<pdfrwt beam="1">  1        2 0.14754832E-02 0.12704822E+03</pdfrwt>
<pdfrwt beam="2">  1       -2 0.26512479E+00 0.12704822E+03</pdfrwt>
<totfact> 0.47972549E+02</totfact>
</mgrwt>
</event>
<event>
 4    1  0.1437859E-001  0.9343214E+02  0.7546771E-02  0.1294747E+00
         -3   -1    0    0    0  501 -0.00000000000E+00  0.00000000000E+00  0.14217565391E+02  0.14217565391E+02  0.00000000000E+00 0.  1.
          3   -1    0    0  501    0  0.00000000000E+00 -0.00000000000E+00 -0.61577180585E+03  0.61577180585E+03  0.00000000000E+00 0. -1.
         24    1    1    2    0    0 -0.92697620520E+01  0.46652072670E+02 -0.31768212371E+03  0.33113666673E+03  0.80419002446E+02 0.  1.
        -24    1    1    2    0    0  0.92697620520E+01 -0.46652072670E+02 -0.28387211675E+03  0.29885270451E+03  0.80419002446E+02 0.  0.
<mgrwt>
<rscale>  0 0.93432128E+02</rscale>
<asrwt>0</asrwt>
<pdfrwt beam="1">  1        3 0.94734126E-01 0.93432140E+02</pdfrwt>
<pdfrwt beam="2">  1       -3 0.21873177E-02 0.93432140E+02</pdfrwt>
<totfact> 0.18261784E+03</totfact>
</mgrwt>
</event>
<event>
 4    1  0.1437859E-001  0.1067198E+03  0.7546771E-02  0.1266768E+00
         -1   -1    0    0    0  501 -0.00000000000E+00  0.00000000000E+00  0.77052674081E+02  0.77052674081E+02  0.00000000000E+00 0.  1.
          1   -1    0    0  501    0  0.00000000000E+00 -0.00000000000E+00 -0.29765697639E+03  0.29765697639E+03  0.00000000000E+00 0. -1.
         24    1    1    2    0    0  0.41231252910E+02  0.56761711446E+02  0.22630430124E+02  0.10909289814E+03  0.80419002446E+02 0.  1.
        -24    1    1    2    0    0 -0.41231252910E+02 -0.56761711446E+02 -0.24323473243E+03  0.26561675233E+03  0.80419002446E+02 0. -1.
<mgrwt>
<rscale>  0 0.10671984E+03</rscale>
<asrwt>0</asrwt>
<pdfrwt beam="1">  1        1 0.45793380E-01 0.10671984E+03</pdfrwt>
<pdfrwt beam="2">  1       -1 0.11854258E-01 0.10671984E+03</pdfrwt>
<totfact> 0.39303563E+03</totfact>
</mgrwt>
</event>
<event>
 4    1  0.1437859E-001  0.1194668E+03  0.7546771E-02  0.1243979E+00
         -3   -1    0    0    0  501 -0.00000000000E+00  0.00000000000E+00  0.18861949721E+03  0.18861949721E+03  0.00000000000E+00 0.  1.
          3   -1    0    0  501    0  0.00000000000E+00 -0.00000000000E+00 -0.15236765971E+03  0.15236765971E+03  0.00000000000E+00 0. -1.
         24    1    1    2    0    0  0.22152477838E+02 -0.85524132680E+02  0.13909109617E+03  0.18335391606E+03  0.80419002446E+02 0.  1.
        -24    1    1    2    0    0 -0.22152477838E+02  0.85524132680E+02 -0.10283925867E+03  0.15763324086E+03  0.80419002446E+02 0. -1.
<mgrwt>
<rscale>  0 0.11946684E+03</rscale>
<asrwt>0</asrwt>
<pdfrwt beam="1">  1        3 0.23441178E-01 0.11946684E+03</pdfrwt>
<pdfrwt beam="2">  1       -3 0.29018384E-01 0.11946684E+03</pdfrwt>
<totfact> 0.43960690E+02</totfact>
</mgrwt>
</event>
<event>
 4    1  0.1437859E-001  0.1385552E+03  0.7546771E-02  0.1215286E+00
          1   -1    0    0  501    0  0.00000000000E+00  0.00000000000E+00  0.13411301529E+03  0.13411301529E+03  0.00000000000E+00 0. -1.
         -1   -1    0    0    0  501 -0.00000000000E+00 -0.00000000000E+00 -0.14541031515E+03  0.14541031515E+03  0.00000000000E+00 0.  1.
         24    1    1    2    0    0  0.11271180632E+03 -0.51336465269E+01  0.11798168474E+02  0.13905652931E+03  0.80419002446E+02 0. -1.
        -24    1    1    2    0    0 -0.11271180632E+03  0.51336465269E+01 -0.23095468333E+02  0.14046680114E+03  0.80419002446E+02 0.  1.
<mgrwt>
<rscale>  0 0.13855514E+03</rscale>
<asrwt>0</asrwt>
<pdfrwt beam="1">  1        1 0.20632772E-01 0.13855516E+03</pdfrwt>
<pdfrwt beam="2">  1       -1 0.22370818E-01 0.13855516E+03</pdfrwt>
<totfact> 0.39504368E+03</totfact>
</mgrwt>
</event>
<event>
 4    1  0.1437859E-001  0.1032649E+03  0.7546771E-02  0.1273576E+00
          2   -1    0    0  501    0  0.00000000000E+00  0.00000000000E+00  0.19429433913E+04  0.19429433913E+04  0.00000000000E+00 0. -1.
         -2   -1    0    0    0  501 -0.00000000000E+00 -0.00000000000E+00 -0.65535990268E+01  0.65535990268E+01  0.00000000000E+00 0.  1.
         24    1    1    2    0    0  0.56033289006E+02 -0.32506736155E+02  0.13611743309E+04  0.13650857820E+04  0.80419002446E+02 0. -1.
        -24    1    1    2    0    0 -0.56033289006E+02  0.32506736155E+02  0.57521546143E+03  0.58441120831E+03  0.80419002446E+02 0.  1.
<mgrwt>
<rscale>  0 0.10326487E+03</rscale>
<asrwt>0</asrwt>
<pdfrwt beam="1">  1        2 0.29891391E+00 0.10326487E+03</pdfrwt>
<pdfrwt beam="2">  1       -2 0.10082476E-02 0.10326487E+03</pdfrwt>
<totfact> 0.16124516E+04</totfact>
</mgrwt>
</event>
<event>
 4    1  0.1437859E-001  0.1617837E+03  0.7546771E-02  0.1186698E+00
         -2   -1    0    0    0  501 -0.00000000000E+00  0.00000000000E+00  0.32985525341E+02  0.32985525341E+02  0.00000000000E+00 0.  1.
          2   -1    0    0  501    0  0.00000000000E+00 -0.00000000000E+00 -0.80160505998E+03  0.80160505998E+03  0.00000000000E+00 0. -1.
         24    1    1    2    0    0  0.71480730080E+02 -0.12081899375E+03 -0.34234336103E+03  0.37864616309E+03  0.80419002446E+02 0. -1.
        -24    1    1    2    0    0 -0.71480730080E+02  0.12081899375E+03 -0.42627617361E+03  0.45594442223E+03  0.80419002446E+02 0.  1.
<mgrwt>
<rscale>  0 0.16178364E+03</rscale>
<asrwt>0</asrwt>
<pdfrwt beam="1">  1        2 0.12332386E+00 0.16178366E+03</pdfrwt>
<pdfrwt beam="2">  1       -2 0.50746962E-02 0.16178366E+03</pdfrwt>
<totfact> 0.66060529E+03</totfact>
</mgrwt>
</event>
<event>
 4    1  0.1437859E-001  0.1108641E+03  0.7546771E-02  0.1258978E+00
          2   -1    0    0  501    0  0.00000000000E+00  0.00000000000E+00  0.21180156507E+03  0.21180156507E+03  0.00000000000E+00 0. -1.
         -2   -1    0    0    0  501 -0.00000000000E+00 -0.00000000000E+00 -0.62877261731E+02  0.62877261731E+02  0.00000000000E+00 0.  1.
         24    1    1    2    0    0  0.35405123769E+02 -0.67602519464E+02  0.11259486986E+03  0.15801406298E+03  0.80419002446E+02 0.  0.
        -24    1    1    2    0    0 -0.35405123769E+02  0.67602519464E+02  0.36329433487E+02  0.11666476383E+03  0.80419002446E+02 0.  1.
<mgrwt>
<rscale>  0 0.11086406E+03</rscale>
<asrwt>0</asrwt>
<pdfrwt beam="1">  1        2 0.32584856E-01 0.11086406E+03</pdfrwt>
<pdfrwt beam="2">  1       -2 0.96734250E-02 0.11086406E+03</pdfrwt>
<totfact> 0.10382394E+04</totfact>
</mgrwt>
</event>
<event>
 4    1  0.1437859E-001  0.8742191E+02  0.7546771E-02  0.1309218E+00
          1   -1    0    0  501    0  0.00000000000E+00  0.00000000000E+00  0.54713052260E+03  0.54713052260E+03  0.00000000000E+00 0. -1.
         -1   -1    0    0    0  501 -0.00000000000E+00 -0.00000000000E+00 -0.26604930392E+02  0.26604930392E+02  0.00000000000E+00 0.  1.
         24    1    1    2    0    0  0.28298048294E+02 -0.19354433531E+02  0.62559945818E+02  0.10750040190E+03  0.80419002446E+02 0.  1.
        -24    1    1    2    0    0 -0.28298048294E+02  0.19354433531E+02  0.45796564639E+03  0.46623505109E+03  0.80419002446E+02 0. -1.
<mgrwt>
<rscale>  0 0.87421906E+02</rscale>
<asrwt>0</asrwt>
<pdfrwt beam="1">  1        1 0.84173918E-01 0.87421906E+02</pdfrwt>
<pdfrwt beam="2">  1       -1 0.40930666E-02 0.87421906E+02</pdfrwt>
<totfact> 0.87904771E+03</totfact>
</mgrwt>
</event>
<event>
 4    1  0.1437859E-001  0.8200616E+02  0.7546771E-02  0.1323453E+00
          3   -1    0    0  501    0  0.00000000000E+00  0.00000000000E+00  0.40550321256E+01  0.40550321256E+01  0.00000000000E+00 0. -1.
         -3   -1    0    0    0  501 -0.00000000000E+00 -0.00000000000E+00 -0.21240045268E+04  0.21240045268E+04  0.00000000000E+00 0.  1.
         24    1    1    2    0    0  0.34741531898E+01 -0.15675625961E+02 -0.15581336624E+04  0.15602902041E+04  0.80419002446E+02 0.  0.
        -24    1    1    2    0    0 -0.34741531898E+01  0.15675625961E+02 -0.56181583227E+03  0.56776935487E+03  0.80419002446E+02 0. -1.
<mgrwt>
<rscale>  0 0.82006164E+02</rscale>
<asrwt>0</asrwt>
<pdfrwt beam="1">  1        3 0.62384931E-03 0.82006164E+02</pdfrwt>
<pdfrwt beam="2">  1       -3 0.32677086E+00 0.82006164E+02</pdfrwt>
<totfact> 0.39568701E+02</totfact>
</mgrwt>
</event>
<event>
 4    1  0.1437859E-001  0.9355424E+02  0.7546771E-02  0.1294466E+00
          1   -1    0    0  501    0  0.00000000000E+00  0.00000000000E+00  0.92657934932E+02  0.92657934932E+02  0.00000000000E+00 0. -1.
         -1   -1    0    0    0  501 -0.00000000000E+00 -0.00000000000E+00 -0.11483237566E+03  0.11483237566E+03  0.00000000000E+00 0.  1.
         24    1    1    2    0    0  0.43908562205E+02 -0.18900199474E+02 -0.54785557309E+02  0.10841518629E+03  0.80419002446E+02 0.  1.
        -24    1    1    2    0    0 -0.43908562205E+02  0.18900199474E+02  0.32611116583E+02  0.99075124296E+02  0.80419002446E+02 0. -1.
<mgrwt>
<rscale>  0 0.93554237E+02</rscale>
<asrwt>0</asrwt>
<pdfrwt beam="1">  1        1 0.14255067E-01 0.93554237E+02</pdfrwt>
<pdfrwt beam="2">  1       -1 0.17666519E-01 0.93554237E+02</pdfrwt>
<totfact> 0.89762084E+03</totfact>
</mgrwt>
</event>
<event>
 4    1  0.1437859E-001  0.1068610E+03  0.7546771E-02  0.1266496E+00
         -2   -1    0    0    0  501 -0.00000000000E+00  0.00000000000E+00  0.62824121600E+02  0.62824121600E+02  0.00000000000E+00 0.  1.
          2   -1    0    0  501    0  0.00000000000E+00 -0.00000000000E+00 -0.30703288082E+03  0.30703288082E+03  0.00000000000E+00 0. -1.
         24    1    1    2    0    0 -0.41995568721E+02  0.56466267190E+02 -0.24022608519E+03  0.26292176608E+03  0.80419002446E+02 0. -1.
        -24    1    1    2    0    0  0.41995568721E+02 -0.56466267190E+02 -0.39826740308E+01  0.10693523633E+03  0.80419002446E+02 0.  1.
<mgrwt>
<rscale>  0 0.10686105E+03</rscale>
<asrwt>0</asrwt>
<pdfrwt beam="1">  1        2 0.47235827E-01 0.10686105E+03</pdfrwt>
<pdfrwt beam="2">  1       -2 0.96652497E-02 0.10686105E+03</pdfrwt>
<totfact> 0.69996429E+03</totfact>
</mgrwt>
</event>
<event>
 4    1  0.1437859E-001  0.8796839E+02  0.7546771E-02  0.1307847E+00
          1   -1    0    0  501    0  0.00000000000E+00  0.00000000000E+00  0.23072371781E+03  0.23072371781E+03  0.00000000000E+00 0. -1.
         -1   -1    0    0    0  501 -0.00000000000E+00 -0.00000000000E+00 -0.92889937429E+02  0.92889937429E+02  0.00000000000E+00 0.  1.
         24    1    1    2    0    0 -0.17792582137E+02 -0.30897340768E+02 -0.60420236912E+02  0.10671945759E+03  0.80419002446E+02 0.  1.
        -24    1    1    2    0    0  0.17792582137E+02  0.30897340768E+02  0.19825401729E+03  0.21689419765E+03  0.80419002446E+02 0. -1.
<mgrwt>
<rscale>  0 0.87968390E+02</rscale>
<asrwt>0</asrwt>
<pdfrwt beam="1">  1        1 0.35495957E-01 0.87968390E+02</pdfrwt>
<pdfrwt beam="2">  1       -1 0.14290760E-01 0.87968390E+02</pdfrwt>
<totfact> 0.39793770E+03</totfact>
</mgrwt>
</event>
<event>
 4    1  0.1437859E-001  0.9537204E+02  0.7546771E-02  0.1290340E+00
         -3   -1    0    0    0  501 -0.00000000000E+00  0.00000000000E+00  0.39467982908E+02  0.39467982908E+02  0.00000000000E+00 0.  1.
          3   -1    0    0  501    0  0.00000000000E+00 -0.00000000000E+00 -0.27181069821E+03  0.27181069821E+03  0.00000000000E+00 0. -1.
         24    1    1    2    0    0 -0.43102019759E+02 -0.27763766318E+02 -0.55466587800E+02  0.11032846026E+03  0.80419002446E+02 0.  1.
        -24    1    1    2    0    0  0.43102019759E+02  0.27763766318E+02 -0.17687612750E+03  0.20095022086E+03  0.80419002446E+02 0. -1.
<mgrwt>
<rscale>  0 0.95372044E+02</rscale>
<asrwt>0</asrwt>
<pdfrwt beam="1">  1        3 0.41817031E-01 0.95372044E+02</pdfrwt>
<pdfrwt beam="2">  1       -3 0.60719973E-02 0.95372044E+02</pdfrwt>
<totfact> 0.20409532E+03</totfact>
</mgrwt>
</event>
<event>
 4    1  0.1437859E-001  0.1157594E+03  0.7546771E-02  0.1250261E+00
         -2   -1    0    0    0  501 -0.00000000000E+00  0.00000000000E+00  0.74900861192E+02  0.74900861192E+02  0.00000000000E+00 0.  1.
          2   -1    0    0  501    0  0.00000000000E+00 -0.00000000000E+00 -0.61212103120E+03  0.61212103120E+03  0.00000000000E+00 0. -1.
         24    1    1    2    0    0  0.52027375325E+02  0.65009117847E+02 -0.55759385325E+03  0.56948323445E+03  0.80419002446E+02 0. -1.
        -24    1    1    2    0    0 -0.52027375325E+02 -0.65009117847E+02  0.20373683243E+02  0.11753865794E+03  0.80419002446E+02 0.  1.
<mgrwt>
<rscale>  0 0.11575945E+03</rscale>
<asrwt>0</asrwt>
<pdfrwt beam="1">  1        2 0.94172464E-01 0.11575945E+03</pdfrwt>
<pdfrwt beam="2">  1       -2 0.11523210E-01 0.11575945E+03</pdfrwt>
<totfact> 0.25360787E+03</totfact>
</mgrwt>
</event>
<event>
 4    1  0.1437859E-001  0.1022342E+03  0.7546771E-02  0.1275667E+00
          1   -1    0    0  501    0  0.00000000000E+00  0.00000000000E+00  0.63145906276E+03  0.63145906276E+03  0.00000000000E+00 0. -1.
         -1   -1    0    0    0  501 -0.00000000000E+00 -0.00000000000E+00 -0.37452208408E+02  0.37452208408E+02  0.00000000000E+00 0.  1.
         24    1    1    2    0    0 -0.62542232473E+02  0.85494673722E+01  0.47155203457E+02  0.11258531611E+03  0.80419002446E+02 0.  1.
        -24    1    1    2    0    0  0.62542232473E+02 -0.85494673722E+01  0.54685165090E+03  0.55632595506E+03  0.80419002446E+02 0. -1.
<mgrwt>
<rscale>  0 0.10223424E+03</rscale>
<asrwt>0</asrwt>
<pdfrwt beam="1">  1        1 0.97147540E-01 0.10223424E+03</pdfrwt>
<pdfrwt beam="2">  1       -1 0.57618787E-02 0.10223424E+03</pdfrwt>
<totfact> 0.44453575E+03</totfact>
</mgrwt>
</event>
<event>
 4    1  0.1437859E-001  0.1432711E+03  0.7546771E-02  0.1208994E+00
         -1   -1    0    0    0  501 -0.00000000000E+00  0.00000000000E+00  0.30605741628E+02  0.30605741628E+02  0.00000000000E+00 0.  1.
          1   -1    0    0  501    0  0.00000000000E+00 -0.00000000000E+00 -0.67495932724E+03  0.67495932724E+03  0.00000000000E+00 0. -1.
         24    1    1    2    0    0  0.11521964598E+03 -0.27996844239E+02 -0.29408086128E+03  0.32712407284E+03  0.80419002446E+02 0.  1.
        -24    1    1    2    0    0 -0.11521964598E+03  0.27996844239E+02 -0.35027272434E+03  0.37844099603E+03  0.80419002446E+02 0. -1.
<mgrwt>
<rscale>  0 0.14327109E+03</rscale>
<asrwt>0</asrwt>
<pdfrwt beam="1">  1        1 0.10383988E+00 0.14327109E+03</pdfrwt>
<pdfrwt beam="2">  1       -1 0.47085762E-02 0.14327109E+03</pdfrwt>
<totfact> 0.55535821E+03</totfact>
</mgrwt>
</event>
<event>
 4    1  0.1437859E-001  0.1109103E+03  0.7546771E-02  0.1258893E+00
         -1   -1    0    0    0  501 -0.00000000000E+00  0.00000000000E+00  0.42153541254E+02  0.42153541254E+02  0.00000000000E+00 0.  1.
          1   -1    0    0  501    0  0.00000000000E+00 -0.00000000000E+00 -0.55574257407E+03  0.55574257407E+03  0.00000000000E+00 0. -1.
         24    1    1    2    0    0  0.22195063972E+02  0.73083863219E+02 -0.50778841569E+02  0.12198187830E+03  0.80419002446E+02 0.  1.
        -24    1    1    2    0    0 -0.22195063972E+02 -0.73083863219E+02 -0.46281019125E+03  0.47591423703E+03  0.80419002446E+02 0. -1.
<mgrwt>
<rscale>  0 0.11091027E+03</rscale>
<asrwt>0</asrwt>
<pdfrwt beam="1">  1        1 0.85498851E-01 0.11091027E+03</pdfrwt>
<pdfrwt beam="2">  1       -1 0.64851607E-02 0.11091027E+03</pdfrwt>
<totfact> 0.44491248E+03</totfact>
</mgrwt>
</event>
<event>
 4    1  0.1437859E-001  0.8934689E+02  0.7546771E-02  0.1304441E+00
         -1   -1    0    0    0  501 -0.00000000000E+00  0.00000000000E+00  0.21834552679E+02  0.21834552679E+02  0.00000000000E+00 0.  1.
          1   -1    0    0  501    0  0.00000000000E+00 -0.00000000000E+00 -0.12111089694E+04  0.12111089694E+04  0.00000000000E+00 0. -1.
         24    1    1    2    0    0  0.26065813581E+02 -0.28917526171E+02 -0.79552233237E+02  0.11963036289E+03  0.80419002446E+02 0.  1.
        -24    1    1    2    0    0 -0.26065813581E+02  0.28917526171E+02 -0.11097221835E+04  0.11133131592E+04  0.80419002446E+02 0. -1.
<mgrwt>
<rscale>  0 0.89346885E+02</rscale>
<asrwt>0</asrwt>
<pdfrwt beam="1">  1        1 0.18632453E+00 0.89346885E+02</pdfrwt>
<pdfrwt beam="2">  1       -1 0.33591607E-02 0.89346885E+02</pdfrwt>
<totfact> 0.34909663E+03</totfact>
</mgrwt>
</event>
<event>
 4    1  0.1437859E-001  0.8271409E+02  0.7546771E-02  0.1321521E+00
         -1   -1    0    0    0  501 -0.00000000000E+00  0.00000000000E+00  0.13722332448E+02  0.13722332448E+02  0.00000000000E+00 0.  1.
          1   -1    0    0  501    0  0.00000000000E+00 -0.00000000000E+00 -0.55984307121E+03  0.55984307121E+03  0.00000000000E+00 0. -1.
         24    1    1    2    0    0 -0.81582082788E+01  0.17545614041E+02 -0.17818912854E+03  0.19645097714E+03  0.80419002446E+02 0.  1.
        -24    1    1    2    0    0  0.81582082788E+01 -0.17545614041E+02 -0.36793161022E+03  0.37711442652E+03  0.80419002446E+02 0. -1.
<mgrwt>
<rscale>  0 0.82714091E+02</rscale>
<asrwt>0</asrwt>
<pdfrwt beam="1">  1        1 0.86129691E-01 0.82714091E+02</pdfrwt>
<pdfrwt beam="2">  1       -1 0.21111284E-02 0.82714091E+02</pdfrwt>
<totfact> 0.21978711E+04</totfact>
</mgrwt>
</event>
<event>
 4    1  0.1437859E-001  0.9537810E+02  0.7546771E-02  0.1290327E+00
          4   -1    0    0  501    0  0.00000000000E+00  0.00000000000E+00  0.67313807205E+03  0.67313807205E+03  0.00000000000E+00 0. -1.
         -4   -1    0    0    0  501 -0.00000000000E+00 -0.00000000000E+00 -0.42692441318E+02  0.42692441318E+02  0.00000000000E+00 0.  1.
         24    1    1    2    0    0  0.14816192244E+02  0.49094263185E+02  0.61111508056E+03  0.61851323662E+03  0.80419002446E+02 0. -1.
        -24    1    1    2    0    0 -0.14816192244E+02 -0.49094263185E+02  0.19330550177E+02  0.97317276754E+02  0.80419002446E+02 0. -1.
<mgrwt>
<rscale>  0 0.95378101E+02</rscale>
<asrwt>0</asrwt>
<pdfrwt beam="1">  1        4 0.10355970E+00 0.95378101E+02</pdfrwt>
<pdfrwt beam="2">  1       -4 0.65680684E-02 0.95378101E+02</pdfrwt>
<totfact> 0.18876389E+02</totfact>
</mgrwt>
</event>
<event>
 4    1  0.1437859E-001  0.8237296E+02  0.7546771E-02  0.1322449E+00
          1   -1    0    0  501    0  0.00000000000E+00  0.00000000000E+00  0.67378420239E+02  0.67378420239E+02  0.00000000000E+00 0. -1.
         -1   -1    0    0    0  501 -0.00000000000E+00 -0.00000000000E+00 -0.14018465381E+03  0.14018465381E+03  0.00000000000E+00 0.  1.
         24    1    1    2    0    0  0.17310239342E+02 -0.42945989383E+01 -0.91478786368E+02  0.12310025295E+03  0.80419002446E+02 0.  1.
        -24    1    1    2    0    0 -0.17310239342E+02  0.42945989383E+01  0.18672552796E+02  0.84462821101E+02  0.80419002446E+02 0. -1.
<mgrwt>
<rscale>  0 0.82372956E+02</rscale>
<asrwt>0</asrwt>
<pdfrwt beam="1">  1        1 0.10365911E-01 0.82372956E+02</pdfrwt>
<pdfrwt beam="2">  1       -1 0.21566870E-01 0.82372956E+02</pdfrwt>
<totfact> 0.97645573E+03</totfact>
</mgrwt>
</event>
<event>
 4    1  0.1437859E-001  0.2044755E+03  0.7546771E-02  0.1146017E+00
          2   -1    0    0  501    0  0.00000000000E+00  0.00000000000E+00  0.97234381450E+02  0.97234381450E+02  0.00000000000E+00 0. -1.
         -2   -1    0    0    0  501 -0.00000000000E+00 -0.00000000000E+00 -0.52987526534E+03  0.52987526534E+03  0.00000000000E+00 0.  1.
         24    1    1    2    0    0  0.16712432277E+03 -0.86095721212E+02 -0.80185986536E+02  0.21963611011E+03  0.80419002446E+02 0.  1.
        -24    1    1    2    0    0 -0.16712432277E+03  0.86095721212E+02 -0.35245489736E+03  0.40747353668E+03  0.80419002446E+02 0. -1.
<mgrwt>
<rscale>  0 0.20447550E+03</rscale>
<asrwt>0</asrwt>
<pdfrwt beam="1">  1        2 0.14959136E-01 0.20447550E+03</pdfrwt>
<pdfrwt beam="2">  1       -2 0.81519272E-01 0.20447550E+03</pdfrwt>
<totfact> 0.53258340E+02</totfact>
</mgrwt>
</event>
<event>
 4    1  0.1437859E-001  0.1169725E+03  0.7546771E-02  0.1248177E+00
          2   -1    0    0  501    0  0.00000000000E+00  0.00000000000E+00  0.13219509974E+04  0.13219509974E+04  0.00000000000E+00 0. -1.
         -2   -1    0    0    0  501 -0.00000000000E+00 -0.00000000000E+00 -0.11169868116E+02  0.11169868116E+02  0.00000000000E+00 0.  1.
         24    1    1    2    0    0 -0.42219455561E+02 -0.73708046548E+02  0.83594618894E+03  0.84409040115E+03  0.80419002446E+02 0. -1.
        -24    1    1    2    0    0  0.42219455561E+02  0.73708046548E+02  0.47483494033E+03  0.48903046436E+03  0.80419002446E+02 0.  1.
<mgrwt>
<rscale>  0 0.11697254E+03</rscale>
<asrwt>0</asrwt>
<pdfrwt beam="1">  1        2 0.20337695E+00 0.11697254E+03</pdfrwt>
<pdfrwt beam="2">  1       -2 0.17184423E-02 0.11697254E+03</pdfrwt>
<totfact> 0.15759948E+04</totfact>
</mgrwt>
</event>
<event>
 4    1  0.1437859E-001  0.8321594E+02  0.7546771E-02  0.1320165E+00
          2   -1    0    0  501    0  0.00000000000E+00  0.00000000000E+00  0.78833754624E+03  0.78833754624E+03  0.00000000000E+00 0. -1.
         -2   -1    0    0    0  501 -0.00000000000E+00 -0.00000000000E+00 -0.97900190320E+01  0.97900190320E+01  0.00000000000E+00 0.  1.
         24    1    1    2    0    0  0.95012163348E+01  0.19167696299E+02  0.26135998605E+03  0.27428804559E+03  0.80419002446E+02 0.  1.
        -24    1    1    2    0    0 -0.95012163348E+01 -0.19167696299E+02  0.51718754115E+03  0.52383951967E+03  0.80419002446E+02 0.  0.
<mgrwt>
<rscale>  0 0.83215932E+02</rscale>
<asrwt>0</asrwt>
<pdfrwt beam="1">  1        2 0.12128265E+00 0.83215943E+02</pdfrwt>
<pdfrwt beam="2">  1       -2 0.15061574E-02 0.83215943E+02</pdfrwt>
<totfact> 0.37805763E+04</totfact>
</mgrwt>
</event>
<event>
 4    1  0.1437859E-001  0.8806704E+02  0.7546771E-02  0.1307601E+00
          4   -1    0    0  501    0  0.00000000000E+00  0.00000000000E+00  0.31958119384E+03  0.31958119384E+03  0.00000000000E+00 0. -1.
         -4   -1    0    0    0  501 -0.00000000000E+00 -0.00000000000E+00 -0.30249744829E+02  0.30249744829E+02  0.00000000000E+00 0.  1.
         24    1    1    2    0    0 -0.19805043259E+02  0.29939075736E+02  0.22244389577E+03  0.23924274433E+03  0.80419002446E+02 0. -1.
        -24    1    1    2    0    0  0.19805043259E+02 -0.29939075736E+02  0.66887553239E+02  0.11058819434E+03  0.80419002446E+02 0.  1.
<mgrwt>
<rscale>  0 0.88067042E+02</rscale>
<asrwt>0</asrwt>
<pdfrwt beam="1">  1        4 0.49166335E-01 0.88067042E+02</pdfrwt>
<pdfrwt beam="2">  1       -4 0.46538071E-02 0.88067042E+02</pdfrwt>
<totfact> 0.15971995E+03</totfact>
</mgrwt>
</event>
<event>
 4    1  0.1437859E-001  0.9544987E+02  0.7546771E-02  0.1290166E+00
          2   -1    0    0  501    0  0.00000000000E+00  0.00000000000E+00  0.96754904912E+03  0.96754904912E+03  0.00000000000E+00 0. -1.
         -2   -1    0    0    0  501 -0.00000000000E+00 -0.00000000000E+00 -0.13976961769E+02  0.13976961769E+02  0.00000000000E+00 0.  1.
         24    1    1    2    0    0 -0.18114328653E+02 -0.48117897334E+02  0.75712411309E+03  0.76311702873E+03  0.80419002446E+02 0.  1.
        -24    1    1    2    0    0  0.18114328653E+02  0.48117897334E+02  0.19644797426E+03  0.21840898217E+03  0.80419002446E+02 0.  0.
<mgrwt>
<rscale>  0 0.95449866E+02</rscale>
<asrwt>0</asrwt>
<pdfrwt beam="1">  1        2 0.14885365E+00 0.95449866E+02</pdfrwt>
<pdfrwt beam="2">  1       -2 0.21503026E-02 0.95449866E+02</pdfrwt>
<totfact> 0.17751450E+04</totfact>
</mgrwt>
</event>
<event>
 4    1  0.1437859E-001  0.8117569E+02  0.7546771E-02  0.1325748E+00
          1   -1    0    0  501    0  0.00000000000E+00  0.00000000000E+00  0.34835225845E+03  0.34835225845E+03  0.00000000000E+00 0. -1.
         -1   -1    0    0    0  501 -0.00000000000E+00 -0.00000000000E+00 -0.19672228952E+02  0.19672228952E+02  0.00000000000E+00 0.  1.
         24    1    1    2    0    0 -0.11027067592E+02  0.82512833057E+00  0.12826589611E+03  0.15179470714E+03  0.80419002446E+02 0.  1.
        -24    1    1    2    0    0  0.11027067592E+02 -0.82512833057E+00  0.20041413338E+03  0.21622978026E+03  0.80419002446E+02 0. -1.
<mgrwt>
<rscale>  0 0.81175692E+02</rscale>
<asrwt>0</asrwt>
<pdfrwt beam="1">  1        1 0.53592651E-01 0.81175692E+02</pdfrwt>
<pdfrwt beam="2">  1       -1 0.30264970E-02 0.81175692E+02</pdfrwt>
<totfact> 0.23802232E+04</totfact>
</mgrwt>
</event>
<event>
 4    1  0.1437859E-001  0.1084773E+03  0.7546771E-02  0.1263416E+00
          2   -1    0    0  501    0  0.00000000000E+00  0.00000000000E+00  0.40615278808E+03  0.40615278808E+03  0.00000000000E+00 0. -1.
         -2   -1    0    0    0  501 -0.00000000000E+00 -0.00000000000E+00 -0.28977113405E+02  0.28977113405E+02  0.00000000000E+00 0.  1.
         24    1    1    2    0    0 -0.57977089858E+02  0.44031319115E+02  0.19129294678E+03  0.21990977117E+03  0.80419002446E+02 0.  1.
        -24    1    1    2    0    0  0.57977089858E+02 -0.44031319115E+02  0.18588272789E+03  0.21522013032E+03  0.80419002446E+02 0. -1.
<mgrwt>
<rscale>  0 0.10847726E+03</rscale>
<asrwt>0</asrwt>
<pdfrwt beam="1">  1        2 0.62485040E-01 0.10847726E+03</pdfrwt>
<pdfrwt beam="2">  1       -2 0.44580177E-02 0.10847726E+03</pdfrwt>
<totfact> 0.16879734E+04</totfact>
</mgrwt>
</event>
<event>
 4    1  0.1437859E-001  0.9320328E+02  0.7546771E-02  0.1295275E+00
          1   -1    0    0  501    0  0.00000000000E+00  0.00000000000E+00  0.84333261016E+02  0.84333261016E+02  0.00000000000E+00 0. -1.
         -1   -1    0    0    0  501 -0.00000000000E+00 -0.00000000000E+00 -0.12061487696E+03  0.12061487696E+03  0.00000000000E+00 0.  1.
         24    1    1    2    0    0  0.21735250206E+02 -0.41799682710E+02 -0.57294853828E+02  0.10940544230E+03  0.80419002446E+02 0.  1.
        -24    1    1    2    0    0 -0.21735250206E+02  0.41799682710E+02  0.21013237881E+02  0.95542695675E+02  0.80419002446E+02 0. -1.
<mgrwt>
<rscale>  0 0.93203275E+02</rscale>
<asrwt>0</asrwt>
<pdfrwt beam="1">  1        1 0.12974348E-01 0.93203275E+02</pdfrwt>
<pdfrwt beam="2">  1       -1 0.18556135E-01 0.93203275E+02</pdfrwt>
<totfact> 0.93750496E+03</totfact>
</mgrwt>
</event>
<event>
 4    1  0.1437859E-001  0.8267384E+02  0.7546771E-02  0.1321630E+00
          1   -1    0    0  501    0  0.00000000000E+00  0.00000000000E+00  0.22399395858E+04  0.22399395858E+04  0.00000000000E+00 0. -1.
         -1   -1    0    0    0  501 -0.00000000000E+00 -0.00000000000E+00 -0.37964805006E+01  0.37964805006E+01  0.00000000000E+00 0.  1.
         24    1    1    2    0    0 -0.82240027858E+01  0.17323805746E+02  0.62107757767E+03  0.62655592082E+03  0.80419002446E+02 0.  1.
        -24    1    1    2    0    0  0.82240027858E+01 -0.17323805746E+02  0.16150655276E+04  0.16171801455E+04  0.80419002446E+02 0. -1.
<mgrwt>
<rscale>  0 0.82673844E+02</rscale>
<asrwt>0</asrwt>
<pdfrwt beam="1">  1        1 0.34460503E+00 0.82673844E+02</pdfrwt>
<pdfrwt beam="2">  1       -1 0.58407571E-03 0.82673844E+02</pdfrwt>
<totfact> 0.92415115E+03</totfact>
</mgrwt>
</event>
<event>
 4    1  0.1437859E-001  0.1013932E+03  0.7546771E-02  0.1277393E+00
         -2   -1    0    0    0  501 -0.00000000000E+00  0.00000000000E+00  0.10824581060E+03  0.10824581060E+03  0.00000000000E+00 0.  1.
          2   -1    0    0  501    0  0.00000000000E+00 -0.00000000000E+00 -0.57840737463E+03  0.57840737463E+03  0.00000000000E+00 0. -1.
         24    1    1    2    0    0  0.12433294281E+02 -0.60487835242E+02 -0.54895718526E+03  0.55824239558E+03  0.80419002446E+02 0. -1.
        -24    1    1    2    0    0 -0.12433294281E+02  0.60487835242E+02  0.78795621236E+02  0.12841078965E+03  0.80419002446E+02 0.  1.
<mgrwt>
<rscale>  0 0.10139320E+03</rscale>
<asrwt>0</asrwt>
<pdfrwt beam="1">  1        2 0.88985749E-01 0.10139320E+03</pdfrwt>
<pdfrwt beam="2">  1       -2 0.16653202E-01 0.10139320E+03</pdfrwt>
<totfact> 0.14872600E+03</totfact>
</mgrwt>
</event>
<event>
 4    1  0.1437859E-001  0.8103597E+02  0.7546771E-02  0.1326137E+00
         -2   -1    0    0    0  501 -0.00000000000E+00  0.00000000000E+00  0.12810369840E+02  0.12810369840E+02  0.00000000000E+00 0.  1.
          2   -1    0    0  501    0  0.00000000000E+00 -0.00000000000E+00 -0.76021829833E+03  0.76021829833E+03  0.00000000000E+00 0. -1.
         24    1    1    2    0    0  0.96459120131E+01 -0.25629177613E+01 -0.59428689023E+03  0.59978640866E+03  0.80419002446E+02 0.  0.
        -24    1    1    2    0    0 -0.96459120131E+01  0.25629177613E+01 -0.15312103826E+03  0.17324225951E+03  0.80419002446E+02 0.  0.
<mgrwt>
<rscale>  0 0.81035968E+02</rscale>
<asrwt>0</asrwt>
<pdfrwt beam="1">  1        2 0.11695665E+00 0.81035968E+02</pdfrwt>
<pdfrwt beam="2">  1       -2 0.19708263E-02 0.81035968E+02</pdfrwt>
<totfact> 0.26830012E+04</totfact>
</mgrwt>
</event>
<event>
 4    1  0.1437859E-001  0.1232765E+03  0.7546771E-02  0.1237788E+00
          1   -1    0    0  501    0  0.00000000000E+00  0.00000000000E+00  0.24712565497E+03  0.24712565497E+03  0.00000000000E+00 0. -1.
         -1   -1    0    0    0  501 -0.00000000000E+00 -0.00000000000E+00 -0.62920459059E+03  0.62920459059E+03  0.00000000000E+00 0.  1.
         24    1    1    2    0    0  0.28747879103E+02  0.88901293545E+02 -0.60724209591E+03  0.61962896926E+03  0.80419002446E+02 0.  1.
        -24    1    1    2    0    0 -0.28747879103E+02 -0.88901293545E+02  0.22516316029E+03  0.25670127629E+03  0.80419002446E+02 0. -1.
<mgrwt>
<rscale>  0 0.12327650E+03</rscale>
<asrwt>0</asrwt>
<pdfrwt beam="1">  1        1 0.38019331E-01 0.12327650E+03</pdfrwt>
<pdfrwt beam="2">  1       -1 0.96800707E-01 0.12327650E+03</pdfrwt>
<totfact> 0.12596938E+02</totfact>
</mgrwt>
</event>
<event>
 4    1  0.1437859E-001  0.8337226E+02  0.7546771E-02  0.1319745E+00
          4   -1    0    0  501    0  0.00000000000E+00  0.00000000000E+00  0.30331744011E+03  0.30331744011E+03  0.00000000000E+00 0. -1.
         -4   -1    0    0    0  501 -0.00000000000E+00 -0.00000000000E+00 -0.28818770267E+02  0.28818770267E+02  0.00000000000E+00 0.  1.
         24    1    1    2    0    0 -0.21887475611E+02 -0.21579624850E+01  0.21240519998E+03  0.22818173310E+03  0.80419002446E+02 0.  0.
        -24    1    1    2    0    0  0.21887475611E+02  0.21579624850E+01  0.62093469864E+02  0.10395447727E+03  0.80419002446E+02 0.  1.
<mgrwt>
<rscale>  0 0.83372264E+02</rscale>
<asrwt>0</asrwt>
<pdfrwt beam="1">  1        4 0.46664219E-01 0.83372264E+02</pdfrwt>
<pdfrwt beam="2">  1       -4 0.44336572E-02 0.83372264E+02</pdfrwt>
<totfact> 0.18867745E+03</totfact>
</mgrwt>
</event>
<event>
 4    1  0.1437859E-001  0.1290933E+03  0.7546771E-02  0.1228807E+00
          3   -1    0    0  501    0  0.00000000000E+00  0.00000000000E+00  0.87830836388E+03  0.87830836388E+03  0.00000000000E+00 0. -1.
         -3   -1    0    0    0  501 -0.00000000000E+00 -0.00000000000E+00 -0.39294676159E+02  0.39294676159E+02  0.00000000000E+00 0.  1.
         24    1    1    2    0    0  0.11803238416E+02 -0.10029225470E+03  0.89573270551E+02  0.15712555343E+03  0.80419002446E+02 0.  1.
        -24    1    1    2    0    0 -0.11803238416E+02  0.10029225470E+03  0.74944041718E+03  0.76047748661E+03  0.80419002446E+02 0. -1.
<mgrwt>
<rscale>  0 0.12909326E+03</rscale>
<asrwt>0</asrwt>
<pdfrwt beam="1">  1        3 0.13512435E+00 0.12909326E+03</pdfrwt>
<pdfrwt beam="2">  1       -3 0.60453354E-02 0.12909326E+03</pdfrwt>
<totfact> 0.17444388E+02</totfact>
</mgrwt>
</event>
<event>
 4    1  0.1645479E-001  0.9238097E+02  0.7546771E-02  0.1297186E+00
         -1   -1    0    0    0  501 -0.00000000000E+00  0.00000000000E+00  0.39090846783E+02  0.39090846783E+02  0.00000000000E+00 0.  1.
          1   -1    0    0  501    0  0.00000000000E+00 -0.00000000000E+00 -0.13451988440E+04  0.13451988440E+04  0.00000000000E+00 0. -1.
         24    1    1    2    0    0  0.43292090156E+02  0.13886047769E+02 -0.19559707289E+02  0.94428944166E+02  0.80419002446E+02 0.  1.
        -24    1    1    2    0    0 -0.43292090156E+02 -0.13886047769E+02 -0.12865482899E+04  0.12898607466E+04  0.80419002446E+02 0. -1.
<mgrwt>
<rscale>  0 0.92380969E+02</rscale>
<asrwt>0</asrwt>
<pdfrwt beam="1">  1        1 0.20695365E+00 0.92380969E+02</pdfrwt>
<pdfrwt beam="2">  1       -1 0.60139769E-02 0.92380969E+02</pdfrwt>
<totfact> 0.12182016E+03</totfact>
</mgrwt>
</event>
<event>
 4    1  0.1437859E-001  0.8559098E+02  0.7546771E-02  0.1313894E+00
          2   -1    0    0  501    0  0.00000000000E+00  0.00000000000E+00  0.58226350262E+02  0.58226350262E+02  0.00000000000E+00 0. -1.
         -2   -1    0    0    0  501 -0.00000000000E+00 -0.00000000000E+00 -0.13394442008E+03  0.13394442008E+03  0.00000000000E+00 0.  1.
         24    1    1    2    0    0  0.14582618096E+02  0.25415479643E+02 -0.14189264640E+02  0.86759152493E+02  0.80419002446E+02 0. -1.
        -24    1    1    2    0    0 -0.14582618096E+02 -0.25415479643E+02 -0.61528805173E+02  0.10541161784E+03  0.80419002446E+02 0.  1.
<mgrwt>
<rscale>  0 0.85590977E+02</rscale>
<asrwt>0</asrwt>
<pdfrwt beam="1">  1        2 0.89579001E-02 0.85590977E+02</pdfrwt>
<pdfrwt beam="2">  1       -2 0.20606834E-01 0.85590977E+02</pdfrwt>
<totfact> 0.13076838E+04</totfact>
</mgrwt>
</event>
<event>
 4    1  0.1437859E-001  0.8735376E+02  0.7546771E-02  0.1309389E+00
         -2   -1    0    0    0  501 -0.00000000000E+00  0.00000000000E+00  0.12183390450E+02  0.12183390450E+02  0.00000000000E+00 0.  1.
          2   -1    0    0  501    0  0.00000000000E+00 -0.00000000000E+00 -0.10360872738E+04  0.10360872738E+04  0.00000000000E+00 0. -1.
         24    1    1    2    0    0  0.19606038747E+00 -0.34109009037E+02 -0.84157293849E+03  0.84609437398E+03  0.80419002446E+02 0. -1.
        -24    1    1    2    0    0 -0.19606038747E+00  0.34109009037E+02 -0.18233094487E+03  0.20217629027E+03  0.80419002446E+02 0.  1.
<mgrwt>
<rscale>  0 0.87353757E+02</rscale>
<asrwt>0</asrwt>
<pdfrwt beam="1">  1        2 0.15939807E+00 0.87353757E+02</pdfrwt>
<pdfrwt beam="2">  1       -2 0.18743674E-02 0.87353757E+02</pdfrwt>
<totfact> 0.19569230E+04</totfact>
</mgrwt>
</event>
<event>
 4    1  0.1437859E-001  0.1313030E+03  0.7546771E-02  0.1225535E+00
         -2   -1    0    0    0  501 -0.00000000000E+00  0.00000000000E+00  0.60053067568E+02  0.60053067568E+02  0.00000000000E+00 0.  1.
          2   -1    0    0  501    0  0.00000000000E+00 -0.00000000000E+00 -0.81495959908E+03  0.81495959908E+03  0.00000000000E+00 0. -1.
         24    1    1    2    0    0  0.10105643336E+03 -0.23682271395E+02 -0.72956522073E+03  0.74128663819E+03  0.80419002446E+02 0. -1.
        -24    1    1    2    0    0 -0.10105643336E+03  0.23682271395E+02 -0.25341310785E+02  0.13372602846E+03  0.80419002446E+02 0.  1.
<mgrwt>
<rscale>  0 0.13130297E+03</rscale>
<asrwt>0</asrwt>
<pdfrwt beam="1">  1        2 0.12537839E+00 0.13130297E+03</pdfrwt>
<pdfrwt beam="2">  1       -2 0.92389345E-02 0.13130297E+03</pdfrwt>
<totfact> 0.25642794E+03</totfact>
</mgrwt>
</event>
<event>
 4    1  0.1437859E-001  0.1805216E+03  0.7546771E-02  0.1167299E+00
         -1   -1    0    0    0  501 -0.00000000000E+00  0.00000000000E+00  0.48158121111E+02  0.48158121111E+02  0.00000000000E+00 0.  1.
          1   -1    0    0  501    0  0.00000000000E+00 -0.00000000000E+00 -0.71557019960E+03  0.71557019960E+03  0.00000000000E+00 0. -1.
         24    1    1    2    0    0  0.55811982657E+02  0.15167673219E+03 -0.42271997046E+03  0.45965225756E+03  0.80419002446E+02 0. -1.
        -24    1    1    2    0    0 -0.55811982657E+02 -0.15167673219E+03 -0.24469210803E+03  0.30407606315E+03  0.80419002446E+02 0.  1.
<mgrwt>
<rscale>  0 0.18052156E+03</rscale>
<asrwt>0</asrwt>
<pdfrwt beam="1">  1        1 0.11008772E+00 0.18052158E+03</pdfrwt>
<pdfrwt beam="2">  1       -1 0.74089422E-02 0.18052158E+03</pdfrwt>
<totfact> 0.26149039E+03</totfact>
</mgrwt>
</event>
<event>
 4    1  0.1437859E-001  0.1229864E+03  0.7546771E-02  0.1238250E+00
         -1   -1    0    0    0  501 -0.00000000000E+00  0.00000000000E+00  0.11377659764E+02  0.11377659764E+02  0.00000000000E+00 0.  1.
          1   -1    0    0  501    0  0.00000000000E+00 -0.00000000000E+00 -0.14351980642E+04  0.14351980642E+04  0.00000000000E+00 0. -1.
         24    1    1    2    0    0  0.73326428491E+02 -0.57285745991E+02 -0.90827435514E+03  0.91656311401E+03  0.80419002446E+02 0. -1.
        -24    1    1    2    0    0 -0.73326428491E+02  0.57285745991E+02 -0.51554604932E+03  0.53001260997E+03  0.80419002446E+02 0.  1.
<mgrwt>
<rscale>  0 0.12298635E+03</rscale>
<asrwt>0</asrwt>
<pdfrwt beam="1">  1        1 0.22079955E+00 0.12298636E+03</pdfrwt>
<pdfrwt beam="2">  1       -1 0.17504104E-02 0.12298636E+03</pdfrwt>
<totfact> 0.64218020E+03</totfact>
</mgrwt>
</event>
<event>
 4    1  0.1437859E-001  0.1146560E+03  0.7546771E-02  0.1252183E+00
          1   -1    0    0  501    0  0.00000000000E+00  0.00000000000E+00  0.80841547851E+02  0.80841547851E+02  0.00000000000E+00 0. -1.
         -1   -1    0    0    0  501 -0.00000000000E+00 -0.00000000000E+00 -0.23899636415E+03  0.23899636415E+03  0.00000000000E+00 0.  1.
         24    1    1    2    0    0 -0.54164034927E+02  0.61196658899E+02 -0.16948399327E+03  0.20462359021E+03  0.80419002446E+02 0.  1.
        -24    1    1    2    0    0  0.54164034927E+02 -0.61196658899E+02  0.11329176977E+02  0.11521432179E+03  0.80419002446E+02 0.  0.
<mgrwt>
<rscale>  0 0.11465596E+03</rscale>
<asrwt>0</asrwt>
<pdfrwt beam="1">  1        1 0.12437162E-01 0.11465596E+03</pdfrwt>
<pdfrwt beam="2">  1       -1 0.36768670E-01 0.11465596E+03</pdfrwt>
<totfact> 0.32704011E+03</totfact>
</mgrwt>
</event>
<event>
 4    1  0.1437859E-001  0.9202334E+02  0.7546771E-02  0.1298025E+00
         -1   -1    0    0    0  501 -0.00000000000E+00  0.00000000000E+00  0.22866458718E+02  0.22866458718E+02  0.00000000000E+00 0.  1.
          1   -1    0    0  501    0  0.00000000000E+00 -0.00000000000E+00 -0.44975325473E+03  0.44975325473E+03  0.00000000000E+00 0. -1.
         24    1    1    2    0    0 -0.15156493946E+02 -0.42087531204E+02 -0.11414336303E+03  0.14661856250E+03  0.80419002446E+02 0.  0.
        -24    1    1    2    0    0  0.15156493946E+02  0.42087531204E+02 -0.31274343298E+03  0.32600115095E+03  0.80419002446E+02 0.  1.
<mgrwt>
<rscale>  0 0.92023342E+02</rscale>
<asrwt>0</asrwt>
<pdfrwt beam="1">  1        1 0.69192806E-01 0.92023342E+02</pdfrwt>
<pdfrwt beam="2">  1       -1 0.35179168E-02 0.92023342E+02</pdfrwt>
<totfact> 0.14139396E+04</totfact>
</mgrwt>
</event>
<event>
 4    1  0.1437859E-001  0.8043563E+02  0.7546771E-02  0.1327820E+00
         -1   -1    0    0    0  501 -0.00000000000E+00  0.00000000000E+00  0.11353475849E+03  0.11353475849E+03  0.00000000000E+00 0.  1.
          1   -1    0    0  501    0  0.00000000000E+00 -0.00000000000E+00 -0.66645205033E+02  0.66645205033E+02  0.00000000000E+00 0. -1.
         24    1    1    2    0    0 -0.16234446825E+01 -0.19897745167E+00  0.57742308066E+02  0.99015479900E+02  0.80419002446E+02 0.  0.
        -24    1    1    2    0    0  0.16234446825E+01  0.19897745167E+00 -0.10852754610E+02  0.81164483622E+02  0.80419002446E+02 0. -1.
<mgrwt>
<rscale>  0 0.80435633E+02</rscale>
<asrwt>0</asrwt>
<pdfrwt beam="1">  1        1 0.10253108E-01 0.80435633E+02</pdfrwt>
<pdfrwt beam="2">  1       -1 0.17466886E-01 0.80435633E+02</pdfrwt>
<totfact> 0.13784552E+04</totfact>
</mgrwt>
</event>
<event>
 4    1  0.1437859E-001  0.1120987E+03  0.7546771E-02  0.1256732E+00
         -2   -1    0    0    0  501 -0.00000000000E+00  0.00000000000E+00  0.10723488633E+02  0.10723488633E+02  0.00000000000E+00 0.  1.
          2   -1    0    0  501    0  0.00000000000E+00 -0.00000000000E+00 -0.14690188865E+04  0.14690188865E+04  0.00000000000E+00 0. -1.
         24    1    1    2    0    0 -0.22503890073E+02  0.74782865597E+02 -0.10619281975E+04  0.10678284575E+04  0.80419002446E+02 0.  1.
        -24    1    1    2    0    0  0.22503890073E+02 -0.74782865597E+02 -0.39636720035E+03  0.41191391761E+03  0.80419002446E+02 0.  0.
<mgrwt>
<rscale>  0 0.11209870E+03</rscale>
<asrwt>0</asrwt>
<pdfrwt beam="1">  1        2 0.22600285E+00 0.11209870E+03</pdfrwt>
<pdfrwt beam="2">  1       -2 0.16497679E-02 0.11209870E+03</pdfrwt>
<totfact> 0.13955216E+04</totfact>
</mgrwt>
</event>
<event>
 4    1  0.1723894E-001  0.1395958E+03  0.7546771E-02  0.1213874E+00
          3   -1    0    0  501    0  0.00000000000E+00  0.00000000000E+00  0.21639938879E+04  0.21639938879E+04  0.00000000000E+00 0. -1.
         -3   -1    0    0    0  501 -0.00000000000E+00 -0.00000000000E+00 -0.12311074724E+03  0.12311074724E+03  0.00000000000E+00 0.  1.
         24    1    1    2    0    0  0.22866814371E+01 -0.11408124761E+03 -0.80493303464E+02  0.16114014964E+03  0.80419002446E+02 0.  1.
        -24    1    1    2    0    0 -0.22866814371E+01  0.11408124761E+03  0.21213764441E+04  0.21259644855E+04  0.80419002446E+02 0. -1.
<mgrwt>
<rscale>  0 0.13959576E+03</rscale>
<asrwt>0</asrwt>
<pdfrwt beam="1">  1        3 0.33292211E+00 0.13959576E+03</pdfrwt>
<pdfrwt beam="2">  1       -3 0.18940117E-01 0.13959576E+03</pdfrwt>
<totfact> 0.18522329E+00</totfact>
</mgrwt>
</event>
<event>
 4    1  0.1437859E-001  0.9843600E+02  0.7546771E-02  0.1283620E+00
         -4   -1    0    0    0  501 -0.00000000000E+00  0.00000000000E+00  0.34150291579E+02  0.34150291579E+02  0.00000000000E+00 0.  1.
          4   -1    0    0  501    0  0.00000000000E+00 -0.00000000000E+00 -0.38753627112E+03  0.38753627112E+03  0.00000000000E+00 0. -1.
         24    1    1    2    0    0 -0.43824233323E+02  0.36081386413E+02 -0.28581293453E+03  0.30228906591E+03  0.80419002446E+02 0. -1.
        -24    1    1    2    0    0  0.43824233323E+02 -0.36081386413E+02 -0.67573045010E+02  0.11939749678E+03  0.80419002446E+02 0. -1.
<mgrwt>
<rscale>  0 0.98435999E+02</rscale>
<asrwt>0</asrwt>
<pdfrwt beam="1">  1        4 0.59620967E-01 0.98435999E+02</pdfrwt>
<pdfrwt beam="2">  1       -4 0.52538908E-02 0.98435999E+02</pdfrwt>
<totfact> 0.91205631E+02</totfact>
</mgrwt>
</event>
<event>
 4    1  0.1437859E-001  0.9405202E+02  0.7546771E-02  0.1293326E+00
          2   -1    0    0  501    0  0.00000000000E+00  0.00000000000E+00  0.24090471263E+03  0.24090471263E+03  0.00000000000E+00 0. -1.
         -2   -1    0    0    0  501 -0.00000000000E+00 -0.00000000000E+00 -0.11417458621E+03  0.11417458621E+03  0.00000000000E+00 0.  1.
         24    1    1    2    0    0 -0.28030294744E+02  0.39910766804E+02  0.20959523083E+03  0.22973015360E+03  0.80419002446E+02 0. -1.
        -24    1    1    2    0    0  0.28030294744E+02 -0.39910766804E+02 -0.82865104409E+02  0.12534914524E+03  0.80419002446E+02 0.  1.
<mgrwt>
<rscale>  0 0.94052021E+02</rscale>
<asrwt>0</asrwt>
<pdfrwt beam="1">  1        2 0.37062263E-01 0.94052021E+02</pdfrwt>
<pdfrwt beam="2">  1       -2 0.17565321E-01 0.94052021E+02</pdfrwt>
<totfact> 0.34448037E+03</totfact>
</mgrwt>
</event>
<event>
 4    1  0.1437859E-001  0.8763262E+02  0.7546771E-02  0.1308688E+00
         -1   -1    0    0    0  501 -0.00000000000E+00  0.00000000000E+00  0.13389300898E+04  0.13389300898E+04  0.00000000000E+00 0.  1.
          1   -1    0    0  501    0  0.00000000000E+00 -0.00000000000E+00 -0.57882235626E+01  0.57882235626E+01  0.00000000000E+00 0. -1.
         24    1    1    2    0    0 -0.34733198688E+02 -0.24210519481E+01  0.60241881106E+03  0.60875930914E+03  0.80419002446E+02 0.  1.
        -24    1    1    2    0    0  0.34733198688E+02  0.24210519481E+01  0.73072305519E+03  0.73595900424E+03  0.80419002446E+02 0.  0.
<mgrwt>
<rscale>  0 0.87632611E+02</rscale>
<asrwt>0</asrwt>
<pdfrwt beam="1">  1        1 0.89049700E-03 0.87632622E+02</pdfrwt>
<pdfrwt beam="2">  1       -1 0.20598900E+00 0.87632622E+02</pdfrwt>
<totfact> 0.27246373E+03</totfact>
</mgrwt>
</event>
<event>
 4    1  0.1437859E-001  0.8521226E+02  0.7546771E-02  0.1314878E+00
         -4   -1    0    0    0  501 -0.00000000000E+00  0.00000000000E+00  0.86764477752E+01  0.86764477752E+01  0.00000000000E+00 0.  1.
          4   -1    0    0  501    0  0.00000000000E+00 -0.00000000000E+00 -0.87607842833E+03  0.87607842833E+03  0.00000000000E+00 0. -1.
         24    1    1    2    0    0 -0.22049639889E+02  0.17542134877E+02 -0.52727739728E+03  0.53411851003E+03  0.80419002446E+02 0. -1.
        -24    1    1    2    0    0  0.22049639889E+02 -0.17542134877E+02 -0.34012458327E+03  0.35063636608E+03  0.80419002446E+02 0.  1.
<mgrwt>
<rscale>  0 0.85212259E+02</rscale>
<asrwt>0</asrwt>
<pdfrwt beam="1">  1        4 0.13478129E+00 0.85212259E+02</pdfrwt>
<pdfrwt beam="2">  1       -4 0.13348382E-02 0.85212259E+02</pdfrwt>
<totfact> 0.11751203E+03</totfact>
</mgrwt>
</event>
<event>
 4    1  0.1437859E-001  0.1014921E+03  0.7546771E-02  0.1277189E+00
          1   -1    0    0  501    0  0.00000000000E+00  0.00000000000E+00  0.31416304478E+03  0.31416304478E+03  0.00000000000E+00 0. -1.
         -1   -1    0    0    0  501 -0.00000000000E+00 -0.00000000000E+00 -0.55324058861E+02  0.55324058861E+02  0.00000000000E+00 0.  1.
         24    1    1    2    0    0  0.59904241384E+02 -0.15649600831E+02  0.11508211330E+02  0.10214246435E+03  0.80419002446E+02 0.  1.
        -24    1    1    2    0    0 -0.59904241384E+02  0.15649600831E+02  0.24733077459E+03  0.26734463929E+03  0.80419002446E+02 0. -1.
<mgrwt>
<rscale>  0 0.10149209E+03</rscale>
<asrwt>0</asrwt>
<pdfrwt beam="1">  1        1 0.48332775E-01 0.10149209E+03</pdfrwt>
<pdfrwt beam="2">  1       -1 0.85113938E-02 0.10149209E+03</pdfrwt>
<totfact> 0.60589051E+03</totfact>
</mgrwt>
</event>
<event>
 4    1  0.1437859E-001  0.1049847E+03  0.7546771E-02  0.1270150E+00
         -1   -1    0    0    0  501 -0.00000000000E+00  0.00000000000E+00  0.10827262909E+02  0.10827262909E+02  0.00000000000E+00 0.  1.
          1   -1    0    0  501    0  0.00000000000E+00 -0.00000000000E+00 -0.11584639305E+04  0.11584639305E+04  0.00000000000E+00 0. -1.
         24    1    1    2    0    0 -0.65016977068E+02 -0.18093476913E+02 -0.37021507493E+03  0.38481294011E+03  0.80419002446E+02 0.  0.
        -24    1    1    2    0    0  0.65016977068E+02  0.18093476913E+02 -0.77742159270E+03  0.78447825335E+03  0.80419002446E+02 0.  1.
<mgrwt>
<rscale>  0 0.10498475E+03</rscale>
<asrwt>0</asrwt>
<pdfrwt beam="1">  1        1 0.17822513E+00 0.10498475E+03</pdfrwt>
<pdfrwt beam="2">  1       -1 0.16657336E-02 0.10498475E+03</pdfrwt>
<totfact> 0.10450358E+04</totfact>
</mgrwt>
</event>
<event>
 4    1  0.1437859E-001  0.1475541E+03  0.7546771E-02  0.1203511E+00
          2   -1    0    0  501    0  0.00000000000E+00  0.00000000000E+00  0.61415934761E+03  0.61415934761E+03  0.00000000000E+00 0. -1.
         -2   -1    0    0    0  501 -0.00000000000E+00 -0.00000000000E+00 -0.43652644714E+02  0.43652644714E+02  0.00000000000E+00 0.  1.
         24    1    1    2    0    0 -0.89143586906E+02 -0.85781143721E+02  0.42782482917E+03  0.45255528294E+03  0.80419002446E+02 0. -1.
        -24    1    1    2    0    0  0.89143586906E+02  0.85781143721E+02  0.14268187373E+03  0.20525670939E+03  0.80419002446E+02 0.  1.
<mgrwt>
<rscale>  0 0.14755406E+03</rscale>
<asrwt>0</asrwt>
<pdfrwt beam="1">  1        2 0.94486047E-01 0.14755406E+03</pdfrwt>
<pdfrwt beam="2">  1       -2 0.67157920E-02 0.14755406E+03</pdfrwt>
<totfact> 0.59098030E+03</totfact>
</mgrwt>
</event>
<event>
 4    1  0.1437859E-001  0.8959077E+02  0.7546771E-02  0.1303846E+00
         -1   -1    0    0    0  501 -0.00000000000E+00  0.00000000000E+00  0.17210818023E+02  0.17210818023E+02  0.00000000000E+00 0.  1.
          1   -1    0    0  501    0  0.00000000000E+00 -0.00000000000E+00 -0.46648339906E+03  0.46648339906E+03  0.00000000000E+00 0. -1.
         24    1    1    2    0    0  0.36425550319E+02  0.15246837770E+02 -0.22850852412E+03  0.24544377835E+03  0.80419002446E+02 0.  0.
        -24    1    1    2    0    0 -0.36425550319E+02 -0.15246837770E+02 -0.22076405691E+03  0.23825043874E+03  0.80419002446E+02 0. -1.
<mgrwt>
<rscale>  0 0.89590763E+02</rscale>
<asrwt>0</asrwt>
<pdfrwt beam="1">  1        1 0.71766672E-01 0.89590774E+02</pdfrwt>
<pdfrwt beam="2">  1       -1 0.26478183E-02 0.89590774E+02</pdfrwt>
<totfact> 0.20278949E+04</totfact>
</mgrwt>
</event>
<event>
 4    1  0.1437859E-001  0.1028090E+03  0.7546771E-02  0.1274497E+00
          2   -1    0    0  501    0  0.00000000000E+00  0.00000000000E+00  0.34159598376E+04  0.34159598376E+04  0.00000000000E+00 0. -1.
         -2   -1    0    0    0  501 -0.00000000000E+00 -0.00000000000E+00 -0.35277497159E+01  0.35277497159E+01  0.00000000000E+00 0.  1.
         24    1    1    2    0    0  0.55622028308E+02 -0.31759638661E+02  0.23055875288E+04  0.23078785829E+04  0.80419002446E+02 0.  0.
        -24    1    1    2    0    0 -0.55622028308E+02  0.31759638661E+02  0.11068445591E+04  0.11116090044E+04  0.80419002446E+02 0.  1.
<mgrwt>
<rscale>  0 0.10280905E+03</rscale>
<asrwt>0</asrwt>
<pdfrwt beam="1">  1        2 0.52552964E+00 0.10280905E+03</pdfrwt>
<pdfrwt beam="2">  1       -2 0.54273346E-03 0.10280905E+03</pdfrwt>
<totfact> 0.60060214E+03</totfact>
</mgrwt>
</event>
<event>
 4    1  0.1437859E-001  0.1119227E+03  0.7546771E-02  0.1257050E+00
          1   -1    0    0  501    0  0.00000000000E+00  0.00000000000E+00  0.39314767375E+03  0.39314767375E+03  0.00000000000E+00 0. -1.
         -1   -1    0    0    0  501 -0.00000000000E+00 -0.00000000000E+00 -0.71914669792E+02  0.71914669792E+02  0.00000000000E+00 0.  1.
         24    1    1    2    0    0  0.13703633967E+02  0.76626926869E+02 -0.12917719663E+02  0.11266569549E+03  0.80419002446E+02 0.  1.
        -24    1    1    2    0    0 -0.13703633967E+02 -0.76626926869E+02  0.33415072362E+03  0.35239664805E+03  0.80419002446E+02 0. -1.
<mgrwt>
<rscale>  0 0.11192270E+03</rscale>
<asrwt>0</asrwt>
<pdfrwt beam="1">  1        1 0.60484256E-01 0.11192270E+03</pdfrwt>
<pdfrwt beam="2">  1       -1 0.11063796E-01 0.11192270E+03</pdfrwt>
<totfact> 0.31035380E+03</totfact>
</mgrwt>
</event>
<event>
 4    1  0.1437859E-001  0.9589341E+02  0.7546771E-02  0.1289177E+00
          2   -1    0    0  501    0  0.00000000000E+00  0.00000000000E+00  0.19713942386E+04  0.19713942386E+04  0.00000000000E+00 0. -1.
         -2   -1    0    0    0  501 -0.00000000000E+00 -0.00000000000E+00 -0.14369029806E+02  0.14369029806E+02  0.00000000000E+00 0.  1.
         24    1    1    2    0    0 -0.21973598512E+02  0.47386602936E+02  0.17944771115E+04  0.17970374645E+04  0.80419002446E+02 0.  1.
        -24    1    1    2    0    0  0.21973598512E+02 -0.47386602936E+02  0.16254809726E+03  0.18872580387E+03  0.80419002446E+02 0.  1.
<mgrwt>
<rscale>  0 0.95893405E+02</rscale>
<asrwt>0</asrwt>
<pdfrwt beam="1">  1        2 0.30329121E+00 0.95893405E+02</pdfrwt>
<pdfrwt beam="2">  1       -2 0.22106215E-02 0.95893405E+02</pdfrwt>
<totfact> 0.50612612E+03</totfact>
</mgrwt>
</event>
<event>
 4    1  0.1437859E-001  0.8148001E+02  0.7546771E-02  0.1324903E+00
          2   -1    0    0  501    0  0.00000000000E+00  0.00000000000E+00  0.15431562514E+04  0.15431562514E+04  0.00000000000E+00 0. -1.
         -2   -1    0    0    0  501 -0.00000000000E+00 -0.00000000000E+00 -0.69968962009E+01  0.69968962009E+01  0.00000000000E+00 0.  1.
         24    1    1    2    0    0 -0.71920701747E+00 -0.13086619312E+02  0.12490800835E+04  0.12517348153E+04  0.80419002446E+02 0. -1.
        -24    1    1    2    0    0  0.71920701747E+00  0.13086619312E+02  0.28707927168E+03  0.29841833229E+03  0.80419002446E+02 0.  1.
<mgrwt>
<rscale>  0 0.81480015E+02</rscale>
<asrwt>0</asrwt>
<pdfrwt beam="1">  1        2 0.23740838E+00 0.81480015E+02</pdfrwt>
<pdfrwt beam="2">  1       -2 0.10764468E-02 0.81480015E+02</pdfrwt>
<totfact> 0.23001400E+04</totfact>
</mgrwt>
</event>
<event>
 4    1  0.1437859E-001  0.8291658E+02  0.7546771E-02  0.1320973E+00
          2   -1    0    0  501    0  0.00000000000E+00  0.00000000000E+00  0.19944623498E+04  0.19944623498E+04  0.00000000000E+00 0. -1.
         -2   -1    0    0    0  501 -0.00000000000E+00 -0.00000000000E+00 -0.98536102303E+01  0.98536102303E+01  0.00000000000E+00 0.  1.
         24    1    1    2    0    0  0.19519989954E+02 -0.51877335472E+01  0.18003733885E+04  0.18022817473E+04  0.80419002446E+02 0. -1.
        -24    1    1    2    0    0 -0.19519989954E+02  0.51877335472E+01  0.18423535111E+03  0.20203421280E+03  0.80419002446E+02 0.  1.
<mgrwt>
<rscale>  0 0.82916576E+02</rscale>
<asrwt>0</asrwt>
<pdfrwt beam="1">  1        2 0.30684004E+00 0.82916576E+02</pdfrwt>
<pdfrwt beam="2">  1       -2 0.15159416E-02 0.82916576E+02</pdfrwt>
<totfact> 0.84240422E+03</totfact>
</mgrwt>
</event>
<event>
 4    1  0.1437859E-001  0.8947068E+02  0.7546771E-02  0.1304139E+00
         -2   -1    0    0    0  501 -0.00000000000E+00  0.00000000000E+00  0.10765826343E+03  0.10765826343E+03  0.00000000000E+00 0.  1.
          2   -1    0    0  501    0  0.00000000000E+00 -0.00000000000E+00 -0.10062321667E+03  0.10062321667E+03  0.00000000000E+00 0. -1.
         24    1    1    2    0    0 -0.39151791380E+02 -0.22189114514E+01 -0.49691013749E+02  0.10234353491E+03  0.80419002446E+02 0. -1.
        -24    1    1    2    0    0  0.39151791380E+02  0.22189114514E+01  0.56726060501E+02  0.10593794519E+03  0.80419002446E+02 0.  1.
<mgrwt>
<rscale>  0 0.89470678E+02</rscale>
<asrwt>0</asrwt>
<pdfrwt beam="1">  1        2 0.15480495E-01 0.89470678E+02</pdfrwt>
<pdfrwt beam="2">  1       -2 0.16562810E-01 0.89470678E+02</pdfrwt>
<totfact> 0.98496377E+03</totfact>
</mgrwt>
</event>
<event>
 4    1  0.1437859E-001  0.8639072E+02  0.7546771E-02  0.1311835E+00
         -1   -1    0    0    0  501 -0.00000000000E+00  0.00000000000E+00  0.11639269056E+02  0.11639269056E+02  0.00000000000E+00 0.  1.
          1   -1    0    0  501    0  0.00000000000E+00 -0.00000000000E+00 -0.84260224195E+03  0.84260224195E+03  0.00000000000E+00 0. -1.
         24    1    1    2    0    0 -0.25796065693E+02 -0.18185143960E+02 -0.62428993878E+03  0.63023906582E+03  0.80419002446E+02 0.  0.
        -24    1    1    2    0    0  0.25796065693E+02  0.18185143960E+02 -0.20667303411E+03  0.22400244519E+03  0.80419002446E+02 0.  0.
<mgrwt>
<rscale>  0 0.86390707E+02</rscale>
<asrwt>0</asrwt>
<pdfrwt beam="1">  1        1 0.12963114E+00 0.86390718E+02</pdfrwt>
<pdfrwt beam="2">  1       -1 0.17906565E-02 0.86390718E+02</pdfrwt>
<totfact> 0.15743694E+04</totfact>
</mgrwt>
</event>
<event>
 4    1  0.1437859E-001  0.8235511E+02  0.7546771E-02  0.1322498E+00
         -2   -1    0    0    0  501 -0.00000000000E+00  0.00000000000E+00  0.39032874044E+02  0.39032874044E+02  0.00000000000E+00 0.  1.
          2   -1    0    0  501    0  0.00000000000E+00 -0.00000000000E+00 -0.60593413936E+03  0.60593413936E+03  0.00000000000E+00 0. -1.
         24    1    1    2    0    0 -0.98231847961E+01 -0.14786950941E+02 -0.55579852701E+03  0.56186685919E+03  0.80419002446E+02 0.  0.
        -24    1    1    2    0    0  0.98231847961E+01  0.14786950941E+02 -0.11102738305E+02  0.83100154211E+02  0.80419002446E+02 0.  0.
<mgrwt>
<rscale>  0 0.82355114E+02</rscale>
<asrwt>0</asrwt>
<pdfrwt beam="1">  1        2 0.93220633E-01 0.82355114E+02</pdfrwt>
<pdfrwt beam="2">  1       -2 0.60050578E-02 0.82355114E+02</pdfrwt>
<totfact> 0.68650607E+03</totfact>
</mgrwt>
</event>
<event>
 4    1  0.1437859E-001  0.1244482E+03  0.7546771E-02  0.1235934E+00
          2   -1    0    0  501    0  0.00000000000E+00  0.00000000000E+00  0.50475213324E+02  0.50475213324E+02  0.00000000000E+00 0. -1.
         -2   -1    0    0    0  501 -0.00000000000E+00 -0.00000000000E+00 -0.34787540467E+03  0.34787540467E+03  0.00000000000E+00 0.  1.
         24    1    1    2    0    0 -0.83573062843E+02  0.45118497199E+02 -0.80285066043E+02  0.14809808711E+03  0.80419002446E+02 0. -1.
        -24    1    1    2    0    0  0.83573062843E+02 -0.45118497199E+02 -0.21711512530E+03  0.25025253088E+03  0.80419002446E+02 0.  1.
<mgrwt>
<rscale>  0 0.12444819E+03</rscale>
<asrwt>0</asrwt>
<pdfrwt beam="1">  1        2 0.77654175E-02 0.12444819E+03</pdfrwt>
<pdfrwt beam="2">  1       -2 0.53519293E-01 0.12444819E+03</pdfrwt>
<totfact> 0.28206825E+03</totfact>
</mgrwt>
</event>
<event>
 4    1  0.1437859E-001  0.9122630E+02  0.7546771E-02  0.1299909E+00
          1   -1    0    0  501    0  0.00000000000E+00  0.00000000000E+00  0.13274271494E+04  0.13274271494E+04  0.00000000000E+00 0. -1.
         -1   -1    0    0    0  501 -0.00000000000E+00 -0.00000000000E+00 -0.81778029397E+01  0.81778029397E+01  0.00000000000E+00 0.  1.
         24    1    1    2    0    0 -0.42853576566E+02  0.43119596618E+01  0.33702860652E+03  0.34915686960E+03  0.80419002446E+02 0.  0.
        -24    1    1    2    0    0  0.42853576566E+02 -0.43119596618E+01  0.98222073992E+03  0.98644808272E+03  0.80419002446E+02 0.  0.
<mgrwt>
<rscale>  0 0.91226301E+02</rscale>
<asrwt>0</asrwt>
<pdfrwt beam="1">  1        1 0.20421939E+00 0.91226301E+02</pdfrwt>
<pdfrwt beam="2">  1       -1 0.12581246E-02 0.91226301E+02</pdfrwt>
<totfact> 0.11898977E+04</totfact>
</mgrwt>
</event>
<event>
 4    1  0.1437859E-001  0.8274015E+02  0.7546771E-02  0.1321450E+00
         -2   -1    0    0    0  501 -0.00000000000E+00  0.00000000000E+00  0.32981092699E+02  0.32981092699E+02  0.00000000000E+00 0.  1.
          2   -1    0    0  501    0  0.00000000000E+00 -0.00000000000E+00 -0.63008712691E+03  0.63008712691E+03  0.00000000000E+00 0. -1.
         24    1    1    2    0    0 -0.55251292665E+01  0.18659845034E+02 -0.57004020188E+03  0.57601368438E+03  0.80419002446E+02 0. -1.
        -24    1    1    2    0    0  0.55251292665E+01 -0.18659845034E+02 -0.27065832323E+02  0.87054535228E+02  0.80419002446E+02 0.  1.
<mgrwt>
<rscale>  0 0.82740152E+02</rscale>
<asrwt>0</asrwt>
<pdfrwt beam="1">  1        2 0.96936485E-01 0.82740152E+02</pdfrwt>
<pdfrwt beam="2">  1       -2 0.50740141E-02 0.82740152E+02</pdfrwt>
<totfact> 0.84471006E+03</totfact>
</mgrwt>
</event>
<event>
 4    1  0.1437859E-001  0.1495075E+03  0.7546771E-02  0.1201080E+00
         -2   -1    0    0    0  501 -0.00000000000E+00  0.00000000000E+00  0.15321325521E+02  0.15321325521E+02  0.00000000000E+00 0.  1.
          2   -1    0    0  501    0  0.00000000000E+00 -0.00000000000E+00 -0.19343636530E+04  0.19343636530E+04  0.00000000000E+00 0. -1.
         24    1    1    2    0    0  0.12526199476E+03  0.13953353872E+02 -0.14428226832E+04  0.14505480945E+04  0.80419002446E+02 0.  1.
        -24    1    1    2    0    0 -0.12526199476E+03 -0.13953353872E+02 -0.47621964430E+03  0.49913688401E+03  0.80419002446E+02 0. -1.
<mgrwt>
<rscale>  0 0.14950746E+03</rscale>
<asrwt>0</asrwt>
<pdfrwt beam="1">  1        2 0.29759448E+00 0.14950746E+03</pdfrwt>
<pdfrwt beam="2">  1       -2 0.23571264E-02 0.14950746E+03</pdfrwt>
<totfact> 0.48507891E+03</totfact>
</mgrwt>
</event>
<event>
 4    1  0.1437859E-001  0.1195215E+03  0.7546771E-02  0.1243889E+00
         -1   -1    0    0    0  501 -0.00000000000E+00  0.00000000000E+00  0.10860056918E+02  0.10860056918E+02  0.00000000000E+00 0.  1.
          1   -1    0    0  501    0  0.00000000000E+00 -0.00000000000E+00 -0.13885691892E+04  0.13885691892E+04  0.00000000000E+00 0. -1.
         24    1    1    2    0    0  0.51812386701E+01  0.88268477890E+02 -0.84946846836E+03  0.85783568596E+03  0.80419002446E+02 0. -1.
        -24    1    1    2    0    0 -0.51812386701E+01 -0.88268477890E+02 -0.52824066392E+03  0.54159356015E+03  0.80419002446E+02 0.  1.
<mgrwt>
<rscale>  0 0.11952150E+03</rscale>
<asrwt>0</asrwt>
<pdfrwt beam="1">  1        1 0.21362589E+00 0.11952151E+03</pdfrwt>
<pdfrwt beam="2">  1       -1 0.16707791E-02 0.11952151E+03</pdfrwt>
<totfact> 0.73546516E+03</totfact>
</mgrwt>
</event>
<event>
 4    1  0.1437859E-001  0.1009446E+03  0.7546771E-02  0.1278322E+00
         -1   -1    0    0    0  501 -0.00000000000E+00  0.00000000000E+00  0.15586477178E+02  0.15586477178E+02  0.00000000000E+00 0.  1.
          1   -1    0    0  501    0  0.00000000000E+00 -0.00000000000E+00 -0.19648066510E+04  0.19648066510E+04  0.00000000000E+00 0. -1.
         24    1    1    2    0    0 -0.56260421024E+02  0.23608664393E+02 -0.16575535849E+03  0.19407384891E+03  0.80419002446E+02 0.  1.
        -24    1    1    2    0    0  0.56260421024E+02 -0.23608664393E+02 -0.17834648153E+04  0.17863192792E+04  0.80419002446E+02 0. -1.
<mgrwt>
<rscale>  0 0.10094464E+03</rscale>
<asrwt>0</asrwt>
<pdfrwt beam="1">  1        1 0.30227764E+00 0.10094464E+03</pdfrwt>
<pdfrwt beam="2">  1       -1 0.23979220E-02 0.10094464E+03</pdfrwt>
<totfact> 0.18747529E+03</totfact>
</mgrwt>
</event>
<event>
 4    1  0.1437859E-001  0.1082674E+03  0.7546771E-02  0.1263813E+00
          2   -1    0    0  501    0  0.00000000000E+00  0.00000000000E+00  0.63008778384E+02  0.63008778384E+02  0.00000000000E+00 0. -1.
         -2   -1    0    0    0  501 -0.00000000000E+00 -0.00000000000E+00 -0.38002242753E+03  0.38002242753E+03  0.00000000000E+00 0.  1.
         24    1    1    2    0    0  0.32510886535E+02  0.64789248387E+02 -0.24112043083E+00  0.10826762463E+03  0.80419002446E+02 0. -1.
        -24    1    1    2    0    0 -0.32510886535E+02 -0.64789248387E+02 -0.31677252871E+03  0.33476358128E+03  0.80419002446E+02 0.  1.
<mgrwt>
<rscale>  0 0.10826736E+03</rscale>
<asrwt>0</asrwt>
<pdfrwt beam="1">  1        2 0.96936582E-02 0.10826736E+03</pdfrwt>
<pdfrwt beam="2">  1       -2 0.58464989E-01 0.10826736E+03</pdfrwt>
<totfact> 0.17779608E+03</totfact>
</mgrwt>
</event>
<event>
 4    1  0.1437859E-001  0.1044224E+03  0.7546771E-02  0.1271262E+00
         -3   -1    0    0    0  501 -0.00000000000E+00  0.00000000000E+00  0.37771406816E+02  0.37771406816E+02  0.00000000000E+00 0.  1.
          3   -1    0    0  501    0  0.00000000000E+00 -0.00000000000E+00 -0.28991337113E+03  0.28991337113E+03  0.00000000000E+00 0. -1.
         24    1    1    2    0    0  0.59579639505E+02  0.29783939975E+02 -0.11540537733E+03  0.15563557947E+03  0.80419002446E+02 0.  0.
        -24    1    1    2    0    0 -0.59579639505E+02 -0.29783939975E+02 -0.13673658698E+03  0.17204919848E+03  0.80419002446E+02 0. -1.
<mgrwt>
<rscale>  0 0.10442238E+03</rscale>
<asrwt>0</asrwt>
<pdfrwt beam="1">  1        3 0.44602060E-01 0.10442238E+03</pdfrwt>
<pdfrwt beam="2">  1       -3 0.58109853E-02 0.10442238E+03</pdfrwt>
<totfact> 0.19660280E+03</totfact>
</mgrwt>
</event>
<event>
 4    1  0.1437859E-001  0.1654512E+03  0.7546771E-02  0.1182676E+00
          1   -1    0    0  501    0  0.00000000000E+00  0.00000000000E+00  0.15229367322E+04  0.15229367322E+04  0.00000000000E+00 0. -1.
         -1   -1    0    0    0  501 -0.00000000000E+00 -0.00000000000E+00 -0.44812964287E+02  0.44812964287E+02  0.00000000000E+00 0.  1.
         24    1    1    2    0    0 -0.11646514661E+03  0.85689885268E+02  0.13243267449E+03  0.21192573237E+03  0.80419002446E+02 0.  1.
        -24    1    1    2    0    0  0.11646514661E+03 -0.85689885268E+02  0.13456910935E+04  0.13558239642E+04  0.80419002446E+02 0. -1.
<mgrwt>
<rscale>  0 0.16545121E+03</rscale>
<asrwt>0</asrwt>
<pdfrwt beam="1">  1        1 0.23429792E+00 0.16545121E+03</pdfrwt>
<pdfrwt beam="2">  1       -1 0.68943034E-02 0.16545121E+03</pdfrwt>
<totfact> 0.75658686E+02</totfact>
</mgrwt>
</event>
<event>
 4    1  0.1437859E-001  0.9941609E+02  0.7546771E-02  0.1281529E+00
          1   -1    0    0  501    0  0.00000000000E+00  0.00000000000E+00  0.70138671537E+02  0.70138671537E+02  0.00000000000E+00 0. -1.
         -1   -1    0    0    0  501 -0.00000000000E+00 -0.00000000000E+00 -0.14439405037E+03  0.14439405037E+03  0.00000000000E+00 0.  1.
         24    1    1    2    0    0 -0.58198034297E+02 -0.54159603298E+01 -0.53778943606E+02  0.11302979497E+03  0.80419002446E+02 0.  0.
        -24    1    1    2    0    0  0.58198034297E+02  0.54159603298E+01 -0.20476435232E+02  0.10150292694E+03  0.80419002446E+02 0. -1.
<mgrwt>
<rscale>  0 0.99416094E+02</rscale>
<asrwt>0</asrwt>
<pdfrwt beam="1">  1        1 0.10790565E-01 0.99416094E+02</pdfrwt>
<pdfrwt beam="2">  1       -1 0.22214469E-01 0.99416094E+02</pdfrwt>
<totfact> 0.89948976E+03</totfact>
</mgrwt>
</event>
<event>
 4    1  0.1437859E-001  0.9414065E+02  0.7546771E-02  0.1293123E+00
          1   -1    0    0  501    0  0.00000000000E+00  0.00000000000E+00  0.45038092509E+03  0.45038092509E+03  0.00000000000E+00 0. -1.
         -1   -1    0    0    0  501 -0.00000000000E+00 -0.00000000000E+00 -0.19678390491E+02  0.19678390491E+02  0.00000000000E+00 0.  1.
         24    1    1    2    0    0 -0.43551565908E+02  0.22327257723E+02  0.21396029431E+03  0.23375514717E+03  0.80419002446E+02 0.  1.
        -24    1    1    2    0    0  0.43551565908E+02 -0.22327257723E+02  0.21674224028E+03  0.23630416841E+03  0.80419002446E+02 0. -1.
<mgrwt>
<rscale>  0 0.94140646E+02</rscale>
<asrwt>0</asrwt>
<pdfrwt beam="1">  1        1 0.69289365E-01 0.94140646E+02</pdfrwt>
<pdfrwt beam="2">  1       -1 0.30274450E-02 0.94140646E+02</pdfrwt>
<totfact> 0.17571001E+04</totfact>
</mgrwt>
</event>
<event>
 4    1  0.1437859E-001  0.9604305E+02  0.7546771E-02  0.1288844E+00
         -2   -1    0    0    0  501 -0.00000000000E+00  0.00000000000E+00  0.35868697139E+02  0.35868697139E+02  0.00000000000E+00 0.  1.
          2   -1    0    0  501    0  0.00000000000E+00 -0.00000000000E+00 -0.49212644382E+03  0.49212644382E+03  0.00000000000E+00 0. -1.
         24    1    1    2    0    0 -0.52058086793E+02 -0.68561098743E+01 -0.41054258555E+03  0.42162718265E+03  0.80419002446E+02 0. -1.
        -24    1    1    2    0    0  0.52058086793E+02  0.68561098743E+01 -0.45715161127E+02  0.10636795831E+03  0.80419002446E+02 0.  1.
<mgrwt>
<rscale>  0 0.96043046E+02</rscale>
<asrwt>0</asrwt>
<pdfrwt beam="1">  1        2 0.75711756E-01 0.96043046E+02</pdfrwt>
<pdfrwt beam="2">  1       -2 0.55182614E-02 0.96043046E+02</pdfrwt>
<totfact> 0.98990921E+03</totfact>
</mgrwt>
</event>
<event>
 4    1  0.1437859E-001  0.8511945E+02  0.7546771E-02  0.1315120E+00
          1   -1    0    0  501    0  0.00000000000E+00  0.00000000000E+00  0.16661780946E+04  0.16661780946E+04  0.00000000000E+00 0. -1.
         -1   -1    0    0    0  501 -0.00000000000E+00 -0.00000000000E+00 -0.49642996542E+01  0.49642996542E+01  0.00000000000E+00 0.  1.
         24    1    1    2    0    0  0.51835414299E+01 -0.27408670144E+02  0.53630987582E+03  0.54302265437E+03  0.80419002446E+02 0. -1.
        -24    1    1    2    0    0 -0.51835414299E+01  0.27408670144E+02  0.11249039191E+04  0.11281197399E+04  0.80419002446E+02 0.  0.
<mgrwt>
<rscale>  0 0.85119447E+02</rscale>
<asrwt>0</asrwt>
<pdfrwt beam="1">  1        1 0.25633465E+00 0.85119447E+02</pdfrwt>
<pdfrwt beam="2">  1       -1 0.76373974E-03 0.85119447E+02</pdfrwt>
<totfact> 0.14539304E+04</totfact>
</mgrwt>
</event>
<event>
 4    1  0.1437859E-001  0.8252174E+02  0.7546771E-02  0.1322044E+00
          1   -1    0    0  501    0  0.00000000000E+00  0.00000000000E+00  0.69225895432E+03  0.69225895432E+03  0.00000000000E+00 0. -1.
         -1   -1    0    0    0  501 -0.00000000000E+00 -0.00000000000E+00 -0.20495512125E+02  0.20495512125E+02  0.00000000000E+00 0.  1.
         24    1    1    2    0    0  0.17102809764E+02 -0.70792275578E+01  0.78885747114E+02  0.11416128335E+03  0.80419002446E+02 0.  1.
        -24    1    1    2    0    0 -0.17102809764E+02  0.70792275578E+01  0.59287769508E+03  0.59859318309E+03  0.80419002446E+02 0. -1.
<mgrwt>
<rscale>  0 0.82521740E+02</rscale>
<asrwt>0</asrwt>
<pdfrwt beam="1">  1        1 0.10650136E+00 0.82521740E+02</pdfrwt>
<pdfrwt beam="2">  1       -1 0.31531563E-02 0.82521740E+02</pdfrwt>
<totfact> 0.92910754E+03</totfact>
</mgrwt>
</event>
<event>
 4    1  0.1437859E-001  0.1097551E+03  0.7546771E-02  0.1261024E+00
          2   -1    0    0  501    0  0.00000000000E+00  0.00000000000E+00  0.36755271975E+02  0.36755271975E+02  0.00000000000E+00 0. -1.
         -2   -1    0    0    0  501 -0.00000000000E+00 -0.00000000000E+00 -0.33259323550E+03  0.33259323550E+03  0.00000000000E+00 0.  1.
         24    1    1    2    0    0 -0.67080566507E+02  0.32850428826E+02 -0.17022746084E+03  0.20254272995E+03  0.80419002446E+02 0.  0.
        -24    1    1    2    0    0  0.67080566507E+02 -0.32850428826E+02 -0.12561050268E+03  0.16680577752E+03  0.80419002446E+02 0.  1.
<mgrwt>
<rscale>  0 0.10975505E+03</rscale>
<asrwt>0</asrwt>
<pdfrwt beam="1">  1        2 0.56546572E-02 0.10975507E+03</pdfrwt>
<pdfrwt beam="2">  1       -2 0.51168190E-01 0.10975507E+03</pdfrwt>
<totfact> 0.45748185E+03</totfact>
</mgrwt>
</event>
<event>
 4    1  0.1437859E-001  0.9024317E+02  0.7546771E-02  0.1302264E+00
          1   -1    0    0  501    0  0.00000000000E+00  0.00000000000E+00  0.14014329745E+04  0.14014329745E+04  0.00000000000E+00 0. -1.
         -1   -1    0    0    0  501 -0.00000000000E+00 -0.00000000000E+00 -0.73302142157E+01  0.73302142157E+01  0.00000000000E+00 0.  1.
         24    1    1    2    0    0  0.22244927415E+02 -0.34376990481E+02  0.37638853101E+03  0.38705575374E+03  0.80419002446E+02 0.  0.
        -24    1    1    2    0    0 -0.22244927415E+02  0.34376990481E+02  0.10177142293E+04  0.10217074350E+04  0.80419002446E+02 0.  0.
<mgrwt>
<rscale>  0 0.90243173E+02</rscale>
<asrwt>0</asrwt>
<pdfrwt beam="1">  1        1 0.21560486E+00 0.90243173E+02</pdfrwt>
<pdfrwt beam="2">  1       -1 0.11277264E-02 0.90243173E+02</pdfrwt>
<totfact> 0.12424449E+04</totfact>
</mgrwt>
</event>
<event>
 4    1  0.1437859E-001  0.9225673E+02  0.7546771E-02  0.1297477E+00
          2   -1    0    0  501    0  0.00000000000E+00  0.00000000000E+00  0.30030062098E+02  0.30030062098E+02  0.00000000000E+00 0. -1.
         -2   -1    0    0    0  501 -0.00000000000E+00 -0.00000000000E+00 -0.28743158386E+03  0.28743158386E+03  0.00000000000E+00 0.  1.
         24    1    1    2    0    0  0.20975389105E+02 -0.40051473356E+02 -0.10996283790E+03  0.14353790140E+03  0.80419002446E+02 0.  0.
        -24    1    1    2    0    0 -0.20975389105E+02  0.40051473356E+02 -0.14743868386E+03  0.17392374455E+03  0.80419002446E+02 0. -1.
<mgrwt>
<rscale>  0 0.92256726E+02</rscale>
<asrwt>0</asrwt>
<pdfrwt beam="1">  1        2 0.46200098E-02 0.92256726E+02</pdfrwt>
<pdfrwt beam="2">  1       -2 0.44220242E-01 0.92256726E+02</pdfrwt>
<totfact> 0.77663599E+03</totfact>
</mgrwt>
</event>
<event>
 4    1  0.1437859E-001  0.9546250E+02  0.7546771E-02  0.1290138E+00
          2   -1    0    0  501    0  0.00000000000E+00  0.00000000000E+00  0.24035340172E+03  0.24035340172E+03  0.00000000000E+00 0. -1.
         -2   -1    0    0    0  501 -0.00000000000E+00 -0.00000000000E+00 -0.67465131998E+02  0.67465131998E+02  0.00000000000E+00 0.  1.
         24    1    1    2    0    0 -0.30488216598E+02 -0.41428760474E+02  0.18830375091E+03  0.21111937881E+03  0.80419002446E+02 0. -1.
        -24    1    1    2    0    0  0.30488216598E+02  0.41428760474E+02 -0.15415481191E+02  0.96699154911E+02  0.80419002446E+02 0.  1.
<mgrwt>
<rscale>  0 0.95462503E+02</rscale>
<asrwt>0</asrwt>
<pdfrwt beam="1">  1        2 0.36977446E-01 0.95462503E+02</pdfrwt>
<pdfrwt beam="2">  1       -2 0.10379251E-01 0.95462503E+02</pdfrwt>
<totfact> 0.80326134E+03</totfact>
</mgrwt>
</event>
<event>
 4    1  0.1437859E-001  0.1115327E+03  0.7546771E-02  0.1257758E+00
          2   -1    0    0  501    0  0.00000000000E+00  0.00000000000E+00  0.25830706753E+02  0.25830706753E+02  0.00000000000E+00 0. -1.
         -2   -1    0    0    0  501 -0.00000000000E+00 -0.00000000000E+00 -0.54149329250E+03  0.54149329250E+03  0.00000000000E+00 0.  1.
         24    1    1    2    0    0  0.29476178715E+02  0.71438693418E+02 -0.35218668901E+03  0.36942524535E+03  0.80419002446E+02 0.  1.
        -24    1    1    2    0    0 -0.29476178715E+02 -0.71438693418E+02 -0.16347589673E+03  0.19789875390E+03  0.80419002446E+02 0. -1.
<mgrwt>
<rscale>  0 0.11153274E+03</rscale>
<asrwt>0</asrwt>
<pdfrwt beam="1">  1        2 0.39739554E-02 0.11153275E+03</pdfrwt>
<pdfrwt beam="2">  1       -2 0.83306649E-01 0.11153275E+03</pdfrwt>
<totfact> 0.26232354E+03</totfact>
</mgrwt>
</event>
<event>
 4    1  0.1437859E-001  0.1164005E+03  0.7546771E-02  0.1249156E+00
         -2   -1    0    0    0  501 -0.00000000000E+00  0.00000000000E+00  0.59426280145E+02  0.59426280145E+02  0.00000000000E+00 0.  1.
          2   -1    0    0  501    0  0.00000000000E+00 -0.00000000000E+00 -0.34025918860E+03  0.34025918860E+03  0.00000000000E+00 0. -1.
         24    1    1    2    0    0 -0.28678258543E+02  0.79116430926E+02 -0.25520496202E+03  0.28049713145E+03  0.80419002446E+02 0. -1.
        -24    1    1    2    0    0  0.28678258543E+02 -0.79116430926E+02 -0.25627946437E+02  0.11918833730E+03  0.80419002446E+02 0.  1.
<mgrwt>
<rscale>  0 0.11640046E+03</rscale>
<asrwt>0</asrwt>
<pdfrwt beam="1">  1        2 0.52347567E-01 0.11640046E+03</pdfrwt>
<pdfrwt beam="2">  1       -2 0.91425047E-02 0.11640046E+03</pdfrwt>
<totfact> 0.68902305E+03</totfact>
</mgrwt>
</event>
<event>
 4    1  0.1437859E-001  0.8678987E+02  0.7546771E-02  0.1310817E+00
          2   -1    0    0  501    0  0.00000000000E+00  0.00000000000E+00  0.37088837485E+03  0.37088837485E+03  0.00000000000E+00 0. -1.
         -2   -1    0    0    0  501 -0.00000000000E+00 -0.00000000000E+00 -0.47946697022E+02  0.47946697022E+02  0.00000000000E+00 0.  1.
         24    1    1    2    0    0  0.22802508941E+02 -0.23351911054E+02  0.32046540839E+03  0.33200987951E+03  0.80419002446E+02 0. -1.
        -24    1    1    2    0    0 -0.22802508941E+02  0.23351911054E+02  0.24762694377E+01  0.86825192361E+02  0.80419002446E+02 0.  1.
<mgrwt>
<rscale>  0 0.86789873E+02</rscale>
<asrwt>0</asrwt>
<pdfrwt beam="1">  1        2 0.57059748E-01 0.86789873E+02</pdfrwt>
<pdfrwt beam="2">  1       -2 0.73764152E-02 0.86789873E+02</pdfrwt>
<totfact> 0.85608179E+03</totfact>
</mgrwt>
</event>
<event>
 4    1  0.1437859E-001  0.9835384E+02  0.7546771E-02  0.1283796E+00
         -2   -1    0    0    0  501 -0.00000000000E+00  0.00000000000E+00  0.49384381518E+01  0.49384381518E+01  0.00000000000E+00 0.  1.
          2   -1    0    0  501    0  0.00000000000E+00 -0.00000000000E+00 -0.24636073224E+04  0.24636073224E+04  0.00000000000E+00 0. -1.
         24    1    1    2    0    0  0.53651006151E+02  0.18106111654E+02 -0.17880394973E+04  0.17907425056E+04  0.80419002446E+02 0.  0.
        -24    1    1    2    0    0 -0.53651006151E+02 -0.18106111654E+02 -0.67062938693E+03  0.67780325486E+03  0.80419002446E+02 0.  1.
<mgrwt>
<rscale>  0 0.98353839E+02</rscale>
<asrwt>0</asrwt>
<pdfrwt beam="1">  1        2 0.37901633E+00 0.98353839E+02</pdfrwt>
<pdfrwt beam="2">  1       -2 0.75976007E-03 0.98353839E+02</pdfrwt>
<totfact> 0.12998016E+04</totfact>
</mgrwt>
</event>
<event>
 4    1  0.1437859E-001  0.1030571E+03  0.7546771E-02  0.1273996E+00
          2   -1    0    0  501    0  0.00000000000E+00  0.00000000000E+00  0.16780175951E+04  0.16780175951E+04  0.00000000000E+00 0. -1.
         -2   -1    0    0    0  501 -0.00000000000E+00 -0.00000000000E+00 -0.17547040284E+02  0.17547040284E+02  0.00000000000E+00 0.  1.
         24    1    1    2    0    0  0.44279370855E+02 -0.46828220391E+02  0.15080861164E+04  0.15116032863E+04  0.80419002446E+02 0. -1.
        -24    1    1    2    0    0 -0.44279370855E+02  0.46828220391E+02  0.15238443842E+03  0.18396134903E+03  0.80419002446E+02 0.  1.
<mgrwt>
<rscale>  0 0.10305708E+03</rscale>
<asrwt>0</asrwt>
<pdfrwt beam="1">  1        2 0.25815643E+00 0.10305708E+03</pdfrwt>
<pdfrwt beam="2">  1       -2 0.26995460E-02 0.10305708E+03</pdfrwt>
<totfact> 0.53356140E+03</totfact>
</mgrwt>
</event>
<event>
 4    1  0.1437859E-001  0.1089182E+03  0.7546771E-02  0.1262586E+00
         -1   -1    0    0    0  501 -0.00000000000E+00  0.00000000000E+00  0.98344494687E+02  0.98344494687E+02  0.00000000000E+00 0.  1.
          1   -1    0    0  501    0  0.00000000000E+00 -0.00000000000E+00 -0.15667846879E+03  0.15667846879E+03  0.00000000000E+00 0. -1.
         24    1    1    2    0    0  0.13607206147E+02 -0.72185875705E+02  0.31996976770E+02  0.11352083151E+03  0.80419002446E+02 0.  1.
        -24    1    1    2    0    0 -0.13607206147E+02  0.72185875705E+02 -0.90330950869E+02  0.14150213196E+03  0.80419002446E+02 0. -1.
<mgrwt>
<rscale>  0 0.10891819E+03</rscale>
<asrwt>0</asrwt>
<pdfrwt beam="1">  1        1 0.24104380E-01 0.10891819E+03</pdfrwt>
<pdfrwt beam="2">  1       -1 0.15129922E-01 0.10891819E+03</pdfrwt>
<totfact> 0.59567561E+03</totfact>
</mgrwt>
</event>
<event>
 4    1  0.1437859E-001  0.8160351E+02  0.7546771E-02  0.1324562E+00
         -2   -1    0    0    0  501 -0.00000000000E+00  0.00000000000E+00  0.82460699441E+02  0.82460699441E+02  0.00000000000E+00 0.  1.
          2   -1    0    0  501    0  0.00000000000E+00 -0.00000000000E+00 -0.81951848662E+02  0.81951848662E+02  0.00000000000E+00 0. -1.
         24    1    1    2    0    0  0.95215939932E+01 -0.10062586735E+02 -0.96791212094E+01  0.82175530091E+02  0.80419002446E+02 0.  0.
        -24    1    1    2    0    0 -0.95215939932E+01  0.10062586735E+02  0.10187971989E+02  0.82237018012E+02  0.80419002446E+02 0.  0.
<mgrwt>
<rscale>  0 0.81603507E+02</rscale>
<asrwt>0</asrwt>
<pdfrwt beam="1">  1        2 0.12607977E-01 0.81603507E+02</pdfrwt>
<pdfrwt beam="2">  1       -2 0.12686261E-01 0.81603507E+02</pdfrwt>
<totfact> 0.19024062E+04</totfact>
</mgrwt>
</event>
<event>
 4    1  0.1437859E-001  0.9938387E+02  0.7546771E-02  0.1281597E+00
          2   -1    0    0  501    0  0.00000000000E+00  0.00000000000E+00  0.13188448276E+04  0.13188448276E+04  0.00000000000E+00 0. -1.
         -2   -1    0    0    0  501 -0.00000000000E+00 -0.00000000000E+00 -0.89061930820E+01  0.89061930820E+01  0.00000000000E+00 0.  1.
         24    1    1    2    0    0  0.44193549374E+02 -0.38168928385E+02  0.91976900483E+03  0.92512278920E+03  0.80419002446E+02 0. -1.
        -24    1    1    2    0    0 -0.44193549374E+02  0.38168928385E+02  0.39016962972E+03  0.40262823151E+03  0.80419002446E+02 0.  1.
<mgrwt>
<rscale>  0 0.99383866E+02</rscale>
<asrwt>0</asrwt>
<pdfrwt beam="1">  1        2 0.20289905E+00 0.99383866E+02</pdfrwt>
<pdfrwt beam="2">  1       -2 0.13701846E-02 0.99383866E+02</pdfrwt>
<totfact> 0.21645358E+04</totfact>
</mgrwt>
</event>
<event>
 4    1  0.1437859E-001  0.1160590E+03  0.7546771E-02  0.1249744E+00
          2   -1    0    0  501    0  0.00000000000E+00  0.00000000000E+00  0.15260636137E+03  0.15260636137E+03  0.00000000000E+00 0. -1.
         -2   -1    0    0    0  501 -0.00000000000E+00 -0.00000000000E+00 -0.90336047516E+02  0.90336047516E+02  0.00000000000E+00 0.  1.
         24    1    1    2    0    0 -0.66643020735E+02  0.50608189935E+02  0.49530541752E+02  0.12618625766E+03  0.80419002446E+02 0. -1.
        -24    1    1    2    0    0  0.66643020735E+02 -0.50608189935E+02  0.12739772098E+02  0.11675615122E+03  0.80419002446E+02 0.  0.
<mgrwt>
<rscale>  0 0.11605902E+03</rscale>
<asrwt>0</asrwt>
<pdfrwt beam="1">  1        2 0.23477902E-01 0.11605902E+03</pdfrwt>
<pdfrwt beam="2">  1       -2 0.13897853E-01 0.11605902E+03</pdfrwt>
<totfact> 0.83756760E+03</totfact>
</mgrwt>
</event>
<event>
 4    1  0.1437859E-001  0.1290127E+03  0.7546771E-02  0.1228928E+00
         -1   -1    0    0    0  501 -0.00000000000E+00  0.00000000000E+00  0.61353599195E+02  0.61353599195E+02  0.00000000000E+00 0.  1.
          1   -1    0    0  501    0  0.00000000000E+00 -0.00000000000E+00 -0.27408452702E+03  0.27408452702E+03  0.00000000000E+00 0. -1.
         24    1    1    2    0    0  0.92669477278E+01  0.10045491414E+03 -0.89413528184E+02  0.15696834417E+03  0.80419002446E+02 0.  1.
        -24    1    1    2    0    0 -0.92669477278E+01 -0.10045491414E+03 -0.12331739964E+03  0.17846978205E+03  0.80419002446E+02 0. -1.
<mgrwt>
<rscale>  0 0.12901272E+03</rscale>
<asrwt>0</asrwt>
<pdfrwt beam="1">  1        1 0.42166851E-01 0.12901272E+03</pdfrwt>
<pdfrwt beam="2">  1       -1 0.94390151E-02 0.12901272E+03</pdfrwt>
<totfact> 0.62299024E+03</totfact>
</mgrwt>
</event>
<event>
 4    1  0.1437859E-001  0.8241812E+02  0.7546771E-02  0.1322326E+00
         -2   -1    0    0    0  501 -0.00000000000E+00  0.00000000000E+00  0.29194920610E+02  0.29194920610E+02  0.00000000000E+00 0.  1.
          2   -1    0    0  501    0  0.00000000000E+00 -0.00000000000E+00 -0.72291119636E+03  0.72291119636E+03  0.00000000000E+00 0. -1.
         24    1    1    2    0    0  0.14575713462E+02 -0.10633860676E+02 -0.65653737942E+03  0.66169031800E+03  0.80419002446E+02 0. -1.
        -24    1    1    2    0    0 -0.14575713462E+02  0.10633860676E+02 -0.37178896334E+02  0.90415798967E+02  0.80419002446E+02 0.  0.
<mgrwt>
<rscale>  0 0.82418119E+02</rscale>
<asrwt>0</asrwt>
<pdfrwt beam="1">  1        2 0.11121710E+00 0.82418119E+02</pdfrwt>
<pdfrwt beam="2">  1       -2 0.44915263E-02 0.82418119E+02</pdfrwt>
<totfact> 0.86350326E+03</totfact>
</mgrwt>
</event>
<event>
 4    1  0.1437859E-001  0.8550719E+02  0.7546771E-02  0.1314111E+00
         -2   -1    0    0    0  501 -0.00000000000E+00  0.00000000000E+00  0.60567685621E+01  0.60567685621E+01  0.00000000000E+00 0.  1.
          2   -1    0    0  501    0  0.00000000000E+00 -0.00000000000E+00 -0.15809519874E+04  0.15809519874E+04  0.00000000000E+00 0. -1.
         24    1    1    2    0    0 -0.27277191514E+02 -0.10010941732E+02 -0.11732863315E+04  0.11763980175E+04  0.80419002446E+02 0. -1.
        -24    1    1    2    0    0  0.27277191514E+02  0.10010941732E+02 -0.40160888741E+03  0.41061073845E+03  0.80419002446E+02 0.  0.
<mgrwt>
<rscale>  0 0.85507193E+02</rscale>
<asrwt>0</asrwt>
<pdfrwt beam="1">  1        2 0.24322326E+00 0.85507193E+02</pdfrwt>
<pdfrwt beam="2">  1       -2 0.93181100E-03 0.85507193E+02</pdfrwt>
<totfact> 0.27089317E+04</totfact>
</mgrwt>
</event>
<event>
 4    1  0.1437859E-001  0.8047885E+02  0.7546771E-02  0.1327698E+00
         -3   -1    0    0    0  501 -0.00000000000E+00  0.00000000000E+00  0.24482968080E+02  0.24482968080E+02  0.00000000000E+00 0.  1.
          3   -1    0    0  501    0  0.00000000000E+00 -0.00000000000E+00 -0.29867064096E+03  0.29867064096E+03  0.00000000000E+00 0. -1.
         24    1    1    2    0    0  0.21643132620E+01 -0.22229523445E+01 -0.19171041287E+03  0.20791758975E+03  0.80419002446E+02 0.  0.
        -24    1    1    2    0    0 -0.21643132620E+01  0.22229523445E+01 -0.82477260006E+02  0.11523601929E+03  0.80419002446E+02 0.  1.
<mgrwt>
<rscale>  0 0.80478838E+02</rscale>
<asrwt>0</asrwt>
<pdfrwt beam="1">  1        3 0.45949325E-01 0.80478848E+02</pdfrwt>
<pdfrwt beam="2">  1       -3 0.37666108E-02 0.80478848E+02</pdfrwt>
<totfact> 0.34599967E+03</totfact>
</mgrwt>
</event>
<event>
 4    1  0.1437859E-001  0.9555205E+02  0.7546771E-02  0.1289938E+00
         -1   -1    0    0    0  501 -0.00000000000E+00  0.00000000000E+00  0.86671908987E+01  0.86671908987E+01  0.00000000000E+00 0.  1.
          1   -1    0    0  501    0  0.00000000000E+00 -0.00000000000E+00 -0.11712729821E+04  0.11712729821E+04  0.00000000000E+00 0. -1.
         24    1    1    2    0    0 -0.45171342001E+02 -0.24950505704E+02 -0.39416106252E+03  0.40557753517E+03  0.80419002446E+02 0.  1.
        -24    1    1    2    0    0  0.45171342001E+02  0.24950505704E+02 -0.76844472869E+03  0.77436263784E+03  0.80419002446E+02 0. -1.
<mgrwt>
<rscale>  0 0.95552048E+02</rscale>
<asrwt>0</asrwt>
<pdfrwt beam="1">  1        1 0.18019597E+00 0.95552048E+02</pdfrwt>
<pdfrwt beam="2">  1       -1 0.13334130E-02 0.95552048E+02</pdfrwt>
<totfact> 0.13968852E+04</totfact>
</mgrwt>
</event>
<event>
 4    1  0.1437859E-001  0.1182665E+03  0.7546771E-02  0.1245985E+00
         -2   -1    0    0    0  501 -0.00000000000E+00  0.00000000000E+00  0.40036828484E+01  0.40036828484E+01  0.00000000000E+00 0.  1.
          2   -1    0    0  501    0  0.00000000000E+00 -0.00000000000E+00 -0.34956110326E+04  0.34956110326E+04  0.00000000000E+00 0. -1.
         24    1    1    2    0    0  0.82041205465E+02 -0.28088857927E+02 -0.17885665470E+04  0.17924723854E+04  0.80419002446E+02 0. -1.
        -24    1    1    2    0    0 -0.82041205465E+02  0.28088857927E+02 -0.17030408027E+04  0.17071423300E+04  0.80419002446E+02 0.  1.
<mgrwt>
<rscale>  0 0.11826648E+03</rscale>
<asrwt>0</asrwt>
<pdfrwt beam="1">  1        2 0.53778725E+00 0.11826648E+03</pdfrwt>
<pdfrwt beam="2">  1       -2 0.61595014E-03 0.11826648E+03</pdfrwt>
<totfact> 0.44659727E+03</totfact>
</mgrwt>
</event>
<event>
 4    1  0.1437859E-001  0.1088281E+03  0.7546771E-02  0.1262756E+00
         -2   -1    0    0    0  501 -0.00000000000E+00  0.00000000000E+00  0.50389258679E+03  0.50389258679E+03  0.00000000000E+00 0.  1.
          2   -1    0    0  501    0  0.00000000000E+00 -0.00000000000E+00 -0.26853075247E+02  0.26853075247E+02  0.00000000000E+00 0. -1.
         24    1    1    2    0    0  0.15810821934E+02  0.71598565322E+02  0.14480369710E+03  0.18113989979E+03  0.80419002446E+02 0. -1.
        -24    1    1    2    0    0 -0.15810821934E+02 -0.71598565322E+02  0.33223581444E+03  0.34960576225E+03  0.80419002446E+02 0.  0.
<mgrwt>
<rscale>  0 0.10882809E+03</rscale>
<asrwt>0</asrwt>
<pdfrwt beam="1">  1        2 0.41312427E-02 0.10882809E+03</pdfrwt>
<pdfrwt beam="2">  1       -2 0.77521930E-01 0.10882809E+03</pdfrwt>
<totfact> 0.29110795E+03</totfact>
</mgrwt>
</event>
<event>
 4    1  0.1513204E-001  0.1096745E+03  0.7546771E-02  0.1261174E+00
         -3   -1    0    0    0  501 -0.00000000000E+00  0.00000000000E+00  0.92367515440E+03  0.92367515440E+03  0.00000000000E+00 0.  1.
          3   -1    0    0  501    0  0.00000000000E+00 -0.00000000000E+00 -0.17316182544E+03  0.17316182544E+03  0.00000000000E+00 0. -1.
         24    1    1    2    0    0  0.34843787961E+02  0.65933235381E+02  0.90265056200E+03  0.90928902672E+03  0.80419002446E+02 0.  1.
        -24    1    1    2    0    0 -0.34843787961E+02 -0.65933235381E+02 -0.15213723303E+03  0.18754795311E+03  0.80419002446E+02 0. -1.
<mgrwt>
<rscale>  0 0.10967450E+03</rscale>
<asrwt>0</asrwt>
<pdfrwt beam="1">  1        3 0.26640282E-01 0.10967450E+03</pdfrwt>
<pdfrwt beam="2">  1       -3 0.14210387E+00 0.10967450E+03</pdfrwt>
<totfact> 0.12392665E+01</totfact>
</mgrwt>
</event>
<event>
 4    1  0.1437859E-001  0.8089812E+02  0.7546771E-02  0.1326522E+00
         -2   -1    0    0    0  501 -0.00000000000E+00  0.00000000000E+00  0.14035402768E+03  0.14035402768E+03  0.00000000000E+00 0.  1.
          2   -1    0    0  501    0  0.00000000000E+00 -0.00000000000E+00 -0.67589951376E+02  0.67589951376E+02  0.00000000000E+00 0. -1.
         24    1    1    2    0    0  0.37363536010E+01  0.79579954676E+01 -0.21518867503E+02  0.83711215754E+02  0.80419002446E+02 0. -1.
        -24    1    1    2    0    0 -0.37363536010E+01 -0.79579954676E+01  0.94282943803E+02  0.12423276330E+03  0.80419002446E+02 0.  0.
<mgrwt>
<rscale>  0 0.80898121E+02</rscale>
<asrwt>0</asrwt>
<pdfrwt beam="1">  1        2 0.10398454E-01 0.80898121E+02</pdfrwt>
<pdfrwt beam="2">  1       -2 0.21592927E-01 0.80898121E+02</pdfrwt>
<totfact> 0.10027249E+04</totfact>
</mgrwt>
</event>
<event>
 4    1  0.1437859E-001  0.1611858E+03  0.7546771E-02  0.1187364E+00
         -1   -1    0    0    0  501 -0.00000000000E+00  0.00000000000E+00  0.66772837009E+02  0.66772837009E+02  0.00000000000E+00 0.  1.
          1   -1    0    0  501    0  0.00000000000E+00 -0.00000000000E+00 -0.93767822952E+03  0.93767822952E+03  0.00000000000E+00 0. -1.
         24    1    1    2    0    0  0.49476453813E+02  0.13063587332E+03 -0.51308931160E+02  0.16915517507E+03  0.80419002446E+02 0.  1.
        -24    1    1    2    0    0 -0.49476453813E+02 -0.13063587332E+03 -0.81959646135E+03  0.83529589146E+03  0.80419002446E+02 0. -1.
<mgrwt>
<rscale>  0 0.16118581E+03</rscale>
<asrwt>0</asrwt>
<pdfrwt beam="1">  1        1 0.14425820E+00 0.16118581E+03</pdfrwt>
<pdfrwt beam="2">  1       -1 0.10272743E-01 0.16118581E+03</pdfrwt>
<totfact> 0.10467734E+03</totfact>
</mgrwt>
</event>
<event>
 4    1  0.1437859E-001  0.8318379E+02  0.7546771E-02  0.1320252E+00
         -1   -1    0    0    0  501 -0.00000000000E+00  0.00000000000E+00  0.74754298091E+01  0.74754298091E+01  0.00000000000E+00 0.  1.
          1   -1    0    0  501    0  0.00000000000E+00 -0.00000000000E+00 -0.15268351408E+04  0.15268351408E+04  0.00000000000E+00 0. -1.
         24    1    1    2    0    0  0.23661789747E+01 -0.21135941719E+02 -0.27829145852E+03  0.29045770548E+03  0.80419002446E+02 0.  1.
        -24    1    1    2    0    0 -0.23661789747E+01  0.21135941719E+02 -0.12410682525E+04  0.12438528652E+04  0.80419002446E+02 0. -1.
<mgrwt>
<rscale>  0 0.83183789E+02</rscale>
<asrwt>0</asrwt>
<pdfrwt beam="1">  1        1 0.23489758E+00 0.83183789E+02</pdfrwt>
<pdfrwt beam="2">  1       -1 0.11500668E-02 0.83183789E+02</pdfrwt>
<totfact> 0.99953760E+03</totfact>
</mgrwt>
</event>
<event>
 4    1  0.1437859E-001  0.9899358E+02  0.7546771E-02  0.1282427E+00
          1   -1    0    0  501    0  0.00000000000E+00  0.00000000000E+00  0.77275107624E+02  0.77275107624E+02  0.00000000000E+00 0. -1.
         -1   -1    0    0    0  501 -0.00000000000E+00 -0.00000000000E+00 -0.46652280944E+03  0.46652280944E+03  0.00000000000E+00 0.  1.
         24    1    1    2    0    0 -0.14670948459E+02  0.55832572330E+02 -0.42664264039E+03  0.43797679324E+03  0.80419002446E+02 0.  1.
        -24    1    1    2    0    0  0.14670948459E+02 -0.55832572330E+02  0.37394938577E+02  0.10582112382E+03  0.80419002446E+02 0. -1.
<mgrwt>
<rscale>  0 0.98993580E+02</rscale>
<asrwt>0</asrwt>
<pdfrwt beam="1">  1        1 0.11888478E-01 0.98993580E+02</pdfrwt>
<pdfrwt beam="2">  1       -1 0.71772739E-01 0.98993580E+02</pdfrwt>
<totfact> 0.10121220E+03</totfact>
</mgrwt>
</event>
<event>
 4    1  0.1437859E-001  0.8510619E+02  0.7546771E-02  0.1315155E+00
         -2   -1    0    0    0  501 -0.00000000000E+00  0.00000000000E+00  0.33741555900E+02  0.33741555900E+02  0.00000000000E+00 0.  1.
          2   -1    0    0  501    0  0.00000000000E+00 -0.00000000000E+00 -0.26460013406E+03  0.26460013406E+03  0.00000000000E+00 0. -1.
         24    1    1    2    0    0 -0.26832454352E+02  0.74744236936E+01 -0.18023312781E+03  0.19931644170E+03  0.80419002446E+02 0. -1.
        -24    1    1    2    0    0  0.26832454352E+02 -0.74744236936E+01 -0.50625450350E+02  0.99025248263E+02  0.80419002446E+02 0.  1.
<mgrwt>
<rscale>  0 0.85106190E+02</rscale>
<asrwt>0</asrwt>
<pdfrwt beam="1">  1        2 0.40707713E-01 0.85106190E+02</pdfrwt>
<pdfrwt beam="2">  1       -2 0.51910086E-02 0.85106190E+02</pdfrwt>
<totfact> 0.20598598E+04</totfact>
</mgrwt>
</event>
<event>
 4    1  0.1437859E-001  0.8208371E+02  0.7546771E-02  0.1323240E+00
          3   -1    0    0  501    0  0.00000000000E+00  0.00000000000E+00  0.29629431631E+02  0.29629431631E+02  0.00000000000E+00 0. -1.
         -3   -1    0    0    0  501 -0.00000000000E+00 -0.00000000000E+00 -0.28752696395E+03  0.28752696395E+03  0.00000000000E+00 0.  1.
         24    1    1    2    0    0  0.15111847129E+02  0.64923828743E+01 -0.20146555470E+03  0.21754563807E+03  0.80419002446E+02 0.  1.
        -24    1    1    2    0    0 -0.15111847129E+02 -0.64923828743E+01 -0.56431977618E+02  0.99610757508E+02  0.80419002446E+02 0.  0.
<mgrwt>
<rscale>  0 0.82083707E+02</rscale>
<asrwt>0</asrwt>
<pdfrwt beam="1">  1        3 0.45583742E-02 0.82083707E+02</pdfrwt>
<pdfrwt beam="2">  1       -3 0.44234917E-01 0.82083707E+02</pdfrwt>
<totfact> 0.27829880E+03</totfact>
</mgrwt>
</event>
<event>
 4    1  0.1437859E-001  0.9843571E+02  0.7546771E-02  0.1283620E+00
          2   -1    0    0  501    0  0.00000000000E+00  0.00000000000E+00  0.13214738580E+04  0.13214738580E+04  0.00000000000E+00 0. -1.
         -2   -1    0    0    0  501 -0.00000000000E+00 -0.00000000000E+00 -0.76165670608E+01  0.76165670608E+01  0.00000000000E+00 0.  1.
         24    1    1    2    0    0 -0.12288922655E+02 -0.55419811086E+02  0.78528684053E+03  0.79143225291E+03  0.80419002446E+02 0.  1.
        -24    1    1    2    0    0  0.12288922655E+02  0.55419811086E+02  0.52857045038E+03  0.53765817212E+03  0.80419002446E+02 0. -1.
<mgrwt>
<rscale>  0 0.98435710E+02</rscale>
<asrwt>0</asrwt>
<pdfrwt beam="1">  1        2 0.20330349E+00 0.98435710E+02</pdfrwt>
<pdfrwt beam="2">  1       -2 0.11717806E-02 0.98435710E+02</pdfrwt>
<totfact> 0.26942817E+04</totfact>
</mgrwt>
</event>
<event>
 4    1  0.1437859E-001  0.1658920E+03  0.7546771E-02  0.1182201E+00
          2   -1    0    0  501    0  0.00000000000E+00  0.00000000000E+00  0.11826488013E+04  0.11826488013E+04  0.00000000000E+00 0. -1.
         -2   -1    0    0    0  501 -0.00000000000E+00 -0.00000000000E+00 -0.23971182375E+02  0.23971182375E+02  0.00000000000E+00 0.  1.
         24    1    1    2    0    0  0.13221785415E+03  0.59761109521E+02  0.68252693929E+03  0.70239817054E+03  0.80419002446E+02 0.  0.
        -24    1    1    2    0    0 -0.13221785415E+03 -0.59761109521E+02  0.47615067963E+03  0.50422181313E+03  0.80419002446E+02 0.  0.
<mgrwt>
<rscale>  0 0.16589203E+03</rscale>
<asrwt>0</asrwt>
<pdfrwt beam="1">  1        2 0.18194592E+00 0.16589203E+03</pdfrwt>
<pdfrwt beam="2">  1       -2 0.36878751E-02 0.16589203E+03</pdfrwt>
<totfact> 0.62482388E+03</totfact>
</mgrwt>
</event>
<event>
 4    1  0.1437859E-001  0.1319155E+03  0.7546771E-02  0.1224641E+00
         -1   -1    0    0    0  501 -0.00000000000E+00  0.00000000000E+00  0.58433872941E+02  0.58433872941E+02  0.00000000000E+00 0.  1.
          1   -1    0    0  501    0  0.00000000000E+00 -0.00000000000E+00 -0.64850318236E+03  0.64850318236E+03  0.00000000000E+00 0. -1.
         24    1    1    2    0    0  0.82128909386E+02 -0.64724983574E+02 -0.35100351608E+02  0.13650542807E+03  0.80419002446E+02 0.  1.
        -24    1    1    2    0    0 -0.82128909386E+02  0.64724983574E+02 -0.55496895781E+03  0.57043162723E+03  0.80419002446E+02 0. -1.
<mgrwt>
<rscale>  0 0.13191549E+03</rscale>
<asrwt>0</asrwt>
<pdfrwt beam="1">  1        1 0.99769719E-01 0.13191549E+03</pdfrwt>
<pdfrwt beam="2">  1       -1 0.89898268E-02 0.13191549E+03</pdfrwt>
<totfact> 0.22257620E+03</totfact>
</mgrwt>
</event>
<event>
 4    1  0.1437859E-001  0.1086948E+03  0.7546771E-02  0.1263006E+00
         -2   -1    0    0    0  501 -0.00000000000E+00  0.00000000000E+00  0.16243673301E+02  0.16243673301E+02  0.00000000000E+00 0.  1.
          2   -1    0    0  501    0  0.00000000000E+00 -0.00000000000E+00 -0.77158409094E+03  0.77158409094E+03  0.00000000000E+00 0. -1.
         24    1    1    2    0    0 -0.13972904592E+02 -0.71778205000E+02 -0.47200434931E+03  0.48435800241E+03  0.80419002446E+02 0. -1.
        -24    1    1    2    0    0  0.13972904592E+02  0.71778205000E+02 -0.28333606833E+03  0.30346976183E+03  0.80419002446E+02 0.  1.
<mgrwt>
<rscale>  0 0.10869484E+03</rscale>
<asrwt>0</asrwt>
<pdfrwt beam="1">  1        2 0.11870525E+00 0.10869484E+03</pdfrwt>
<pdfrwt beam="2">  1       -2 0.24990266E-02 0.10869484E+03</pdfrwt>
<totfact> 0.19240037E+04</totfact>
</mgrwt>
</event>
<event>
 4    1  0.1437859E-001  0.9644638E+02  0.7546771E-02  0.1287951E+00
         -1   -1    0    0    0  501 -0.00000000000E+00  0.00000000000E+00  0.14912437537E+03  0.14912437537E+03  0.00000000000E+00 0.  1.
          1   -1    0    0  501    0  0.00000000000E+00 -0.00000000000E+00 -0.21358068199E+03  0.21358068199E+03  0.00000000000E+00 0. -1.
         24    1    1    2    0    0 -0.30079434275E+02  0.43930801127E+02  0.12036114639E+03  0.15423588807E+03  0.80419002446E+02 0.  1.
        -24    1    1    2    0    0  0.30079434275E+02 -0.43930801127E+02 -0.18481745301E+03  0.20846916929E+03  0.80419002446E+02 0. -1.
<mgrwt>
<rscale>  0 0.96446377E+02</rscale>
<asrwt>0</asrwt>
<pdfrwt beam="1">  1        1 0.32858566E-01 0.96446377E+02</pdfrwt>
<pdfrwt beam="2">  1       -1 0.22942212E-01 0.96446377E+02</pdfrwt>
<totfact> 0.20846994E+03</totfact>
</mgrwt>
</event>
<event>
 4    1  0.1437859E-001  0.9062642E+02  0.7546771E-02  0.1301342E+00
          2   -1    0    0  501    0  0.00000000000E+00  0.00000000000E+00  0.26037406678E+04  0.26037406678E+04  0.00000000000E+00 0. -1.
         -2   -1    0    0    0  501 -0.00000000000E+00 -0.00000000000E+00 -0.13263274341E+02  0.13263274341E+02  0.00000000000E+00 0.  1.
         24    1    1    2    0    0  0.41114158641E+02 -0.74537361019E+01  0.24375938831E+04  0.24392779848E+04  0.80419002446E+02 0. -1.
        -24    1    1    2    0    0 -0.41114158641E+02  0.74537361019E+01  0.15288351040E+03  0.17772595738E+03  0.80419002446E+02 0.  1.
<mgrwt>
<rscale>  0 0.90626421E+02</rscale>
<asrwt>0</asrwt>
<pdfrwt beam="1">  1        2 0.40057508E+00 0.90626421E+02</pdfrwt>
<pdfrwt beam="2">  1       -2 0.20405058E-02 0.90626421E+02</pdfrwt>
<totfact> 0.26832287E+03</totfact>
</mgrwt>
</event>
<event>
 4    1  0.1437859E-001  0.8486057E+02  0.7546771E-02  0.1315798E+00
          2   -1    0    0  501    0  0.00000000000E+00  0.00000000000E+00  0.48709642759E+02  0.48709642759E+02  0.00000000000E+00 0. -1.
         -2   -1    0    0    0  501 -0.00000000000E+00 -0.00000000000E+00 -0.36291153136E+03  0.36291153136E+03  0.00000000000E+00 0.  1.
         24    1    1    2    0    0  0.21217102970E+02 -0.16850364145E+02  0.13362266529E+01  0.84871088636E+02  0.80419002446E+02 0. -1.
        -24    1    1    2    0    0 -0.21217102970E+02  0.16850364145E+02 -0.31553811526E+03  0.32675008549E+03  0.80419002446E+02 0.  1.
<mgrwt>
<rscale>  0 0.84860569E+02</rscale>
<asrwt>0</asrwt>
<pdfrwt beam="1">  1        2 0.74937911E-02 0.84860569E+02</pdfrwt>
<pdfrwt beam="2">  1       -2 0.55832544E-01 0.84860569E+02</pdfrwt>
<totfact> 0.26389434E+03</totfact>
</mgrwt>
</event>
<event>
 4    1  0.1437859E-001  0.9118226E+02  0.7546771E-02  0.1300014E+00
          3   -1    0    0  501    0  0.00000000000E+00  0.00000000000E+00  0.11457380148E+03  0.11457380148E+03  0.00000000000E+00 0. -1.
         -3   -1    0    0    0  501 -0.00000000000E+00 -0.00000000000E+00 -0.72605817544E+02  0.72605817544E+02  0.00000000000E+00 0.  1.
         24    1    1    2    0    0  0.39118816481E+02 -0.17796124471E+02  0.23166702455E+02  0.94079200178E+02  0.80419002446E+02 0.  0.
        -24    1    1    2    0    0 -0.39118816481E+02  0.17796124471E+02  0.18801281477E+02  0.93100418842E+02  0.80419002446E+02 0.  0.
<mgrwt>
<rscale>  0 0.91182245E+02</rscale>
<asrwt>0</asrwt>
<pdfrwt beam="1">  1        3 0.17626739E-01 0.91182257E+02</pdfrwt>
<pdfrwt beam="2">  1       -3 0.11170126E-01 0.91182257E+02</pdfrwt>
<totfact> 0.36168378E+03</totfact>
</mgrwt>
</event>
<event>
 4    1  0.1437859E-001  0.8128396E+02  0.7546771E-02  0.1325447E+00
          2   -1    0    0  501    0  0.00000000000E+00  0.00000000000E+00  0.28249580562E+03  0.28249580562E+03  0.00000000000E+00 0. -1.
         -2   -1    0    0    0  501 -0.00000000000E+00 -0.00000000000E+00 -0.26713838990E+02  0.26713838990E+02  0.00000000000E+00 0.  1.
         24    1    1    2    0    0 -0.11786342894E+02  0.97360579859E+00  0.18244030469E+03  0.19972868226E+03  0.80419002446E+02 0.  0.
        -24    1    1    2    0    0  0.11786342894E+02 -0.97360579859E+00  0.73341661940E+02  0.10948096235E+03  0.80419002446E+02 0.  1.
<mgrwt>
<rscale>  0 0.81283957E+02</rscale>
<asrwt>0</asrwt>
<pdfrwt beam="1">  1        2 0.43460891E-01 0.81283957E+02</pdfrwt>
<pdfrwt beam="2">  1       -2 0.41098216E-02 0.81283957E+02</pdfrwt>
<totfact> 0.27018941E+04</totfact>
</mgrwt>
</event>
<event>
 4    1  0.1437859E-001  0.1082201E+03  0.7546771E-02  0.1263902E+00
         -1   -1    0    0    0  501 -0.00000000000E+00  0.00000000000E+00  0.49188933873E+02  0.49188933873E+02  0.00000000000E+00 0.  1.
          1   -1    0    0  501    0  0.00000000000E+00 -0.00000000000E+00 -0.24493153883E+03  0.24493153883E+03  0.00000000000E+00 0. -1.
         24    1    1    2    0    0 -0.34018652497E+02  0.63930497073E+02 -0.73300417363E+02  0.13070785865E+03  0.80419002446E+02 0.  1.
        -24    1    1    2    0    0  0.34018652497E+02 -0.63930497073E+02 -0.12244218760E+03  0.16341261405E+03  0.80419002446E+02 0. -1.
<mgrwt>
<rscale>  0 0.10822011E+03</rscale>
<asrwt>0</asrwt>
<pdfrwt beam="1">  1        1 0.37681775E-01 0.10822011E+03</pdfrwt>
<pdfrwt beam="2">  1       -1 0.75675283E-02 0.10822011E+03</pdfrwt>
<totfact> 0.98536260E+03</totfact>
</mgrwt>
</event>
<event>
 4    1  0.1437859E-001  0.1507498E+03  0.7546771E-02  0.1199555E+00
          1   -1    0    0  501    0  0.00000000000E+00  0.00000000000E+00  0.28860876405E+04  0.28860876405E+04  0.00000000000E+00 0. -1.
         -1   -1    0    0    0  501 -0.00000000000E+00 -0.00000000000E+00 -0.11503289915E+02  0.11503289915E+02  0.00000000000E+00 0.  1.
         24    1    1    2    0    0 -0.36676312923E+02 -0.12211928804E+03  0.62352930151E+03  0.64149378659E+03  0.80419002446E+02 0.  1.
        -24    1    1    2    0    0  0.36676312923E+02  0.12211928804E+03  0.22510550491E+04  0.22560971439E+04  0.80419002446E+02 0. -1.
<mgrwt>
<rscale>  0 0.15074975E+03</rscale>
<asrwt>0</asrwt>
<pdfrwt beam="1">  1        1 0.44401291E+00 0.15074975E+03</pdfrwt>
<pdfrwt beam="2">  1       -1 0.17697392E-02 0.15074975E+03</pdfrwt>
<totfact> 0.72767713E+02</totfact>
</mgrwt>
</event>
<event>
 4    1  0.1437859E-001  0.8232549E+02  0.7546771E-02  0.1322579E+00
          1   -1    0    0  501    0  0.00000000000E+00  0.00000000000E+00  0.18851137038E+03  0.18851137038E+03  0.00000000000E+00 0. -1.
         -1   -1    0    0    0  501 -0.00000000000E+00 -0.00000000000E+00 -0.51478276640E+02  0.51478276640E+02  0.00000000000E+00 0.  1.
         24    1    1    2    0    0  0.26550552212E+01 -0.17413230923E+02  0.26181437928E+01  0.82367108488E+02  0.80419002446E+02 0.  1.
        -24    1    1    2    0    0 -0.26550552212E+01  0.17413230923E+02  0.13441494994E+03  0.15762253853E+03  0.80419002446E+02 0. -1.
<mgrwt>
<rscale>  0 0.82325487E+02</rscale>
<asrwt>0</asrwt>
<pdfrwt beam="1">  1        1 0.29001749E-01 0.82325487E+02</pdfrwt>
<pdfrwt beam="2">  1       -1 0.79197349E-02 0.82325487E+02</pdfrwt>
<totfact> 0.12378534E+04</totfact>
</mgrwt>
</event>
<event>
 4    1  0.1437859E-001  0.9746815E+02  0.7546771E-02  0.1285712E+00
         -1   -1    0    0    0  501 -0.00000000000E+00  0.00000000000E+00  0.67439328338E+02  0.67439328338E+02  0.00000000000E+00 0.  1.
          1   -1    0    0  501    0  0.00000000000E+00 -0.00000000000E+00 -0.14194985676E+03  0.14194985676E+03  0.00000000000E+00 0. -1.
         24    1    1    2    0    0  0.18041860685E+02  0.52031873425E+02 -0.28115186883E+02  0.10144212279E+03  0.80419002446E+02 0.  1.
        -24    1    1    2    0    0 -0.18041860685E+02 -0.52031873425E+02 -0.46395341539E+02  0.10794706230E+03  0.80419002446E+02 0. -1.
<mgrwt>
<rscale>  0 0.97468151E+02</rscale>
<asrwt>0</asrwt>
<pdfrwt beam="1">  1        1 0.21838440E-01 0.97468151E+02</pdfrwt>
<pdfrwt beam="2">  1       -1 0.10375281E-01 0.97468151E+02</pdfrwt>
<totfact> 0.11920738E+04</totfact>
</mgrwt>
</event>
<event>
 4    1  0.1437859E-001  0.8399258E+02  0.7546771E-02  0.1318088E+00
          2   -1    0    0  501    0  0.00000000000E+00  0.00000000000E+00  0.17165823537E+04  0.17165823537E+04  0.00000000000E+00 0. -1.
         -2   -1    0    0    0  501 -0.00000000000E+00 -0.00000000000E+00 -0.36688925888E+02  0.36688925888E+02  0.00000000000E+00 0.  1.
         24    1    1    2    0    0 -0.21447874808E+02  0.11292771737E+02  0.16660256650E+04  0.16681415619E+04  0.80419002446E+02 0. -1.
        -24    1    1    2    0    0  0.21447874808E+02 -0.11292771737E+02  0.13867762724E+02  0.85129717635E+02  0.80419002446E+02 0.  1.
<mgrwt>
<rscale>  0 0.83992583E+02</rscale>
<asrwt>0</asrwt>
<pdfrwt beam="1">  1        2 0.26408953E+00 0.83992583E+02</pdfrwt>
<pdfrwt beam="2">  1       -2 0.56444515E-02 0.83992583E+02</pdfrwt>
<totfact> 0.17196360E+03</totfact>
</mgrwt>
</event>
<event>
 4    1  0.1437859E-001  0.8406267E+02  0.7546771E-02  0.1317902E+00
         -2   -1    0    0    0  501 -0.00000000000E+00  0.00000000000E+00  0.79332998104E+02  0.79332998104E+02  0.00000000000E+00 0.  1.
          2   -1    0    0  501    0  0.00000000000E+00 -0.00000000000E+00 -0.12205666890E+03  0.12205666890E+03  0.00000000000E+00 0. -1.
         24    1    1    2    0    0 -0.15164343525E+02 -0.19218734793E+02 -0.73705871599E+02  0.11179932265E+03  0.80419002446E+02 0. -1.
        -24    1    1    2    0    0  0.15164343525E+02  0.19218734793E+02  0.30982200802E+02  0.89590344360E+02  0.80419002446E+02 0.  1.
<mgrwt>
<rscale>  0 0.84062673E+02</rscale>
<asrwt>0</asrwt>
<pdfrwt beam="1">  1        2 0.18777949E-01 0.84062673E+02</pdfrwt>
<pdfrwt beam="2">  1       -2 0.12205077E-01 0.84062673E+02</pdfrwt>
<totfact> 0.12835727E+04</totfact>
</mgrwt>
</event>
<event>
 4    1  0.1437859E-001  0.1019954E+03  0.7546771E-02  0.1276155E+00
         -2   -1    0    0    0  501 -0.00000000000E+00  0.00000000000E+00  0.14047454468E+02  0.14047454468E+02  0.00000000000E+00 0.  1.
          2   -1    0    0  501    0  0.00000000000E+00 -0.00000000000E+00 -0.80476825996E+03  0.80476825996E+03  0.00000000000E+00 0. -1.
         24    1    1    2    0    0 -0.38355987367E+02  0.49645380130E+02 -0.51099752572E+03  0.52107728101E+03  0.80419002446E+02 0. -1.
        -24    1    1    2    0    0  0.38355987367E+02 -0.49645380130E+02 -0.27972327978E+03  0.29773843343E+03  0.80419002446E+02 0.  1.
<mgrwt>
<rscale>  0 0.10199540E+03</rscale>
<asrwt>0</asrwt>
<pdfrwt beam="1">  1        2 0.12381049E+00 0.10199540E+03</pdfrwt>
<pdfrwt beam="2">  1       -2 0.21611470E-02 0.10199540E+03</pdfrwt>
<totfact> 0.22427319E+04</totfact>
</mgrwt>
</event>
<event>
 4    1  0.1437859E-001  0.8536775E+02  0.7546771E-02  0.1314474E+00
          2   -1    0    0  501    0  0.00000000000E+00  0.00000000000E+00  0.29464344023E+03  0.29464344023E+03  0.00000000000E+00 0. -1.
         -2   -1    0    0    0  501 -0.00000000000E+00 -0.00000000000E+00 -0.65785766202E+02  0.65785766202E+02  0.00000000000E+00 0.  1.
         24    1    1    2    0    0 -0.28520482520E+02  0.26494256247E+01  0.25678981647E+03  0.27060795106E+03  0.80419002446E+02 0. -1.
        -24    1    1    2    0    0  0.28520482520E+02 -0.26494256247E+01 -0.27932142450E+02  0.89821255366E+02  0.80419002446E+02 0.  1.
<mgrwt>
<rscale>  0 0.85367753E+02</rscale>
<asrwt>0</asrwt>
<pdfrwt beam="1">  1        2 0.45329759E-01 0.85367753E+02</pdfrwt>
<pdfrwt beam="2">  1       -2 0.10120887E-01 0.85367753E+02</pdfrwt>
<totfact> 0.66895425E+03</totfact>
</mgrwt>
</event>
<event>
 4    1  0.1437859E-001  0.8848481E+02  0.7546771E-02  0.1306563E+00
         -1   -1    0    0    0  501 -0.00000000000E+00  0.00000000000E+00  0.17222216946E+02  0.17222216946E+02  0.00000000000E+00 0.  1.
          1   -1    0    0  501    0  0.00000000000E+00 -0.00000000000E+00 -0.48214396244E+03  0.48214396244E+03  0.00000000000E+00 0. -1.
         24    1    1    2    0    0 -0.36898789686E+02  0.90812436153E+00 -0.17280439747E+03  0.19414149765E+03  0.80419002446E+02 0.  1.
        -24    1    1    2    0    0  0.36898789686E+02 -0.90812436153E+00 -0.29211734803E+03  0.30522468174E+03  0.80419002446E+02 0. -1.
<mgrwt>
<rscale>  0 0.88484808E+02</rscale>
<asrwt>0</asrwt>
<pdfrwt beam="1">  1        1 0.74175989E-01 0.88484808E+02</pdfrwt>
<pdfrwt beam="2">  1       -1 0.26495720E-02 0.88484808E+02</pdfrwt>
<totfact> 0.19401825E+04</totfact>
</mgrwt>
</event>
<event>
 4    1  0.1437859E-001  0.9024735E+02  0.7546771E-02  0.1302254E+00
         -2   -1    0    0    0  501 -0.00000000000E+00  0.00000000000E+00  0.39970099544E+02  0.39970099544E+02  0.00000000000E+00 0.  1.
          2   -1    0    0  501    0  0.00000000000E+00 -0.00000000000E+00 -0.21766108709E+03  0.21766108709E+03  0.00000000000E+00 0. -1.
         24    1    1    2    0    0  0.40795037360E+02  0.36233249422E+01 -0.56299608829E+02  0.10636834804E+03  0.80419002446E+02 0.  0.
        -24    1    1    2    0    0 -0.40795037360E+02 -0.36233249422E+01 -0.12139137871E+03  0.15126283859E+03  0.80419002446E+02 0.  0.
<mgrwt>
<rscale>  0 0.90247335E+02</rscale>
<asrwt>0</asrwt>
<pdfrwt beam="1">  1        2 0.33486321E-01 0.90247347E+02</pdfrwt>
<pdfrwt beam="2">  1       -2 0.61492462E-02 0.90247347E+02</pdfrwt>
<totfact> 0.19769883E+04</totfact>
</mgrwt>
</event>
<event>
 4    1  0.1437859E-001  0.8246070E+02  0.7546771E-02  0.1322210E+00
          2   -1    0    0  501    0  0.00000000000E+00  0.00000000000E+00  0.57907467618E+03  0.57907467618E+03  0.00000000000E+00 0. -1.
         -2   -1    0    0    0  501 -0.00000000000E+00 -0.00000000000E+00 -0.86203173698E+02  0.86203173698E+02  0.00000000000E+00 0.  1.
         24    1    1    2    0    0  0.11362419765E+02 -0.14263462037E+02  0.55558985053E+03  0.56167592872E+03  0.80419002446E+02 0. -1.
        -24    1    1    2    0    0 -0.11362419765E+02  0.14263462037E+02 -0.62718348049E+02  0.10360192116E+03  0.80419002446E+02 0.  1.
<mgrwt>
<rscale>  0 0.82460699E+02</rscale>
<asrwt>0</asrwt>
<pdfrwt beam="1">  1        2 0.89088409E-01 0.82460699E+02</pdfrwt>
<pdfrwt beam="2">  1       -2 0.13262027E-01 0.82460699E+02</pdfrwt>
<totfact> 0.21325301E+03</totfact>
</mgrwt>
</event>
<event>
 4    1  0.1437859E-001  0.9883297E+02  0.7546771E-02  0.1282769E+00
          1   -1    0    0  501    0  0.00000000000E+00  0.00000000000E+00  0.25013834000E+02  0.25013834000E+02  0.00000000000E+00 0. -1.
         -1   -1    0    0    0  501 -0.00000000000E+00 -0.00000000000E+00 -0.55730700766E+03  0.55730700766E+03  0.00000000000E+00 0.  1.
         24    1    1    2    0    0  0.54382187643E+02 -0.18528857324E+02 -0.42543690780E+03  0.43676597779E+03  0.80419002446E+02 0. -1.
        -24    1    1    2    0    0 -0.54382187643E+02  0.18528857324E+02 -0.10685626586E+03  0.14555486386E+03  0.80419002446E+02 0. -1.
<mgrwt>
<rscale>  0 0.98832974E+02</rscale>
<asrwt>0</asrwt>
<pdfrwt beam="1">  1        1 0.38482824E-02 0.98832974E+02</pdfrwt>
<pdfrwt beam="2">  1       -1 0.85739535E-01 0.98832974E+02</pdfrwt>
<totfact> 0.31910280E+03</totfact>
</mgrwt>
</event>
<event>
 4    1  0.1437859E-001  0.9255540E+02  0.7546771E-02  0.1296779E+00
          2   -1    0    0  501    0  0.00000000000E+00  0.00000000000E+00  0.10400365286E+04  0.10400365286E+04  0.00000000000E+00 0. -1.
         -2   -1    0    0    0  501 -0.00000000000E+00 -0.00000000000E+00 -0.11700646093E+02  0.11700646093E+02  0.00000000000E+00 0.  1.
         24    1    1    2    0    0 -0.51402937059E+01  0.45528701371E+02  0.80029301654E+03  0.80562734161E+03  0.80419002446E+02 0. -1.
        -24    1    1    2    0    0  0.51402937059E+01 -0.45528701371E+02  0.22804286595E+03  0.24610983307E+03  0.80419002446E+02 0.  1.
<mgrwt>
<rscale>  0 0.92555395E+02</rscale>
<asrwt>0</asrwt>
<pdfrwt beam="1">  1        2 0.16000555E+00 0.92555395E+02</pdfrwt>
<pdfrwt beam="2">  1       -2 0.18001002E-02 0.92555395E+02</pdfrwt>
<totfact> 0.20729177E+04</totfact>
</mgrwt>
</event>
<event>
 4    1  0.1437859E-001  0.8601579E+02  0.7546771E-02  0.1312797E+00
         -2   -1    0    0    0  501 -0.00000000000E+00  0.00000000000E+00  0.26827062637E+02  0.26827062637E+02  0.00000000000E+00 0.  1.
          2   -1    0    0  501    0  0.00000000000E+00 -0.00000000000E+00 -0.47702899842E+03  0.47702899842E+03  0.00000000000E+00 0. -1.
         24    1    1    2    0    0  0.29016054016E+02 -0.94640708371E+01 -0.38872871161E+03  0.39813154511E+03  0.80419002446E+02 0. -1.
        -24    1    1    2    0    0 -0.29016054016E+02  0.94640708371E+01 -0.61473224172E+02  0.10572451595E+03  0.80419002446E+02 0.  1.
<mgrwt>
<rscale>  0 0.86015789E+02</rscale>
<asrwt>0</asrwt>
<pdfrwt beam="1">  1        2 0.73389068E-01 0.86015789E+02</pdfrwt>
<pdfrwt beam="2">  1       -2 0.41272409E-02 0.86015789E+02</pdfrwt>
<totfact> 0.15595571E+04</totfact>
</mgrwt>
</event>
<event>
 4    1  0.1437859E-001  0.9796417E+02  0.7546771E-02  0.1284636E+00
          4   -1    0    0  501    0  0.00000000000E+00  0.00000000000E+00  0.44004481246E+02  0.44004481246E+02  0.00000000000E+00 0. -1.
         -4   -1    0    0    0  501 -0.00000000000E+00 -0.00000000000E+00 -0.26573089071E+03  0.26573089071E+03  0.00000000000E+00 0.  1.
         24    1    1    2    0    0  0.54143472784E+02 -0.14079989757E+02 -0.45290131311E+02  0.10792670525E+03  0.80419002446E+02 0. -1.
        -24    1    1    2    0    0 -0.54143472784E+02  0.14079989757E+02 -0.17643627816E+03  0.20180866671E+03  0.80419002446E+02 0.  1.
<mgrwt>
<rscale>  0 0.97964165E+02</rscale>
<asrwt>0</asrwt>
<pdfrwt beam="1">  1        4 0.67699202E-02 0.97964165E+02</pdfrwt>
<pdfrwt beam="2">  1       -4 0.40881675E-01 0.97964165E+02</pdfrwt>
<totfact> 0.12966541E+03</totfact>
</mgrwt>
</event>
<event>
 4    1  0.1437859E-001  0.1073529E+03  0.7546771E-02  0.1265552E+00
          2   -1    0    0  501    0  0.00000000000E+00  0.00000000000E+00  0.14050250759E+03  0.14050250759E+03  0.00000000000E+00 0. -1.
         -2   -1    0    0    0  501 -0.00000000000E+00 -0.00000000000E+00 -0.89716033390E+02  0.89716033390E+02  0.00000000000E+00 0.  1.
         24    1    1    2    0    0  0.71110370201E+02 -0.86237276949E+00  0.59097314724E+02  0.12254442867E+03  0.80419002446E+02 0. -1.
        -24    1    1    2    0    0 -0.71110370201E+02  0.86237276949E+00 -0.83108405221E+01  0.10767411231E+03  0.80419002446E+02 0.  1.
<mgrwt>
<rscale>  0 0.10735290E+03</rscale>
<asrwt>0</asrwt>
<pdfrwt beam="1">  1        2 0.21615770E-01 0.10735290E+03</pdfrwt>
<pdfrwt beam="2">  1       -2 0.13802467E-01 0.10735290E+03</pdfrwt>
<totfact> 0.92230482E+03</totfact>
</mgrwt>
</event>
<event>
 4    1  0.1437859E-001  0.1536731E+03  0.7546771E-02  0.1196031E+00
          1   -1    0    0  501    0  0.00000000000E+00  0.00000000000E+00  0.55216463861E+02  0.55216463861E+02  0.00000000000E+00 0. -1.
         -1   -1    0    0    0  501 -0.00000000000E+00 -0.00000000000E+00 -0.43218648358E+03  0.43218648358E+03  0.00000000000E+00 0.  1.
         24    1    1    2    0    0  0.13092435100E+03  0.26490545561E+01 -0.16362189607E+03  0.22447169978E+03  0.80419002446E+02 0.  1.
        -24    1    1    2    0    0 -0.13092435100E+03 -0.26490545561E+01 -0.21334812365E+03  0.26293124766E+03  0.80419002446E+02 0. -1.
<mgrwt>
<rscale>  0 0.15367311E+03</rscale>
<asrwt>0</asrwt>
<pdfrwt beam="1">  1        1 0.84948403E-02 0.15367313E+03</pdfrwt>
<pdfrwt beam="2">  1       -1 0.66490230E-01 0.15367313E+03</pdfrwt>
<totfact> 0.18619390E+03</totfact>
</mgrwt>
</event>
<event>
 4    1  0.1437859E-001  0.8547093E+02  0.7546771E-02  0.1314206E+00
          2   -1    0    0  501    0  0.00000000000E+00  0.00000000000E+00  0.29338220145E+04  0.29338220145E+04  0.00000000000E+00 0. -1.
         -2   -1    0    0    0  501 -0.00000000000E+00 -0.00000000000E+00 -0.73991803964E+01  0.73991803964E+01  0.00000000000E+00 0.  1.
         24    1    1    2    0    0 -0.28850187544E+02  0.23939481768E+01  0.26610806834E+04  0.26624529449E+04  0.80419002446E+02 0. -1.
        -24    1    1    2    0    0  0.28850187544E+02 -0.23939481768E+01  0.26534215070E+03  0.27876824999E+03  0.80419002446E+02 0.  1.
<mgrwt>
<rscale>  0 0.85470932E+02</rscale>
<asrwt>0</asrwt>
<pdfrwt beam="1">  1        2 0.45135630E+00 0.85470932E+02</pdfrwt>
<pdfrwt beam="2">  1       -2 0.11383378E-02 0.85470932E+02</pdfrwt>
<totfact> 0.40750394E+03</totfact>
</mgrwt>
</event>
<event>
 4    1  0.1437859E-001  0.9087251E+02  0.7546771E-02  0.1300752E+00
         -1   -1    0    0    0  501 -0.00000000000E+00  0.00000000000E+00  0.22655512140E+02  0.22655512140E+02  0.00000000000E+00 0.  1.
          1   -1    0    0  501    0  0.00000000000E+00 -0.00000000000E+00 -0.37264129977E+03  0.37264129977E+03  0.00000000000E+00 0. -1.
         24    1    1    2    0    0  0.10358238273E+02  0.41028095829E+02 -0.14576910756E+03  0.17177440560E+03  0.80419002446E+02 0. -1.
        -24    1    1    2    0    0 -0.10358238273E+02 -0.41028095829E+02 -0.20421668008E+03  0.22352240631E+03  0.80419002446E+02 0.  0.
<mgrwt>
<rscale>  0 0.90872513E+02</rscale>
<asrwt>0</asrwt>
<pdfrwt beam="1">  1        1 0.57329430E-01 0.90872513E+02</pdfrwt>
<pdfrwt beam="2">  1       -1 0.34854634E-02 0.90872513E+02</pdfrwt>
<totfact> 0.18095709E+04</totfact>
</mgrwt>
</event>
<event>
 4    1  0.1437859E-001  0.1288384E+03  0.7546771E-02  0.1229190E+00
          1   -1    0    0  501    0  0.00000000000E+00  0.00000000000E+00  0.18054581607E+03  0.18054581607E+03  0.00000000000E+00 0. -1.
         -1   -1    0    0    0  501 -0.00000000000E+00 -0.00000000000E+00 -0.24265371739E+03  0.24265371739E+03  0.00000000000E+00 0.  1.
         24    1    1    2    0    0  0.35807051652E+02  0.94074233938E+02 -0.19781652063E+03  0.23607350175E+03  0.80419002446E+02 0.  1.
        -24    1    1    2    0    0 -0.35807051652E+02 -0.94074233938E+02  0.13570861931E+03  0.18712603172E+03  0.80419002446E+02 0. -1.
<mgrwt>
<rscale>  0 0.12883836E+03</rscale>
<asrwt>0</asrwt>
<pdfrwt beam="1">  1        1 0.27776279E-01 0.12883836E+03</pdfrwt>
<pdfrwt beam="2">  1       -1 0.37331341E-01 0.12883836E+03</pdfrwt>
<totfact> 0.11506450E+03</totfact>
</mgrwt>
</event>
<event>
 4    1  0.1437859E-001  0.1039615E+03  0.7546771E-02  0.1272179E+00
         -1   -1    0    0    0  501 -0.00000000000E+00  0.00000000000E+00  0.72698186888E+02  0.72698186888E+02  0.00000000000E+00 0.  1.
          1   -1    0    0  501    0  0.00000000000E+00 -0.00000000000E+00 -0.22820654284E+03  0.22820654284E+03  0.00000000000E+00 0. -1.
         24    1    1    2    0    0 -0.64451050377E+02 -0.13668719275E+02  0.11067765074E+02  0.10454895102E+03  0.80419002446E+02 0.  1.
        -24    1    1    2    0    0  0.64451050377E+02  0.13668719275E+02 -0.16657612103E+03  0.19635577871E+03  0.80419002446E+02 0. -1.
<mgrwt>
<rscale>  0 0.10396147E+03</rscale>
<asrwt>0</asrwt>
<pdfrwt beam="1">  1        1 0.35108699E-01 0.10396147E+03</pdfrwt>
<pdfrwt beam="2">  1       -1 0.11184337E-01 0.10396147E+03</pdfrwt>
<totfact> 0.59404088E+03</totfact>
</mgrwt>
</event>
<event>
 4    1  0.1437859E-001  0.1076905E+03  0.7546771E-02  0.1264907E+00
          2   -1    0    0  501    0  0.00000000000E+00  0.00000000000E+00  0.21390159992E+03  0.21390159992E+03  0.00000000000E+00 0. -1.
         -2   -1    0    0    0  501 -0.00000000000E+00 -0.00000000000E+00 -0.17029997838E+03  0.17029997838E+03  0.00000000000E+00 0.  1.
         24    1    1    2    0    0  0.65873162396E-01  0.71624182371E+02  0.18040143520E+03  0.21009978966E+03  0.80419002446E+02 0. -1.
        -24    1    1    2    0    0 -0.65873162396E-01 -0.71624182371E+02 -0.13679981366E+03  0.17410178865E+03  0.80419002446E+02 0.  1.
<mgrwt>
<rscale>  0 0.10769050E+03</rscale>
<asrwt>0</asrwt>
<pdfrwt beam="1">  1        2 0.32907938E-01 0.10769050E+03</pdfrwt>
<pdfrwt beam="2">  1       -2 0.26199997E-01 0.10769050E+03</pdfrwt>
<totfact> 0.19964111E+03</totfact>
</mgrwt>
</event>
<event>
 4    1  0.1437859E-001  0.9011094E+02  0.7546771E-02  0.1302583E+00
          1   -1    0    0  501    0  0.00000000000E+00  0.00000000000E+00  0.55360861656E+02  0.55360861656E+02  0.00000000000E+00 0. -1.
         -1   -1    0    0    0  501 -0.00000000000E+00 -0.00000000000E+00 -0.19813474170E+03  0.19813474170E+03  0.00000000000E+00 0.  1.
         24    1    1    2    0    0 -0.32475456100E+02 -0.24456299492E+02 -0.13598202196E+03  0.16312906572E+03  0.80419002446E+02 0.  1.
        -24    1    1    2    0    0  0.32475456100E+02  0.24456299492E+02 -0.67918580914E+01  0.90366537637E+02  0.80419002446E+02 0. -1.
<mgrwt>
<rscale>  0 0.90110942E+02</rscale>
<asrwt>0</asrwt>
<pdfrwt beam="1">  1        1 0.85170557E-02 0.90110942E+02</pdfrwt>
<pdfrwt beam="2">  1       -1 0.30482268E-01 0.90110942E+02</pdfrwt>
<totfact> 0.72537037E+03</totfact>
</mgrwt>
</event>
<event>
 4    1  0.1437859E-001  0.9361610E+02  0.7546771E-02  0.1294324E+00
          2   -1    0    0  501    0  0.00000000000E+00  0.00000000000E+00  0.25881317792E+04  0.25881317792E+04  0.00000000000E+00 0. -1.
         -2   -1    0    0    0  501 -0.00000000000E+00 -0.00000000000E+00 -0.44946936582E+01  0.44946936582E+01  0.00000000000E+00 0.  1.
         24    1    1    2    0    0 -0.43809547760E+02  0.19428897158E+02  0.19355775013E+04  0.19378400961E+04  0.80419002446E+02 0. -1.
        -24    1    1    2    0    0  0.43809547760E+02 -0.19428897158E+02  0.64805958425E+03  0.65478637678E+03  0.80419002446E+02 0.  1.
<mgrwt>
<rscale>  0 0.93616102E+02</rscale>
<asrwt>0</asrwt>
<pdfrwt beam="1">  1        2 0.39817293E+00 0.93616102E+02</pdfrwt>
<pdfrwt beam="2">  1       -2 0.69149340E-03 0.93616102E+02</pdfrwt>
<totfact> 0.12735866E+04</totfact>
</mgrwt>
</event>
<event>
 4    1  0.1437859E-001  0.9238210E+02  0.7546771E-02  0.1297184E+00
         -1   -1    0    0    0  501 -0.00000000000E+00  0.00000000000E+00  0.13599492592E+02  0.13599492592E+02  0.00000000000E+00 0.  1.
          1   -1    0    0  501    0  0.00000000000E+00 -0.00000000000E+00 -0.69788874819E+03  0.69788874819E+03  0.00000000000E+00 0. -1.
         24    1    1    2    0    0  0.12540168370E+02  0.43703270377E+02 -0.45507803139E+03  0.46436027207E+03  0.80419002446E+02 0. -1.
        -24    1    1    2    0    0 -0.12540168370E+02 -0.43703270377E+02 -0.22921122421E+03  0.24712796871E+03  0.80419002446E+02 0.  1.
<mgrwt>
<rscale>  0 0.92382086E+02</rscale>
<asrwt>0</asrwt>
<pdfrwt beam="1">  1        1 0.10736752E+00 0.92382097E+02</pdfrwt>
<pdfrwt beam="2">  1       -1 0.20922293E-02 0.92382097E+02</pdfrwt>
<totfact> 0.16694104E+04</totfact>
</mgrwt>
</event>
<event>
 4    1  0.1437859E-001  0.8281870E+02  0.7546771E-02  0.1321237E+00
         -2   -1    0    0    0  501 -0.00000000000E+00  0.00000000000E+00  0.18642522698E+02  0.18642522698E+02  0.00000000000E+00 0.  1.
          2   -1    0    0  501    0  0.00000000000E+00 -0.00000000000E+00 -0.38605976245E+03  0.38605976245E+03  0.00000000000E+00 0. -1.
         24    1    1    2    0    0 -0.11251815879E+02 -0.16282351123E+02 -0.13984456758E+03  0.16252826632E+03  0.80419002446E+02 0. -1.
        -24    1    1    2    0    0  0.11251815879E+02  0.16282351123E+02 -0.22757267218E+03  0.24217401883E+03  0.80419002446E+02 0.  1.
<mgrwt>
<rscale>  0 0.82818693E+02</rscale>
<asrwt>0</asrwt>
<pdfrwt beam="1">  1        2 0.59393801E-01 0.82818704E+02</pdfrwt>
<pdfrwt beam="2">  1       -2 0.28680808E-02 0.82818704E+02</pdfrwt>
<totfact> 0.33030241E+04</totfact>
</mgrwt>
</event>
<event>
 4    1  0.1437859E-001  0.1343353E+03  0.7546771E-02  0.1221161E+00
          3   -1    0    0  501    0  0.00000000000E+00  0.00000000000E+00  0.96539124363E+02  0.96539124363E+02  0.00000000000E+00 0. -1.
         -3   -1    0    0    0  501 -0.00000000000E+00 -0.00000000000E+00 -0.18840319613E+03  0.18840319613E+03  0.00000000000E+00 0.  1.
         24    1    1    2    0    0  0.28773152224E+02  0.10368637671E+03 -0.33330001618E+02  0.13840832333E+03  0.80419002446E+02 0. -1.
        -24    1    1    2    0    0 -0.28773152224E+02 -0.10368637671E+03 -0.58534070150E+02  0.14653399717E+03  0.80419002446E+02 0.  1.
<mgrwt>
<rscale>  0 0.13433532E+03</rscale>
<asrwt>0</asrwt>
<pdfrwt beam="1">  1        3 0.14852173E-01 0.13433534E+03</pdfrwt>
<pdfrwt beam="2">  1       -3 0.28985107E-01 0.13433534E+03</pdfrwt>
<totfact> 0.99501514E+02</totfact>
</mgrwt>
</event>
<event>
 4    1  0.1437859E-001  0.1295036E+03  0.7546771E-02  0.1228194E+00
         -2   -1    0    0    0  501 -0.00000000000E+00  0.00000000000E+00  0.44642218363E+02  0.44642218363E+02  0.00000000000E+00 0.  1.
          2   -1    0    0  501    0  0.00000000000E+00 -0.00000000000E+00 -0.46248536134E+03  0.46248536134E+03  0.00000000000E+00 0. -1.
         24    1    1    2    0    0  0.82509976384E+02  0.59127591137E+02 -0.31877453064E+03  0.34407613340E+03  0.80419002446E+02 0. -1.
        -24    1    1    2    0    0 -0.82509976384E+02 -0.59127591137E+02 -0.99068612335E+02  0.16305144630E+03  0.80419002446E+02 0.  1.
<mgrwt>
<rscale>  0 0.12950361E+03</rscale>
<asrwt>0</asrwt>
<pdfrwt beam="1">  1        2 0.71151590E-01 0.12950361E+03</pdfrwt>
<pdfrwt beam="2">  1       -2 0.68680340E-02 0.12950361E+03</pdfrwt>
<totfact> 0.77710231E+03</totfact>
</mgrwt>
</event>
<event>
 4    1  0.1437859E-001  0.8791801E+02  0.7546771E-02  0.1307973E+00
         -2   -1    0    0    0  501 -0.00000000000E+00  0.00000000000E+00  0.14262001260E+02  0.14262001260E+02  0.00000000000E+00 0.  1.
          2   -1    0    0  501    0  0.00000000000E+00 -0.00000000000E+00 -0.72282876857E+03  0.72282876857E+03  0.00000000000E+00 0. -1.
         24    1    1    2    0    0  0.12616763567E+02 -0.33214113847E+02 -0.53863337161E+03  0.54576138106E+03  0.80419002446E+02 0. -1.
        -24    1    1    2    0    0 -0.12616763567E+02  0.33214113847E+02 -0.16993339569E+03  0.19132938877E+03  0.80419002446E+02 0.  1.
<mgrwt>
<rscale>  0 0.87918007E+02</rscale>
<asrwt>0</asrwt>
<pdfrwt beam="1">  1        2 0.11120439E+00 0.87918007E+02</pdfrwt>
<pdfrwt beam="2">  1       -2 0.21941547E-02 0.87918007E+02</pdfrwt>
<totfact> 0.24619965E+04</totfact>
</mgrwt>
</event>
<event>
 4    1  0.1437859E-001  0.8572443E+02  0.7546771E-02  0.1313549E+00
          2   -1    0    0  501    0  0.00000000000E+00  0.00000000000E+00  0.11835647033E+03  0.11835647033E+03  0.00000000000E+00 0. -1.
         -2   -1    0    0    0  501 -0.00000000000E+00 -0.00000000000E+00 -0.67394682872E+02  0.67394682872E+02  0.00000000000E+00 0.  1.
         24    1    1    2    0    0  0.29531712424E+02  0.30554127675E+01 -0.57740048597E+00  0.85726349109E+02  0.80419002446E+02 0.  0.
        -24    1    1    2    0    0 -0.29531712424E+02 -0.30554127675E+01  0.51539187948E+02  0.10002480410E+03  0.80419002446E+02 0. -1.
<mgrwt>
<rscale>  0 0.85724415E+02</rscale>
<asrwt>0</asrwt>
<pdfrwt beam="1">  1        2 0.18208688E-01 0.85724426E+02</pdfrwt>
<pdfrwt beam="2">  1       -2 0.10368413E-01 0.85724426E+02</pdfrwt>
<totfact> 0.17197214E+04</totfact>
</mgrwt>
</event>
<event>
 4    1  0.1437859E-001  0.9308642E+02  0.7546771E-02  0.1295545E+00
          2   -1    0    0  501    0  0.00000000000E+00  0.00000000000E+00  0.61450016583E+02  0.61450016583E+02  0.00000000000E+00 0. -1.
         -2   -1    0    0    0  501 -0.00000000000E+00 -0.00000000000E+00 -0.14112992727E+03  0.14112992727E+03  0.00000000000E+00 0.  1.
         24    1    1    2    0    0 -0.42730188366E+02  0.19287194559E+02 -0.36890082321E+02  0.10012971087E+03  0.80419002446E+02 0.  1.
        -24    1    1    2    0    0  0.42730188366E+02 -0.19287194559E+02 -0.42789828368E+02  0.10245023298E+03  0.80419002446E+02 0.  0.
<mgrwt>
<rscale>  0 0.93086416E+02</rscale>
<asrwt>0</asrwt>
<pdfrwt beam="1">  1        2 0.94538488E-02 0.93086416E+02</pdfrwt>
<pdfrwt beam="2">  1       -2 0.21712296E-01 0.93086416E+02</pdfrwt>
<totfact> 0.11308902E+04</totfact>
</mgrwt>
</event>
<event>
 4    1  0.1437859E-001  0.8347188E+02  0.7546771E-02  0.1319478E+00
         -2   -1    0    0    0  501 -0.00000000000E+00  0.00000000000E+00  0.65937852477E+03  0.65937852477E+03  0.00000000000E+00 0.  1.
          2   -1    0    0  501    0  0.00000000000E+00 -0.00000000000E+00 -0.15019887394E+02  0.15019887394E+02  0.00000000000E+00 0. -1.
         24    1    1    2    0    0 -0.11087700167E+02 -0.19426815865E+02  0.13857564912E+03  0.16177380738E+03  0.80419002446E+02 0. -1.
        -24    1    1    2    0    0  0.11087700167E+02  0.19426815865E+02  0.50578298825E+03  0.51262460478E+03  0.80419002446E+02 0.  1.
<mgrwt>
<rscale>  0 0.83471877E+02</rscale>
<asrwt>0</asrwt>
<pdfrwt beam="1">  1        2 0.23107524E-02 0.83471877E+02</pdfrwt>
<pdfrwt beam="2">  1       -2 0.10144283E+00 0.83471877E+02</pdfrwt>
<totfact> 0.33806518E+03</totfact>
</mgrwt>
</event>
<event>
 4    1  0.1437859E-001  0.1454854E+03  0.7546771E-02  0.1206133E+00
         -2   -1    0    0    0  501 -0.00000000000E+00  0.00000000000E+00  0.19063834535E+02  0.19063834535E+02  0.00000000000E+00 0.  1.
          2   -1    0    0  501    0  0.00000000000E+00 -0.00000000000E+00 -0.11102881189E+04  0.11102881189E+04  0.00000000000E+00 0. -1.
         24    1    1    2    0    0  0.11958397837E+03 -0.19961342433E+02 -0.54790820006E+03  0.56689451816E+03  0.80419002446E+02 0. -1.
        -24    1    1    2    0    0 -0.11958397837E+03  0.19961342433E+02 -0.54331608434E+03  0.56245743531E+03  0.80419002446E+02 0.  0.
<mgrwt>
<rscale>  0 0.14548539E+03</rscale>
<asrwt>0</asrwt>
<pdfrwt beam="1">  1        2 0.17081354E+00 0.14548539E+03</pdfrwt>
<pdfrwt beam="2">  1       -2 0.29328978E-02 0.14548539E+03</pdfrwt>
<totfact> 0.95839945E+03</totfact>
</mgrwt>
</event>
<event>
 4    1  0.1437859E-001  0.1757155E+03  0.7546771E-02  0.1172015E+00
          2   -1    0    0  501    0  0.00000000000E+00  0.00000000000E+00  0.77669273492E+03  0.77669273492E+03  0.00000000000E+00 0. -1.
         -2   -1    0    0    0  501 -0.00000000000E+00 -0.00000000000E+00 -0.99855129930E+02  0.99855129930E+02  0.00000000000E+00 0.  1.
         24    1    1    2    0    0  0.15199438599E+03 -0.36144743180E+02  0.67843921022E+03  0.70082502363E+03  0.80419002446E+02 0. -1.
        -24    1    1    2    0    0 -0.15199438599E+03  0.36144743180E+02 -0.16016052256E+01  0.17572284122E+03  0.80419002446E+02 0.  1.
<mgrwt>
<rscale>  0 0.17571554E+03</rscale>
<asrwt>0</asrwt>
<pdfrwt beam="1">  1        2 0.11949119E+00 0.17571554E+03</pdfrwt>
<pdfrwt beam="2">  1       -2 0.15362328E-01 0.17571554E+03</pdfrwt>
<totfact> 0.12115940E+03</totfact>
</mgrwt>
</event>
<event>
 4    1  0.1437859E-001  0.1388948E+03  0.7546771E-02  0.1214824E+00
         -2   -1    0    0    0  501 -0.00000000000E+00  0.00000000000E+00  0.83132606780E+02  0.83132606780E+02  0.00000000000E+00 0.  1.
          2   -1    0    0  501    0  0.00000000000E+00 -0.00000000000E+00 -0.43691511906E+03  0.43691511906E+03  0.00000000000E+00 0. -1.
         24    1    1    2    0    0  0.72161307772E+02  0.87277127037E+02  0.11570700058E+01  0.13889962566E+03  0.80419002446E+02 0.  1.
        -24    1    1    2    0    0 -0.72161307772E+02 -0.87277127037E+02 -0.35493958228E+03  0.38114810018E+03  0.80419002446E+02 0. -1.
<mgrwt>
<rscale>  0 0.13889482E+03</rscale>
<asrwt>0</asrwt>
<pdfrwt beam="1">  1        2 0.67217711E-01 0.13889484E+03</pdfrwt>
<pdfrwt beam="2">  1       -2 0.12789632E-01 0.13889484E+03</pdfrwt>
<totfact> 0.31367364E+03</totfact>
</mgrwt>
</event>
<event>
 4    1  0.1437859E-001  0.9960106E+02  0.7546771E-02  0.1281137E+00
         -1   -1    0    0    0  501 -0.00000000000E+00  0.00000000000E+00  0.92261676776E+02  0.92261676776E+02  0.00000000000E+00 0.  1.
          1   -1    0    0  501    0  0.00000000000E+00 -0.00000000000E+00 -0.21070649120E+03  0.21070649120E+03  0.00000000000E+00 0. -1.
         24    1    1    2    0    0 -0.57735465012E+02 -0.10943983235E+02  0.46783595059E+02  0.11004124413E+03  0.80419002446E+02 0.  1.
        -24    1    1    2    0    0  0.57735465012E+02  0.10943983235E+02 -0.16522840949E+03  0.19292692385E+03  0.80419002446E+02 0. -1.
<mgrwt>
<rscale>  0 0.99601057E+02</rscale>
<asrwt>0</asrwt>
<pdfrwt beam="1">  1        1 0.32416383E-01 0.99601057E+02</pdfrwt>
<pdfrwt beam="2">  1       -1 0.14194104E-01 0.99601057E+02</pdfrwt>
<totfact> 0.45300460E+03</totfact>
</mgrwt>
</event>
<event>
 4    1  0.1437859E-001  0.9569596E+02  0.7546771E-02  0.1289616E+00
          1   -1    0    0  501    0  0.00000000000E+00  0.00000000000E+00  0.43096448100E+03  0.43096448100E+03  0.00000000000E+00 0. -1.
         -1   -1    0    0    0  501 -0.00000000000E+00 -0.00000000000E+00 -0.24636687225E+02  0.24636687225E+02  0.00000000000E+00 0.  1.
         24    1    1    2    0    0 -0.23806132426E+01 -0.51815343473E+02  0.28763208792E+03  0.30313352024E+03  0.80419002446E+02 0.  0.
        -24    1    1    2    0    0  0.23806132426E+01  0.51815343473E+02  0.11869570585E+03  0.15246764798E+03  0.80419002446E+02 0.  0.
<mgrwt>
<rscale>  0 0.95695953E+02</rscale>
<asrwt>0</asrwt>
<pdfrwt beam="1">  1        1 0.66302222E-01 0.95695965E+02</pdfrwt>
<pdfrwt beam="2">  1       -1 0.37902599E-02 0.95695965E+02</pdfrwt>
<totfact> 0.13438594E+04</totfact>
</mgrwt>
</event>
<event>
 4    1  0.1437859E-001  0.8293957E+02  0.7546771E-02  0.1320910E+00
          1   -1    0    0  501    0  0.00000000000E+00  0.00000000000E+00  0.16539793584E+03  0.16539793584E+03  0.00000000000E+00 0. -1.
         -1   -1    0    0    0  501 -0.00000000000E+00 -0.00000000000E+00 -0.58850686319E+02  0.58850686319E+02  0.00000000000E+00 0.  1.
         24    1    1    2    0    0 -0.25559203483E+01  0.20130177169E+02 -0.74485800456E+01  0.83273369457E+02  0.80419002446E+02 0.  1.
        -24    1    1    2    0    0  0.25559203483E+01 -0.20130177169E+02  0.11399582957E+03  0.14097525270E+03  0.80419002446E+02 0. -1.
<mgrwt>
<rscale>  0 0.82939573E+02</rscale>
<asrwt>0</asrwt>
<pdfrwt beam="1">  1        1 0.25445836E-01 0.82939573E+02</pdfrwt>
<pdfrwt beam="2">  1       -1 0.90539518E-02 0.82939573E+02</pdfrwt>
<totfact> 0.11915512E+04</totfact>
</mgrwt>
</event>
<event>
 4    1  0.1437859E-001  0.1037700E+03  0.7546771E-02  0.1272562E+00
         -2   -1    0    0    0  501 -0.00000000000E+00  0.00000000000E+00  0.18762771066E+02  0.18762771066E+02  0.00000000000E+00 0.  1.
          2   -1    0    0  501    0  0.00000000000E+00 -0.00000000000E+00 -0.27244049767E+04  0.27244049767E+04  0.00000000000E+00 0. -1.
         24    1    1    2    0    0  0.34488089447E+02 -0.55781489757E+02 -0.25714047340E+04  0.25734977220E+04  0.80419002446E+02 0. -1.
        -24    1    1    2    0    0 -0.34488089447E+02  0.55781489757E+02 -0.13423747162E+03  0.16967002580E+03  0.80419002446E+02 0.  1.
<mgrwt>
<rscale>  0 0.10377003E+03</rscale>
<asrwt>0</asrwt>
<pdfrwt beam="1">  1        2 0.41913921E+00 0.10377003E+03</pdfrwt>
<pdfrwt beam="2">  1       -2 0.28865803E-02 0.10377003E+03</pdfrwt>
<totfact> 0.13949622E+03</totfact>
</mgrwt>
</event>
<event>
 4    1  0.1437859E-001  0.9822639E+02  0.7546771E-02  0.1284070E+00
          1   -1    0    0  501    0  0.00000000000E+00  0.00000000000E+00  0.32658051522E+03  0.32658051522E+03  0.00000000000E+00 0. -1.
         -1   -1    0    0    0  501 -0.00000000000E+00 -0.00000000000E+00 -0.30361839685E+02  0.30361839685E+02  0.00000000000E+00 0.  1.
         24    1    1    2    0    0  0.20011028074E+02 -0.52732977748E+02  0.11881420106E+03  0.15415978241E+03  0.80419002446E+02 0.  0.
        -24    1    1    2    0    0 -0.20011028074E+02  0.52732977748E+02  0.17740447448E+03  0.20278257249E+03  0.80419002446E+02 0.  1.
<mgrwt>
<rscale>  0 0.98226392E+02</rscale>
<asrwt>0</asrwt>
<pdfrwt beam="1">  1        1 0.50243154E-01 0.98226392E+02</pdfrwt>
<pdfrwt beam="2">  1       -1 0.46710525E-02 0.98226392E+02</pdfrwt>
<totfact> 0.14011536E+04</totfact>
</mgrwt>
</event>
<event>
 4    1  0.1437859E-001  0.1627570E+03  0.7546771E-02  0.1185619E+00
          2   -1    0    0  501    0  0.00000000000E+00  0.00000000000E+00  0.16709935477E+04  0.16709935477E+04  0.00000000000E+00 0. -1.
         -2   -1    0    0    0  501 -0.00000000000E+00 -0.00000000000E+00 -0.29084140934E+02  0.29084140934E+02  0.00000000000E+00 0.  1.
         24    1    1    2    0    0 -0.50458889070E+02 -0.13219880346E+03  0.13942962858E+04  0.14037635028E+04  0.80419002446E+02 0. -1.
        -24    1    1    2    0    0  0.50458889070E+02  0.13219880346E+03  0.24761312097E+03  0.29631418588E+03  0.80419002446E+02 0.  1.
<mgrwt>
<rscale>  0 0.16275699E+03</rscale>
<asrwt>0</asrwt>
<pdfrwt beam="1">  1        2 0.25707585E+00 0.16275699E+03</pdfrwt>
<pdfrwt beam="2">  1       -2 0.44744845E-02 0.16275699E+03</pdfrwt>
<totfact> 0.25681088E+03</totfact>
</mgrwt>
</event>
<event>
 4    1  0.1437859E-001  0.8419509E+02  0.7546771E-02  0.1317551E+00
         -1   -1    0    0    0  501 -0.00000000000E+00  0.00000000000E+00  0.70287734872E+01  0.70287734872E+01  0.00000000000E+00 0.  1.
          1   -1    0    0  501    0  0.00000000000E+00 -0.00000000000E+00 -0.11966350706E+04  0.11966350706E+04  0.00000000000E+00 0. -1.
         24    1    1    2    0    0 -0.24485920997E+02  0.46943660045E+01 -0.35619748896E+03  0.36601292941E+03  0.80419002446E+02 0.  1.
        -24    1    1    2    0    0  0.24485920997E+02 -0.46943660045E+01 -0.83340880816E+03  0.83765091469E+03  0.80419002446E+02 0. -1.
<mgrwt>
<rscale>  0 0.84195091E+02</rscale>
<asrwt>0</asrwt>
<pdfrwt beam="1">  1        1 0.18409779E+00 0.84195091E+02</pdfrwt>
<pdfrwt beam="2">  1       -1 0.10813492E-02 0.84195091E+02</pdfrwt>
<totfact> 0.17881409E+04</totfact>
</mgrwt>
</event>
<event>
 4    1  0.1437859E-001  0.8398381E+02  0.7546771E-02  0.1318112E+00
          1   -1    0    0  501    0  0.00000000000E+00  0.00000000000E+00  0.43794991645E+03  0.43794991645E+03  0.00000000000E+00 0. -1.
         -1   -1    0    0    0  501 -0.00000000000E+00 -0.00000000000E+00 -0.68370132829E+02  0.68370132829E+02  0.00000000000E+00 0.  1.
         24    1    1    2    0    0 -0.10401466733E+02  0.21860326767E+02 -0.36553737652E+02  0.91593974077E+02  0.80419002446E+02 0.  1.
        -24    1    1    2    0    0  0.10401466733E+02 -0.21860326767E+02  0.40613352127E+03  0.41472607520E+03  0.80419002446E+02 0. -1.
<mgrwt>
<rscale>  0 0.83983810E+02</rscale>
<asrwt>0</asrwt>
<pdfrwt beam="1">  1        1 0.67376909E-01 0.83983810E+02</pdfrwt>
<pdfrwt beam="2">  1       -1 0.10518482E-01 0.83983810E+02</pdfrwt>
<totfact> 0.28875131E+03</totfact>
</mgrwt>
</event>
<event>
 4    1  0.1437859E-001  0.1048520E+03  0.7546771E-02  0.1270412E+00
          3   -1    0    0  501    0  0.00000000000E+00  0.00000000000E+00  0.60566258461E+03  0.60566258461E+03  0.00000000000E+00 0. -1.
         -3   -1    0    0    0  501 -0.00000000000E+00 -0.00000000000E+00 -0.19560428201E+02  0.19560428201E+02  0.00000000000E+00 0.  1.
         24    1    1    2    0    0  0.56027999065E+02 -0.37250229802E+02  0.20916360129E+03  0.23397295647E+03  0.80419002446E+02 0.  1.
        -24    1    1    2    0    0 -0.56027999065E+02  0.37250229802E+02  0.37693855512E+03  0.39125005634E+03  0.80419002446E+02 0. -1.
<mgrwt>
<rscale>  0 0.10485195E+03</rscale>
<asrwt>0</asrwt>
<pdfrwt beam="1">  1        3 0.93178845E-01 0.10485195E+03</pdfrwt>
<pdfrwt beam="2">  1       -3 0.30092971E-02 0.10485195E+03</pdfrwt>
<totfact> 0.11900833E+03</totfact>
</mgrwt>
</event>
<event>
 4    1  0.1437859E-001  0.8989200E+02  0.7546771E-02  0.1303113E+00
         -2   -1    0    0    0  501 -0.00000000000E+00  0.00000000000E+00  0.11565728606E+03  0.11565728606E+03  0.00000000000E+00 0.  1.
          2   -1    0    0  501    0  0.00000000000E+00 -0.00000000000E+00 -0.78088814165E+02  0.78088814165E+02  0.00000000000E+00 0. -1.
         24    1    1    2    0    0 -0.38537294288E+02  0.11324004419E+02 -0.12650156230E+02  0.90777742504E+02  0.80419002446E+02 0.  1.
        -24    1    1    2    0    0  0.38537294288E+02 -0.11324004419E+02  0.50218628128E+02  0.10296835772E+03  0.80419002446E+02 0.  0.
<mgrwt>
<rscale>  0 0.89892002E+02</rscale>
<asrwt>0</asrwt>
<pdfrwt beam="1">  1        2 0.12013664E-01 0.89892002E+02</pdfrwt>
<pdfrwt beam="2">  1       -2 0.17793429E-01 0.89892002E+02</pdfrwt>
<totfact> 0.11782323E+04</totfact>
</mgrwt>
</event>
<event>
 4    1  0.1437859E-001  0.1219333E+03  0.7546771E-02  0.1239941E+00
         -2   -1    0    0    0  501 -0.00000000000E+00  0.00000000000E+00  0.14684779486E+03  0.14684779486E+03  0.00000000000E+00 0.  1.
          2   -1    0    0  501    0  0.00000000000E+00 -0.00000000000E+00 -0.10476376749E+03  0.10476376749E+03  0.00000000000E+00 0. -1.
         24    1    1    2    0    0 -0.23034195992E+02  0.88712664759E+02  0.44095628852E+02  0.12966168097E+03  0.80419002446E+02 0.  1.
        -24    1    1    2    0    0  0.23034195992E+02 -0.88712664759E+02 -0.20116014769E+01  0.12194988138E+03  0.80419002446E+02 0. -1.
<mgrwt>
<rscale>  0 0.12193330E+03</rscale>
<asrwt>0</asrwt>
<pdfrwt beam="1">  1        2 0.16117503E-01 0.12193332E+03</pdfrwt>
<pdfrwt beam="2">  1       -2 0.22591969E-01 0.12193332E+03</pdfrwt>
<totfact> 0.57349685E+03</totfact>
</mgrwt>
</event>
<event>
 4    1  0.1437859E-001  0.1158822E+03  0.7546771E-02  0.1250049E+00
         -1   -1    0    0    0  501 -0.00000000000E+00  0.00000000000E+00  0.19855415864E+02  0.19855415864E+02  0.00000000000E+00 0.  1.
          1   -1    0    0  501    0  0.00000000000E+00 -0.00000000000E+00 -0.86992592580E+03  0.86992592580E+03  0.00000000000E+00 0. -1.
         24    1    1    2    0    0 -0.81667358178E+02 -0.17085493614E+02 -0.21515702890E+03  0.24437928415E+03  0.80419002446E+02 0.  1.
        -24    1    1    2    0    0  0.81667358178E+02  0.17085493614E+02 -0.63491348104E+03  0.64540205751E+03  0.80419002446E+02 0. -1.
<mgrwt>
<rscale>  0 0.11588221E+03</rscale>
<asrwt>0</asrwt>
<pdfrwt beam="1">  1        1 0.13383476E+00 0.11588221E+03</pdfrwt>
<pdfrwt beam="2">  1       -1 0.30546793E-02 0.11588221E+03</pdfrwt>
<totfact> 0.71098446E+03</totfact>
</mgrwt>
</event>
<event>
 4    1  0.1437859E-001  0.1222464E+03  0.7546771E-02  0.1239436E+00
         -2   -1    0    0    0  501 -0.00000000000E+00  0.00000000000E+00  0.48933579616E+01  0.48933579616E+01  0.00000000000E+00 0.  1.
          2   -1    0    0  501    0  0.00000000000E+00 -0.00000000000E+00 -0.46454084459E+04  0.46454084459E+04  0.00000000000E+00 0. -1.
         24    1    1    2    0    0  0.17768780683E+01 -0.92053355431E+02 -0.36811801074E+04  0.36832093583E+04  0.80419002446E+02 0. -1.
        -24    1    1    2    0    0 -0.17768780683E+01  0.92053355431E+02 -0.95933498048E+03  0.96709244556E+03  0.80419002446E+02 0.  1.
<mgrwt>
<rscale>  0 0.12224645E+03</rscale>
<asrwt>0</asrwt>
<pdfrwt beam="1">  1        2 0.71468118E+00 0.12224645E+03</pdfrwt>
<pdfrwt beam="2">  1       -2 0.75282118E-03 0.12224645E+03</pdfrwt>
<totfact> 0.42721641E+02</totfact>
</mgrwt>
</event>
<event>
 4    1  0.1437859E-001  0.8258867E+02  0.7546771E-02  0.1321862E+00
         -2   -1    0    0    0  501 -0.00000000000E+00  0.00000000000E+00  0.14884191098E+02  0.14884191098E+02  0.00000000000E+00 0.  1.
          2   -1    0    0  501    0  0.00000000000E+00 -0.00000000000E+00 -0.50039264279E+03  0.50039264279E+03  0.00000000000E+00 0. -1.
         24    1    1    2    0    0 -0.10064990962E+01 -0.18779119885E+02 -0.16799832230E+03  0.18720128374E+03  0.80419002446E+02 0.  1.
        -24    1    1    2    0    0  0.10064990962E+01  0.18779119885E+02 -0.31751012939E+03  0.32807555015E+03  0.80419002446E+02 0.  1.
<mgrwt>
<rscale>  0 0.82588656E+02</rscale>
<asrwt>0</asrwt>
<pdfrwt beam="1">  1        2 0.76983497E-01 0.82588666E+02</pdfrwt>
<pdfrwt beam="2">  1       -2 0.22898752E-02 0.82588666E+02</pdfrwt>
<totfact> 0.34713525E+04</totfact>
</mgrwt>
</event>
<event>
 4    1  0.1437859E-001  0.9757272E+02  0.7546771E-02  0.1285485E+00
         -1   -1    0    0    0  501 -0.00000000000E+00  0.00000000000E+00  0.12342178349E+02  0.12342178349E+02  0.00000000000E+00 0.  1.
          1   -1    0    0  501    0  0.00000000000E+00 -0.00000000000E+00 -0.94425447575E+03  0.94425447575E+03  0.00000000000E+00 0. -1.
         24    1    1    2    0    0 -0.54581330560E+02  0.86080125550E+01 -0.26129881562E+03  0.27892204381E+03  0.80419002446E+02 0.  1.
        -24    1    1    2    0    0  0.54581330560E+02 -0.86080125550E+01 -0.67061348178E+03  0.67767461029E+03  0.80419002446E+02 0. -1.
<mgrwt>
<rscale>  0 0.97572719E+02</rscale>
<asrwt>0</asrwt>
<pdfrwt beam="1">  1        1 0.14526993E+00 0.97572719E+02</pdfrwt>
<pdfrwt beam="2">  1       -1 0.18987966E-02 0.97572719E+02</pdfrwt>
<totfact> 0.12241704E+04</totfact>
</mgrwt>
</event>
<event>
 4    1  0.1437859E-001  0.8654229E+02  0.7546771E-02  0.1311448E+00
         -1   -1    0    0    0  501 -0.00000000000E+00  0.00000000000E+00  0.94711139585E+02  0.94711139585E+02  0.00000000000E+00 0.  1.
          1   -1    0    0  501    0  0.00000000000E+00 -0.00000000000E+00 -0.80246049375E+02  0.80246049375E+02  0.00000000000E+00 0. -1.
         24    1    1    2    0    0 -0.28141205560E+02 -0.15179590098E+02 -0.33217366784E+01  0.86605988793E+02  0.80419002446E+02 0. -1.
        -24    1    1    2    0    0  0.28141205560E+02  0.15179590098E+02  0.17786826888E+02  0.88351200167E+02  0.80419002446E+02 0.  1.
<mgrwt>
<rscale>  0 0.86542274E+02</rscale>
<asrwt>0</asrwt>
<pdfrwt beam="1">  1        1 0.12345546E-01 0.86542285E+02</pdfrwt>
<pdfrwt beam="2">  1       -1 0.14570944E-01 0.86542285E+02</pdfrwt>
<totfact> 0.14472118E+04</totfact>
</mgrwt>
</event>
<event>
 4    1  0.1437859E-001  0.1235881E+03  0.7546771E-02  0.1237293E+00
         -1   -1    0    0    0  501 -0.00000000000E+00  0.00000000000E+00  0.85413621035E+02  0.85413621035E+02  0.00000000000E+00 0.  1.
          1   -1    0    0  501    0  0.00000000000E+00 -0.00000000000E+00 -0.17928149045E+03  0.17928149045E+03  0.00000000000E+00 0. -1.
         24    1    1    2    0    0  0.76977052229E+01  0.93528241256E+02 -0.53619759169E+02  0.13471852547E+03  0.80419002446E+02 0.  0.
        -24    1    1    2    0    0 -0.76977052229E+01 -0.93528241256E+02 -0.40248110246E+02  0.12997658601E+03  0.80419002446E+02 0.  0.
<mgrwt>
<rscale>  0 0.12358805E+03</rscale>
<asrwt>0</asrwt>
<pdfrwt beam="1">  1        1 0.27581768E-01 0.12358807E+03</pdfrwt>
<pdfrwt beam="2">  1       -1 0.13140557E-01 0.12358807E+03</pdfrwt>
<totfact> 0.63237735E+03</totfact>
</mgrwt>
</event>
<event>
 4    1  0.1437859E-001  0.9582103E+02  0.7546771E-02  0.1289338E+00
         -1   -1    0    0    0  501 -0.00000000000E+00  0.00000000000E+00  0.70212183841E+02  0.70212183841E+02  0.00000000000E+00 0.  1.
          1   -1    0    0  501    0  0.00000000000E+00 -0.00000000000E+00 -0.13392692478E+03  0.13392692478E+03  0.00000000000E+00 0. -1.
         24    1    1    2    0    0 -0.53118216116E+01  0.51828933689E+02 -0.16187249335E+02  0.97178684965E+02  0.80419002446E+02 0.  0.
        -24    1    1    2    0    0  0.53118216116E+01 -0.51828933689E+02 -0.47527491606E+02  0.10696042366E+03  0.80419002446E+02 0.  1.
<mgrwt>
<rscale>  0 0.95821030E+02</rscale>
<asrwt>0</asrwt>
<pdfrwt beam="1">  1        1 0.20604142E-01 0.95821030E+02</pdfrwt>
<pdfrwt beam="2">  1       -1 0.10801875E-01 0.95821030E+02</pdfrwt>
<totfact> 0.12042681E+04</totfact>
</mgrwt>
</event>
<event>
 4    1  0.1437859E-001  0.2435264E+03  0.7546771E-02  0.1117466E+00
          1   -1    0    0  501    0  0.00000000000E+00  0.00000000000E+00  0.46928545735E+02  0.46928545735E+02  0.00000000000E+00 0. -1.
         -1   -1    0    0    0  501 -0.00000000000E+00 -0.00000000000E+00 -0.36498215814E+04  0.36498215814E+04  0.00000000000E+00 0.  1.
         24    1    1    2    0    0  0.22420019292E+03  0.50716739522E+02 -0.32959523247E+04  0.33049367402E+04  0.80419002446E+02 0.  1.
        -24    1    1    2    0    0 -0.22420019292E+03 -0.50716739522E+02 -0.30694071099E+03  0.39181338695E+03  0.80419002446E+02 0. -1.
<mgrwt>
<rscale>  0 0.24352645E+03</rscale>
<asrwt>0</asrwt>
<pdfrwt beam="1">  1        1 0.72197774E-02 0.24352645E+03</pdfrwt>
<pdfrwt beam="2">  1       -1 0.56151092E+00 0.24352645E+03</pdfrwt>
<totfact> 0.78603711E-01</totfact>
</mgrwt>
</event>
<event>
 4    1  0.1437859E-001  0.9550735E+02  0.7546771E-02  0.1290037E+00
          2   -1    0    0  501    0  0.00000000000E+00  0.00000000000E+00  0.38740972921E+03  0.38740972921E+03  0.00000000000E+00 0. -1.
         -2   -1    0    0    0  501 -0.00000000000E+00 -0.00000000000E+00 -0.33663774192E+02  0.33663774192E+02  0.00000000000E+00 0.  1.
         24    1    1    2    0    0  0.30088853091E+02 -0.41822240318E+02  0.29229942521E+03  0.30750708739E+03  0.80419002446E+02 0. -1.
        -24    1    1    2    0    0 -0.30088853091E+02  0.41822240318E+02  0.61446529815E+02  0.11356641601E+03  0.80419002446E+02 0.  1.
<mgrwt>
<rscale>  0 0.95507355E+02</rscale>
<asrwt>0</asrwt>
<pdfrwt beam="1">  1        2 0.59601494E-01 0.95507355E+02</pdfrwt>
<pdfrwt beam="2">  1       -2 0.51790425E-02 0.95507355E+02</pdfrwt>
<totfact> 0.14032816E+04</totfact>
</mgrwt>
</event>
<event>
 4    1  0.1437859E-001  0.8868974E+02  0.7546771E-02  0.1306056E+00
         -2   -1    0    0    0  501 -0.00000000000E+00  0.00000000000E+00  0.29331889241E+02  0.29331889241E+02  0.00000000000E+00 0.  1.
          2   -1    0    0  501    0  0.00000000000E+00 -0.00000000000E+00 -0.28297884091E+03  0.28297884091E+03  0.00000000000E+00 0. -1.
         24    1    1    2    0    0 -0.16164965577E+02  0.33724578586E+02 -0.16254847187E+03  0.18516985439E+03  0.80419002446E+02 0. -1.
        -24    1    1    2    0    0  0.16164965577E+02 -0.33724578586E+02 -0.91098479793E+02  0.12714087576E+03  0.80419002446E+02 0.  0.
<mgrwt>
<rscale>  0 0.88689736E+02</rscale>
<asrwt>0</asrwt>
<pdfrwt beam="1">  1        2 0.43535206E-01 0.88689736E+02</pdfrwt>
<pdfrwt beam="2">  1       -2 0.45125984E-02 0.88689736E+02</pdfrwt>
<totfact> 0.23739949E+04</totfact>
</mgrwt>
</event>
<event>
 4    1  0.1437859E-001  0.1371394E+03  0.7546771E-02  0.1217231E+00
          1   -1    0    0  501    0  0.00000000000E+00  0.00000000000E+00  0.32909729209E+03  0.32909729209E+03  0.00000000000E+00 0. -1.
         -1   -1    0    0    0  501 -0.00000000000E+00 -0.00000000000E+00 -0.77406348171E+02  0.77406348171E+02  0.00000000000E+00 0.  1.
         24    1    1    2    0    0  0.90651988123E+02 -0.64204408975E+02  0.21865498915E+02  0.13887154165E+03  0.80419002446E+02 0.  1.
        -24    1    1    2    0    0 -0.90651988123E+02  0.64204408975E+02  0.22982544501E+03  0.26763209862E+03  0.80419002446E+02 0. -1.
<mgrwt>
<rscale>  0 0.13713936E+03</rscale>
<asrwt>0</asrwt>
<pdfrwt beam="1">  1        1 0.50630352E-01 0.13713936E+03</pdfrwt>
<pdfrwt beam="2">  1       -1 0.11908669E-01 0.13713936E+03</pdfrwt>
<totfact> 0.34927314E+03</totfact>
</mgrwt>
</event>
<event>
 4    1  0.1437859E-001  0.1234640E+03  0.7546771E-02  0.1237489E+00
          2   -1    0    0  501    0  0.00000000000E+00  0.00000000000E+00  0.17313116789E+03  0.17313116789E+03  0.00000000000E+00 0. -1.
         -2   -1    0    0    0  501 -0.00000000000E+00 -0.00000000000E+00 -0.18641602100E+03  0.18641602100E+03  0.00000000000E+00 0.  1.
         24    1    1    2    0    0  0.24363354628E+02 -0.90457604196E+02  0.12394983640E+03  0.17494836125E+03  0.80419002446E+02 0. -1.
        -24    1    1    2    0    0 -0.24363354628E+02  0.90457604196E+02 -0.13723468951E+03  0.18459882764E+03  0.80419002446E+02 0.  1.
<mgrwt>
<rscale>  0 0.12346403E+03</rscale>
<asrwt>0</asrwt>
<pdfrwt beam="1">  1        2 0.26635564E-01 0.12346403E+03</pdfrwt>
<pdfrwt beam="2">  1       -2 0.28679388E-01 0.12346403E+03</pdfrwt>
<totfact> 0.21511193E+03</totfact>
</mgrwt>
</event>
<event>
 4    1  0.1437859E-001  0.1034183E+03  0.7546771E-02  0.1273268E+00
          2   -1    0    0  501    0  0.00000000000E+00  0.00000000000E+00  0.36038086238E+03  0.36038086238E+03  0.00000000000E+00 0. -1.
         -2   -1    0    0    0  501 -0.00000000000E+00 -0.00000000000E+00 -0.36712118841E+02  0.36712118841E+02  0.00000000000E+00 0.  1.
         24    1    1    2    0    0 -0.13151547112E+02  0.63680218076E+02  0.24874347038E+03  0.26938571487E+03  0.80419002446E+02 0. -1.
        -24    1    1    2    0    0  0.13151547112E+02 -0.63680218076E+02  0.74925273151E+02  0.12770726634E+03  0.80419002446E+02 0.  1.
<mgrwt>
<rscale>  0 0.10341832E+03</rscale>
<asrwt>0</asrwt>
<pdfrwt beam="1">  1        2 0.55443207E-01 0.10341832E+03</pdfrwt>
<pdfrwt beam="2">  1       -2 0.56480185E-02 0.10341832E+03</pdfrwt>
<totfact> 0.13397028E+04</totfact>
</mgrwt>
</event>
<event>
 4    1  0.1437859E-001  0.1090421E+03  0.7546771E-02  0.1262354E+00
          2   -1    0    0  501    0  0.00000000000E+00  0.00000000000E+00  0.11164035437E+04  0.11164035437E+04  0.00000000000E+00 0. -1.
         -2   -1    0    0    0  501 -0.00000000000E+00 -0.00000000000E+00 -0.13569792397E+02  0.13569792397E+02  0.00000000000E+00 0.  1.
         24    1    1    2    0    0  0.56727365737E+02  0.46957099682E+02  0.81347372189E+03  0.82074945957E+03  0.80419002446E+02 0. -1.
        -24    1    1    2    0    0 -0.56727365737E+02 -0.46957099682E+02  0.28936002939E+03  0.30922387650E+03  0.80419002446E+02 0.  1.
<mgrwt>
<rscale>  0 0.10904210E+03</rscale>
<asrwt>0</asrwt>
<pdfrwt beam="1">  1        2 0.17175432E+00 0.10904210E+03</pdfrwt>
<pdfrwt beam="2">  1       -2 0.20876613E-02 0.10904210E+03</pdfrwt>
<totfact> 0.15343447E+04</totfact>
</mgrwt>
</event>
<event>
 4    1  0.1437859E-001  0.1372160E+03  0.7546771E-02  0.1217125E+00
          2   -1    0    0  501    0  0.00000000000E+00  0.00000000000E+00  0.30568852934E+04  0.30568852934E+04  0.00000000000E+00 0. -1.
         -2   -1    0    0    0  501 -0.00000000000E+00 -0.00000000000E+00 -0.66488167388E+01  0.66488167388E+01  0.00000000000E+00 0.  1.
         24    1    1    2    0    0 -0.51442785034E+02 -0.98562949965E+02  0.19407516659E+04  0.19455963765E+04  0.80419002446E+02 0. -1.
        -24    1    1    2    0    0  0.51442785034E+02  0.98562949965E+02  0.11094848107E+04  0.11179377337E+04  0.80419002446E+02 0.  1.
<mgrwt>
<rscale>  0 0.13721600E+03</rscale>
<asrwt>0</asrwt>
<pdfrwt beam="1">  1        2 0.47028892E+00 0.13721600E+03</pdfrwt>
<pdfrwt beam="2">  1       -2 0.10228973E-02 0.13721600E+03</pdfrwt>
<totfact> 0.40207223E+03</totfact>
</mgrwt>
</event>
<event>
 4    1  0.1437859E-001  0.8247554E+02  0.7546771E-02  0.1322169E+00
          1   -1    0    0  501    0  0.00000000000E+00  0.00000000000E+00  0.25272811950E+03  0.25272811950E+03  0.00000000000E+00 0. -1.
         -1   -1    0    0    0  501 -0.00000000000E+00 -0.00000000000E+00 -0.26937378345E+02  0.26937378345E+02  0.00000000000E+00 0.  1.
         24    1    1    2    0    0  0.16478052948E+02 -0.79669788416E+01  0.10887841721E+03  0.13658962138E+03  0.80419002446E+02 0.  0.
        -24    1    1    2    0    0 -0.16478052948E+02  0.79669788416E+01  0.11691232394E+03  0.14307587646E+03  0.80419002446E+02 0.  1.
<mgrwt>
<rscale>  0 0.82475541E+02</rscale>
<asrwt>0</asrwt>
<pdfrwt beam="1">  1        1 0.38881248E-01 0.82475541E+02</pdfrwt>
<pdfrwt beam="2">  1       -1 0.41442122E-02 0.82475541E+02</pdfrwt>
<totfact> 0.22394602E+04</totfact>
</mgrwt>
</event>
<event>
 4    1  0.1437859E-001  0.1075481E+03  0.7546771E-02  0.1265179E+00
         -2   -1    0    0    0  501 -0.00000000000E+00  0.00000000000E+00  0.12650049147E+02  0.12650049147E+02  0.00000000000E+00 0.  1.
          2   -1    0    0  501    0  0.00000000000E+00 -0.00000000000E+00 -0.11001375520E+04  0.11001375520E+04  0.00000000000E+00 0. -1.
         24    1    1    2    0    0 -0.70563911593E+02  0.10959153529E+02 -0.77239099414E+03  0.77984256902E+03  0.80419002446E+02 0. -1.
        -24    1    1    2    0    0  0.70563911593E+02 -0.10959153529E+02 -0.31509650874E+03  0.33294503216E+03  0.80419002446E+02 0.  0.
<mgrwt>
<rscale>  0 0.10754806E+03</rscale>
<asrwt>0</asrwt>
<pdfrwt beam="1">  1        2 0.16925196E+00 0.10754806E+03</pdfrwt>
<pdfrwt beam="2">  1       -2 0.19461611E-02 0.10754806E+03</pdfrwt>
<totfact> 0.17325272E+04</totfact>
</mgrwt>
</event>
<event>
 4    1  0.1437859E-001  0.2115579E+03  0.7546771E-02  0.1140338E+00
          1   -1    0    0  501    0  0.00000000000E+00  0.00000000000E+00  0.15037937192E+03  0.15037937192E+03  0.00000000000E+00 0. -1.
         -1   -1    0    0    0  501 -0.00000000000E+00 -0.00000000000E+00 -0.57928549601E+03  0.57928549601E+03  0.00000000000E+00 0.  1.
         24    1    1    2    0    0 -0.61967826062E+02 -0.18560586755E+03 -0.46884863250E+03  0.51436932810E+03  0.80419002446E+02 0.  1.
        -24    1    1    2    0    0  0.61967826062E+02  0.18560586755E+03  0.39942508414E+02  0.21529553983E+03  0.80419002446E+02 0. -1.
<mgrwt>
<rscale>  0 0.21155795E+03</rscale>
<asrwt>0</asrwt>
<pdfrwt beam="1">  1        1 0.23135288E-01 0.21155795E+03</pdfrwt>
<pdfrwt beam="2">  1       -1 0.89120845E-01 0.21155795E+03</pdfrwt>
<totfact> 0.27675191E+02</totfact>
</mgrwt>
</event>
<event>
 4    1  0.1437859E-001  0.9443538E+02  0.7546771E-02  0.1292453E+00
         -2   -1    0    0    0  501 -0.00000000000E+00  0.00000000000E+00  0.11442284371E+03  0.11442284371E+03  0.00000000000E+00 0.  1.
          2   -1    0    0  501    0  0.00000000000E+00 -0.00000000000E+00 -0.11063317054E+03  0.11063317054E+03  0.00000000000E+00 0. -1.
         24    1    1    2    0    0  0.43609258341E+02 -0.23431997275E+02 -0.59276898221E+02  0.11149794853E+03  0.80419002446E+02 0. -1.
        -24    1    1    2    0    0 -0.43609258341E+02  0.23431997275E+02  0.63066571393E+02  0.11355806572E+03  0.80419002446E+02 0.  1.
<mgrwt>
<rscale>  0 0.94435385E+02</rscale>
<asrwt>0</asrwt>
<pdfrwt beam="1">  1        2 0.17020488E-01 0.94435385E+02</pdfrwt>
<pdfrwt beam="2">  1       -2 0.17603515E-01 0.94435385E+02</pdfrwt>
<totfact> 0.80327583E+03</totfact>
</mgrwt>
</event>
<event>
 4    1  0.1437859E-001  0.1052732E+03  0.7546771E-02  0.1269582E+00
         -1   -1    0    0    0  501 -0.00000000000E+00  0.00000000000E+00  0.12627948713E+03  0.12627948713E+03  0.00000000000E+00 0.  1.
          1   -1    0    0  501    0  0.00000000000E+00 -0.00000000000E+00 -0.15378713530E+03  0.15378713530E+03  0.00000000000E+00 0. -1.
         24    1    1    2    0    0 -0.26393795600E+02 -0.62598736136E+02  0.78000883048E+02  0.13102132621E+03  0.80419002446E+02 0.  1.
        -24    1    1    2    0    0  0.26393795600E+02  0.62598736136E+02 -0.10550853121E+03  0.14904529622E+03  0.80419002446E+02 0. -1.
<mgrwt>
<rscale>  0 0.10527322E+03</rscale>
<asrwt>0</asrwt>
<pdfrwt beam="1">  1        1 0.23659559E-01 0.10527322E+03</pdfrwt>
<pdfrwt beam="2">  1       -1 0.19427613E-01 0.10527322E+03</pdfrwt>
<totfact> 0.41036914E+03</totfact>
</mgrwt>
</event>
<event>
 4    1  0.1437859E-001  0.1638112E+03  0.7546771E-02  0.1184460E+00
         -1   -1    0    0    0  501 -0.00000000000E+00  0.00000000000E+00  0.15839198377E+02  0.15839198377E+02  0.00000000000E+00 0.  1.
          1   -1    0    0  501    0  0.00000000000E+00 -0.00000000000E+00 -0.30987157593E+04  0.30987157593E+04  0.00000000000E+00 0. -1.
         24    1    1    2    0    0 -0.11261370212E+03  0.87664422921E+02 -0.49299521027E+03  0.51949821006E+03  0.80419002446E+02 0.  1.
        -24    1    1    2    0    0  0.11261370212E+03 -0.87664422921E+02 -0.25898813507E+04  0.25950567477E+04  0.80419002446E+02 0. -1.
<mgrwt>
<rscale>  0 0.16381121E+03</rscale>
<asrwt>0</asrwt>
<pdfrwt beam="1">  1        1 0.47672566E+00 0.16381121E+03</pdfrwt>
<pdfrwt beam="2">  1       -1 0.24367989E-02 0.16381121E+03</pdfrwt>
<totfact> 0.32532671E+02</totfact>
</mgrwt>
</event>
<event>
 4    1  0.1437859E-001  0.8160783E+02  0.7546771E-02  0.1324550E+00
          2   -1    0    0  501    0  0.00000000000E+00  0.00000000000E+00  0.13745110723E+04  0.13745110723E+04  0.00000000000E+00 0. -1.
         -2   -1    0    0    0  501 -0.00000000000E+00 -0.00000000000E+00 -0.35738951093E+02  0.35738951093E+02  0.00000000000E+00 0.  1.
         24    1    1    2    0    0  0.13523310182E+02  0.31211291122E+01  0.13249729392E+04  0.13274837577E+04  0.80419002446E+02 0. -1.
        -24    1    1    2    0    0 -0.13523310182E+02 -0.31211291122E+01  0.13799182046E+02  0.82766265741E+02  0.80419002446E+02 0.  1.
<mgrwt>
<rscale>  0 0.81607826E+02</rscale>
<asrwt>0</asrwt>
<pdfrwt beam="1">  1        2 0.21146320E+00 0.81607826E+02</pdfrwt>
<pdfrwt beam="2">  1       -2 0.54983012E-02 0.81607826E+02</pdfrwt>
<totfact> 0.26653627E+03</totfact>
</mgrwt>
</event>
<event>
 4    1  0.1437859E-001  0.8056839E+02  0.7546771E-02  0.1327446E+00
         -1   -1    0    0    0  501 -0.00000000000E+00  0.00000000000E+00  0.11732282973E+03  0.11732282973E+03  0.00000000000E+00 0.  1.
          1   -1    0    0  501    0  0.00000000000E+00 -0.00000000000E+00 -0.67535546895E+02  0.67535546895E+02  0.00000000000E+00 0. -1.
         24    1    1    2    0    0  0.30489553316E+01  0.38409307175E+01  0.64190061593E+02  0.10301276056E+03  0.80419002446E+02 0.  1.
        -24    1    1    2    0    0 -0.30489553316E+01 -0.38409307175E+01 -0.14402778761E+02  0.81845616057E+02  0.80419002446E+02 0.  0.
<mgrwt>
<rscale>  0 0.80568386E+02</rscale>
<asrwt>0</asrwt>
<pdfrwt beam="1">  1        1 0.10390084E-01 0.80568386E+02</pdfrwt>
<pdfrwt beam="2">  1       -1 0.18049666E-01 0.80568386E+02</pdfrwt>
<totfact> 0.12871902E+04</totfact>
</mgrwt>
</event>
<event>
 4    1  0.1437859E-001  0.1010253E+03  0.7546771E-02  0.1278155E+00
          3   -1    0    0  501    0  0.00000000000E+00  0.00000000000E+00  0.34025204941E+02  0.34025204941E+02  0.00000000000E+00 0. -1.
         -3   -1    0    0    0  501 -0.00000000000E+00 -0.00000000000E+00 -0.30789231281E+03  0.30789231281E+03  0.00000000000E+00 0.  1.
         24    1    1    2    0    0 -0.53085335370E+02 -0.30345314420E+02 -0.10948830798E+03  0.14897582514E+03  0.80419002446E+02 0.  1.
        -24    1    1    2    0    0  0.53085335370E+02  0.30345314420E+02 -0.16437879989E+03  0.19294169260E+03  0.80419002446E+02 0. -1.
<mgrwt>
<rscale>  0 0.10102529E+03</rscale>
<asrwt>0</asrwt>
<pdfrwt beam="1">  1        3 0.52346470E-02 0.10102530E+03</pdfrwt>
<pdfrwt beam="2">  1       -3 0.47368047E-01 0.10102530E+03</pdfrwt>
<totfact> 0.20472867E+03</totfact>
</mgrwt>
</event>
<event>
 4    1  0.1437859E-001  0.8895475E+02  0.7546771E-02  0.1305403E+00
         -3   -1    0    0    0  501 -0.00000000000E+00  0.00000000000E+00  0.29038802565E+02  0.29038802565E+02  0.00000000000E+00 0.  1.
          3   -1    0    0  501    0  0.00000000000E+00 -0.00000000000E+00 -0.29097905635E+03  0.29097905635E+03  0.00000000000E+00 0. -1.
         24    1    1    2    0    0  0.29504495094E+02 -0.23983670686E+02 -0.90642352698E+02  0.12699993601E+03  0.80419002446E+02 0. -1.
        -24    1    1    2    0    0 -0.29504495094E+02  0.23983670686E+02 -0.17129790109E+03  0.19301792291E+03  0.80419002446E+02 0.  0.
<mgrwt>
<rscale>  0 0.88954751E+02</rscale>
<asrwt>0</asrwt>
<pdfrwt beam="1">  1        3 0.44766009E-01 0.88954751E+02</pdfrwt>
<pdfrwt beam="2">  1       -3 0.44675081E-02 0.88954751E+02</pdfrwt>
<totfact> 0.28565764E+03</totfact>
</mgrwt>
</event>
<event>
 4    1  0.1437859E-001  0.1559083E+03  0.7546771E-02  0.1193395E+00
         -4   -1    0    0    0  501 -0.00000000000E+00  0.00000000000E+00  0.41722909553E+02  0.41722909553E+02  0.00000000000E+00 0.  1.
          4   -1    0    0  501    0  0.00000000000E+00 -0.00000000000E+00 -0.15799419588E+04  0.15799419588E+04  0.00000000000E+00 0. -1.
         24    1    1    2    0    0 -0.91207159141E+02  0.97577875877E+02 -0.14133299464E+04  0.14219032812E+04  0.80419002446E+02 0. -1.
        -24    1    1    2    0    0  0.91207159141E+02 -0.97577875877E+02 -0.12488910285E+03  0.19976158716E+03  0.80419002446E+02 0.  1.
<mgrwt>
<rscale>  0 0.15590832E+03</rscale>
<asrwt>0</asrwt>
<pdfrwt beam="1">  1        4 0.24306795E+00 0.15590832E+03</pdfrwt>
<pdfrwt beam="2">  1       -4 0.64189103E-02 0.15590832E+03</pdfrwt>
<totfact> 0.22029834E+01</totfact>
</mgrwt>
</event>
<event>
 4    1  0.1437859E-001  0.8914240E+02  0.7546771E-02  0.1304942E+00
          1   -1    0    0  501    0  0.00000000000E+00  0.00000000000E+00  0.39642534165E+02  0.39642534165E+02  0.00000000000E+00 0. -1.
         -1   -1    0    0    0  501 -0.00000000000E+00 -0.00000000000E+00 -0.31220341079E+03  0.31220341079E+03  0.00000000000E+00 0.  1.
         24    1    1    2    0    0  0.34192184456E+02  0.17608118248E+02 -0.24153309891E+03  0.25745796770E+03  0.80419002446E+02 0.  1.
        -24    1    1    2    0    0 -0.34192184456E+02 -0.17608118248E+02 -0.31027777709E+02  0.94387977254E+02  0.80419002446E+02 0. -1.
<mgrwt>
<rscale>  0 0.89142399E+02</rscale>
<asrwt>0</asrwt>
<pdfrwt beam="1">  1        1 0.60988512E-02 0.89142399E+02</pdfrwt>
<pdfrwt beam="2">  1       -1 0.48031296E-01 0.89142399E+02</pdfrwt>
<totfact> 0.51618731E+03</totfact>
</mgrwt>
</event>
<event>
 4    1  0.1437859E-001  0.9159631E+02  0.7546771E-02  0.1299031E+00
         -2   -1    0    0    0  501 -0.00000000000E+00  0.00000000000E+00  0.37903221560E+01  0.37903221560E+01  0.00000000000E+00 0.  1.
          2   -1    0    0  501    0  0.00000000000E+00 -0.00000000000E+00 -0.22230996932E+04  0.22230996932E+04  0.00000000000E+00 0. -1.
         24    1    1    2    0    0 -0.83511122124E+01 -0.43045641083E+02 -0.11828159586E+04  0.11863572295E+04  0.80419002446E+02 0.  0.
        -24    1    1    2    0    0  0.83511122124E+01  0.43045641083E+02 -0.10364934125E+04  0.10405327858E+04  0.80419002446E+02 0.  1.
<mgrwt>
<rscale>  0 0.91596311E+02</rscale>
<asrwt>0</asrwt>
<pdfrwt beam="1">  1        2 0.34201496E+00 0.91596311E+02</pdfrwt>
<pdfrwt beam="2">  1       -2 0.58312714E-03 0.91596311E+02</pdfrwt>
<totfact> 0.25029417E+04</totfact>
</mgrwt>
</event>
<event>
 4    1  0.1437859E-001  0.8049554E+02  0.7546771E-02  0.1327651E+00
          1   -1    0    0  501    0  0.00000000000E+00  0.00000000000E+00  0.12221850149E+04  0.12221850149E+04  0.00000000000E+00 0. -1.
         -1   -1    0    0    0  501 -0.00000000000E+00 -0.00000000000E+00 -0.85710905737E+01  0.85710905737E+01  0.00000000000E+00 0.  1.
         24    1    1    2    0    0  0.26806150735E+01  0.22651707041E+01  0.22673643617E+03  0.24060121392E+03  0.80419002446E+02 0.  1.
        -24    1    1    2    0    0 -0.26806150735E+01 -0.22651707041E+01  0.98687748813E+03  0.99015489153E+03  0.80419002446E+02 0.  0.
<mgrwt>
<rscale>  0 0.80495544E+02</rscale>
<asrwt>0</asrwt>
<pdfrwt beam="1">  1        1 0.18802833E+00 0.80495544E+02</pdfrwt>
<pdfrwt beam="2">  1       -1 0.13186303E-02 0.80495544E+02</pdfrwt>
<totfact> 0.12950640E+04</totfact>
</mgrwt>
</event>
<event>
 4    1  0.1437859E-001  0.1153890E+03  0.7546771E-02  0.1250904E+00
          2   -1    0    0  501    0  0.00000000000E+00  0.00000000000E+00  0.56706130291E+02  0.56706130291E+02  0.00000000000E+00 0. -1.
         -2   -1    0    0    0  501 -0.00000000000E+00 -0.00000000000E+00 -0.25663918663E+03  0.25663918663E+03  0.00000000000E+00 0.  1.
         24    1    1    2    0    0  0.69717237142E+02 -0.44574790441E+02 -0.14566968085E+03  0.18583400381E+03  0.80419002446E+02 0.  0.
        -24    1    1    2    0    0 -0.69717237142E+02  0.44574790441E+02 -0.54263375484E+02  0.12751131311E+03  0.80419002446E+02 0.  0.
<mgrwt>
<rscale>  0 0.11538901E+03</rscale>
<asrwt>0</asrwt>
<pdfrwt beam="1">  1        2 0.87240200E-02 0.11538903E+03</pdfrwt>
<pdfrwt beam="2">  1       -2 0.39482952E-01 0.11538903E+03</pdfrwt>
<totfact> 0.43789658E+03</totfact>
</mgrwt>
</event>
<event>
 4    1  0.1437859E-001  0.1025492E+03  0.7546771E-02  0.1275025E+00
          2   -1    0    0  501    0  0.00000000000E+00  0.00000000000E+00  0.48477610690E+03  0.48477610690E+03  0.00000000000E+00 0. -1.
         -2   -1    0    0    0  501 -0.00000000000E+00 -0.00000000000E+00 -0.23516172520E+02  0.23516172520E+02  0.00000000000E+00 0.  1.
         24    1    1    2    0    0 -0.41516770520E+02  0.48223230785E+02  0.30139063888E+03  0.31835931803E+03  0.80419002446E+02 0.  1.
        -24    1    1    2    0    0  0.41516770520E+02 -0.48223230785E+02  0.15986929550E+03  0.18993296139E+03  0.80419002446E+02 0. -1.
<mgrwt>
<rscale>  0 0.10254920E+03</rscale>
<asrwt>0</asrwt>
<pdfrwt beam="1">  1        2 0.74580932E-01 0.10254920E+03</pdfrwt>
<pdfrwt beam="2">  1       -2 0.36178731E-02 0.10254920E+03</pdfrwt>
<totfact> 0.18912174E+04</totfact>
</mgrwt>
</event>
<event>
 4    1  0.1437859E-001  0.1052862E+03  0.7546771E-02  0.1269557E+00
         -2   -1    0    0    0  501 -0.00000000000E+00  0.00000000000E+00  0.80305839834E+03  0.80305839834E+03  0.00000000000E+00 0.  1.
          2   -1    0    0  501    0  0.00000000000E+00 -0.00000000000E+00 -0.16898444626E+02  0.16898444626E+02  0.00000000000E+00 0. -1.
         24    1    1    2    0    0  0.43622623829E+02 -0.52106024045E+02  0.21763166832E+03  0.24176172166E+03  0.80419002446E+02 0. -1.
        -24    1    1    2    0    0 -0.43622623829E+02  0.52106024045E+02  0.56852828540E+03  0.57819512131E+03  0.80419002446E+02 0.  1.
<mgrwt>
<rscale>  0 0.10528621E+03</rscale>
<asrwt>0</asrwt>
<pdfrwt beam="1">  1        2 0.25997613E-02 0.10528621E+03</pdfrwt>
<pdfrwt beam="2">  1       -2 0.12354742E+00 0.10528621E+03</pdfrwt>
<totfact> 0.18550446E+03</totfact>
</mgrwt>
</event>
<event>
 4    1  0.1437859E-001  0.9616672E+02  0.7546771E-02  0.1288570E+00
         -1   -1    0    0    0  501 -0.00000000000E+00  0.00000000000E+00  0.20805973822E+02  0.20805973822E+02  0.00000000000E+00 0.  1.
          1   -1    0    0  501    0  0.00000000000E+00 -0.00000000000E+00 -0.61206363324E+03  0.61206363324E+03  0.00000000000E+00 0. -1.
         24    1    1    2    0    0  0.30766926642E+02 -0.42827728847E+02 -0.46120186946E+03  0.47112121422E+03  0.80419002446E+02 0. -1.
        -24    1    1    2    0    0 -0.30766926642E+02  0.42827728847E+02 -0.13005578996E+03  0.16174839285E+03  0.80419002446E+02 0.  1.
<mgrwt>
<rscale>  0 0.96166711E+02</rscale>
<asrwt>0</asrwt>
<pdfrwt beam="1">  1        1 0.94163626E-01 0.96166724E+02</pdfrwt>
<pdfrwt beam="2">  1       -1 0.32009194E-02 0.96166724E+02</pdfrwt>
<totfact> 0.10894591E+04</totfact>
</mgrwt>
</event>
<event>
 4    1  0.1437859E-001  0.1076998E+03  0.7546771E-02  0.1264890E+00
         -2   -1    0    0    0  501 -0.00000000000E+00  0.00000000000E+00  0.30453280639E+02  0.30453280639E+02  0.00000000000E+00 0.  1.
          2   -1    0    0  501    0  0.00000000000E+00 -0.00000000000E+00 -0.10677489444E+04  0.10677489444E+04  0.00000000000E+00 0. -1.
         24    1    1    2    0    0 -0.43635800958E+01  0.71505245297E+02 -0.95905308904E+03  0.96508138750E+03  0.80419002446E+02 0. -1.
        -24    1    1    2    0    0  0.43635800958E+01 -0.71505245297E+02 -0.78242574729E+02  0.13312083755E+03  0.80419002446E+02 0. -1.
<mgrwt>
<rscale>  0 0.10769985E+03</rscale>
<asrwt>0</asrwt>
<pdfrwt beam="1">  1        2 0.16426905E+00 0.10769985E+03</pdfrwt>
<pdfrwt beam="2">  1       -2 0.46851206E-02 0.10769985E+03</pdfrwt>
<totfact> 0.50029029E+03</totfact>
</mgrwt>
</event>
<event>
 4    1  0.1437859E-001  0.8585271E+02  0.7546771E-02  0.1313218E+00
          1   -1    0    0  501    0  0.00000000000E+00  0.00000000000E+00  0.46096768305E+02  0.46096768305E+02  0.00000000000E+00 0. -1.
         -1   -1    0    0    0  501 -0.00000000000E+00 -0.00000000000E+00 -0.25022356611E+03  0.25022356611E+03  0.00000000000E+00 0.  1.
         24    1    1    2    0    0  0.28707525390E+02 -0.89078075865E+01 -0.19108135245E+03  0.20948214783E+03  0.80419002446E+02 0.  1.
        -24    1    1    2    0    0 -0.28707525390E+02  0.89078075865E+01 -0.13045445348E+02  0.86838186581E+02  0.80419002446E+02 0. -1.
<mgrwt>
<rscale>  0 0.85852705E+02</rscale>
<asrwt>0</asrwt>
<pdfrwt beam="1">  1        1 0.70918105E-02 0.85852705E+02</pdfrwt>
<pdfrwt beam="2">  1       -1 0.38495934E-01 0.85852705E+02</pdfrwt>
<totfact> 0.62033500E+03</totfact>
</mgrwt>
</event>
<event>
 4    1  0.1437859E-001  0.1209181E+03  0.7546771E-02  0.1241590E+00
         -2   -1    0    0    0  501 -0.00000000000E+00  0.00000000000E+00  0.13958333411E+04  0.13958333411E+04  0.00000000000E+00 0.  1.
          2   -1    0    0  501    0  0.00000000000E+00 -0.00000000000E+00 -0.11001939701E+02  0.11001939701E+02  0.00000000000E+00 0. -1.
         24    1    1    2    0    0  0.36275766429E+02 -0.82692429833E+02  0.53845530929E+03  0.55186529628E+03  0.80419002446E+02 0.  0.
        -24    1    1    2    0    0 -0.36275766429E+02  0.82692429833E+02  0.84637609207E+03  0.85496998448E+03  0.80419002446E+02 0. -1.
<mgrwt>
<rscale>  0 0.12091809E+03</rscale>
<asrwt>0</asrwt>
<pdfrwt beam="1">  1        2 0.16926072E-02 0.12091809E+03</pdfrwt>
<pdfrwt beam="2">  1       -2 0.21474345E+00 0.12091809E+03</pdfrwt>
<totfact> 0.77884595E+02</totfact>
</mgrwt>
</event>
<event>
 4    1  0.1437859E-001  0.8557247E+02  0.7546771E-02  0.1313942E+00
          1   -1    0    0  501    0  0.00000000000E+00  0.00000000000E+00  0.85464928858E+02  0.85464928858E+02  0.00000000000E+00 0. -1.
         -1   -1    0    0    0  501 -0.00000000000E+00 -0.00000000000E+00 -0.86567474917E+02  0.86567474917E+02  0.00000000000E+00 0.  1.
         24    1    1    2    0    0 -0.14442761843E+02  0.25433023690E+02 -0.92597850804E+01  0.86072014254E+02  0.80419002446E+02 0.  0.
        -24    1    1    2    0    0  0.14442761843E+02 -0.25433023690E+02  0.81572390206E+01  0.85960389520E+02  0.80419002446E+02 0.  1.
<mgrwt>
<rscale>  0 0.85572472E+02</rscale>
<asrwt>0</asrwt>
<pdfrwt beam="1">  1        1 0.13148451E-01 0.85572472E+02</pdfrwt>
<pdfrwt beam="2">  1       -1 0.13318073E-01 0.85572472E+02</pdfrwt>
<totfact> 0.15304971E+04</totfact>
</mgrwt>
</event>
<event>
 4    1  0.1437859E-001  0.8075700E+02  0.7546771E-02  0.1326917E+00
          1   -1    0    0  501    0  0.00000000000E+00  0.00000000000E+00  0.35374238822E+03  0.35374238822E+03  0.00000000000E+00 0. -1.
         -1   -1    0    0    0  501 -0.00000000000E+00 -0.00000000000E+00 -0.33455106292E+02  0.33455106292E+02  0.00000000000E+00 0.  1.
         24    1    1    2    0    0  0.46614384745E+01 -0.57225434944E+01  0.30428884702E+02  0.86299533552E+02  0.80419002446E+02 0.  0.
        -24    1    1    2    0    0 -0.46614384745E+01  0.57225434944E+01  0.28985839722E+03  0.30089796096E+03  0.80419002446E+02 0. -1.
<mgrwt>
<rscale>  0 0.80756996E+02</rscale>
<asrwt>0</asrwt>
<pdfrwt beam="1">  1        1 0.54421903E-01 0.80756996E+02</pdfrwt>
<pdfrwt beam="2">  1       -1 0.51469397E-02 0.80756996E+02</pdfrwt>
<totfact> 0.10826016E+04</totfact>
</mgrwt>
</event>
<event>
 4    1  0.1437859E-001  0.1262668E+03  0.7546771E-02  0.1233103E+00
         -1   -1    0    0    0  501 -0.00000000000E+00  0.00000000000E+00  0.72856373070E+02  0.72856373070E+02  0.00000000000E+00 0.  1.
          1   -1    0    0  501    0  0.00000000000E+00 -0.00000000000E+00 -0.21894611465E+03  0.21894611465E+03  0.00000000000E+00 0. -1.
         24    1    1    2    0    0  0.40464711044E+02  0.88536421327E+02 -0.69714147796E+02  0.14423373079E+03  0.80419002446E+02 0.  1.
        -24    1    1    2    0    0 -0.40464711044E+02 -0.88536421327E+02 -0.76375593789E+02  0.14756875693E+03  0.80419002446E+02 0.  0.
<mgrwt>
<rscale>  0 0.12626681E+03</rscale>
<asrwt>0</asrwt>
<pdfrwt beam="1">  1        1 0.33684017E-01 0.12626681E+03</pdfrwt>
<pdfrwt beam="2">  1       -1 0.11208673E-01 0.12626681E+03</pdfrwt>
<totfact> 0.63150710E+03</totfact>
</mgrwt>
</event>
<event>
 4    1  0.1437859E-001  0.8219152E+02  0.7546771E-02  0.1322945E+00
          4   -1    0    0  501    0  0.00000000000E+00  0.00000000000E+00  0.29312267046E+02  0.29312267046E+02  0.00000000000E+00 0. -1.
         -4   -1    0    0    0  501 -0.00000000000E+00 -0.00000000000E+00 -0.24379546810E+03  0.24379546810E+03  0.00000000000E+00 0.  1.
         24    1    1    2    0    0 -0.54233762380E+01  0.16087798803E+02 -0.75310279487E+02  0.11147683361E+03  0.80419002446E+02 0.  1.
        -24    1    1    2    0    0  0.54233762380E+01 -0.16087798803E+02 -0.13917292156E+03  0.16163090153E+03  0.80419002446E+02 0. -1.
<mgrwt>
<rscale>  0 0.82191522E+02</rscale>
<asrwt>0</asrwt>
<pdfrwt beam="1">  1        4 0.45095793E-02 0.82191522E+02</pdfrwt>
<pdfrwt beam="2">  1       -4 0.37506997E-01 0.82191522E+02</pdfrwt>
<totfact> 0.28072011E+03</totfact>
</mgrwt>
</event>
<event>
 4    1  0.1437859E-001  0.9339892E+02  0.7546771E-02  0.1294823E+00
         -1   -1    0    0    0  501 -0.00000000000E+00  0.00000000000E+00  0.11256969704E+02  0.11256969704E+02  0.00000000000E+00 0.  1.
          1   -1    0    0  501    0  0.00000000000E+00 -0.00000000000E+00 -0.78410281999E+03  0.78410281999E+03  0.00000000000E+00 0. -1.
         24    1    1    2    0    0  0.14709883004E+02  0.45163679557E+02 -0.42943767717E+03  0.43947704506E+03  0.80419002446E+02 0.  0.
        -24    1    1    2    0    0 -0.14709883004E+02 -0.45163679557E+02 -0.34340817311E+03  0.35588274463E+03  0.80419002446E+02 0. -1.
<mgrwt>
<rscale>  0 0.93398912E+02</rscale>
<asrwt>0</asrwt>
<pdfrwt beam="1">  1        1 0.12063119E+00 0.93398924E+02</pdfrwt>
<pdfrwt beam="2">  1       -1 0.17318417E-02 0.93398924E+02</pdfrwt>
<totfact> 0.18509137E+04</totfact>
</mgrwt>
</event>
<event>
 4    1  0.1437859E-001  0.1023792E+03  0.7546771E-02  0.1275371E+00
          2   -1    0    0  501    0  0.00000000000E+00  0.00000000000E+00  0.13195045064E+04  0.13195045064E+04  0.00000000000E+00 0. -1.
         -2   -1    0    0    0  501 -0.00000000000E+00 -0.00000000000E+00 -0.10081024754E+02  0.10081024754E+02  0.00000000000E+00 0.  1.
         24    1    1    2    0    0 -0.11510829902E+02  0.62303981520E+02  0.96082926653E+03  0.96626827574E+03  0.80419002446E+02 0. -1.
        -24    1    1    2    0    0  0.11510829902E+02 -0.62303981520E+02  0.34859421511E+03  0.36331725541E+03  0.80419002446E+02 0.  1.
<mgrwt>
<rscale>  0 0.10237920E+03</rscale>
<asrwt>0</asrwt>
<pdfrwt beam="1">  1        2 0.20300056E+00 0.10237920E+03</pdfrwt>
<pdfrwt beam="2">  1       -2 0.15509279E-02 0.10237920E+03</pdfrwt>
<totfact> 0.18155706E+04</totfact>
</mgrwt>
</event>
<event>
 4    1  0.1437859E-001  0.2007890E+03  0.7546771E-02  0.1149075E+00
          2   -1    0    0  501    0  0.00000000000E+00  0.00000000000E+00  0.10941961059E+04  0.10941961059E+04  0.00000000000E+00 0. -1.
         -2   -1    0    0    0  501 -0.00000000000E+00 -0.00000000000E+00 -0.11638531049E+03  0.11638531049E+03  0.00000000000E+00 0.  1.
         24    1    1    2    0    0  0.54297206559E+02  0.17578633313E+03  0.98929365702E+03  0.10094643022E+04  0.80419002446E+02 0. -1.
        -24    1    1    2    0    0 -0.54297206559E+02 -0.17578633313E+03 -0.11482861645E+02  0.20111711420E+03  0.80419002446E+02 0.  1.
<mgrwt>
<rscale>  0 0.20078904E+03</rscale>
<asrwt>0</asrwt>
<pdfrwt beam="1">  1        2 0.16833786E+00 0.20078904E+03</pdfrwt>
<pdfrwt beam="2">  1       -2 0.17905433E-01 0.20078904E+03</pdfrwt>
<totfact> 0.59146986E+02</totfact>
</mgrwt>
</event>
<event>
 4    1  0.1437859E-001  0.8513227E+02  0.7546771E-02  0.1315087E+00
         -2   -1    0    0    0  501 -0.00000000000E+00  0.00000000000E+00  0.15002160248E+02  0.15002160248E+02  0.00000000000E+00 0.  1.
          2   -1    0    0  501    0  0.00000000000E+00 -0.00000000000E+00 -0.77424419905E+03  0.77424419905E+03  0.00000000000E+00 0. -1.
         24    1    1    2    0    0  0.14501177809E+02  0.23874743913E+02 -0.62161227675E+03  0.62741479590E+03  0.80419002446E+02 0. -1.
        -24    1    1    2    0    0 -0.14501177809E+02 -0.23874743913E+02 -0.13762976205E+03  0.16183156340E+03  0.80419002446E+02 0.  1.
<mgrwt>
<rscale>  0 0.85132271E+02</rscale>
<asrwt>0</asrwt>
<pdfrwt beam="1">  1        2 0.11911447E+00 0.85132271E+02</pdfrwt>
<pdfrwt beam="2">  1       -2 0.23080250E-02 0.85132271E+02</pdfrwt>
<totfact> 0.21028021E+04</totfact>
</mgrwt>
</event>
<event>
 4    1  0.1437859E-001  0.1169956E+03  0.7546771E-02  0.1248137E+00
         -1   -1    0    0    0  501 -0.00000000000E+00  0.00000000000E+00  0.42841608696E+02  0.42841608696E+02  0.00000000000E+00 0.  1.
          1   -1    0    0  501    0  0.00000000000E+00 -0.00000000000E+00 -0.39699743859E+03  0.39699743859E+03  0.00000000000E+00 0. -1.
         24    1    1    2    0    0  0.35848581318E+02  0.77043060437E+02 -0.79913186200E+02  0.14168305201E+03  0.80419002446E+02 0.  1.
        -24    1    1    2    0    0 -0.35848581318E+02 -0.77043060437E+02 -0.27424264370E+03  0.29815599528E+03  0.80419002446E+02 0. -1.
<mgrwt>
<rscale>  0 0.11699560E+03</rscale>
<asrwt>0</asrwt>
<pdfrwt beam="1">  1        1 0.61076532E-01 0.11699560E+03</pdfrwt>
<pdfrwt beam="2">  1       -1 0.65910164E-02 0.11699560E+03</pdfrwt>
<totfact> 0.67094606E+03</totfact>
</mgrwt>
</event>
<event>
 4    1  0.1437859E-001  0.8261706E+02  0.7546771E-02  0.1321784E+00
          2   -1    0    0  501    0  0.00000000000E+00  0.00000000000E+00  0.79723641768E+02  0.79723641768E+02  0.00000000000E+00 0. -1.
         -2   -1    0    0    0  501 -0.00000000000E+00 -0.00000000000E+00 -0.11223064911E+03  0.11223064911E+03  0.00000000000E+00 0.  1.
         24    1    1    2    0    0  0.72025010679E+01  0.17506770845E+02  0.30485192112E+02  0.88062057320E+02  0.80419002446E+02 0.  0.
        -24    1    1    2    0    0 -0.72025010679E+01 -0.17506770845E+02 -0.62992199452E+02  0.10389223356E+03  0.80419002446E+02 0.  1.
<mgrwt>
<rscale>  0 0.82617062E+02</rscale>
<asrwt>0</asrwt>
<pdfrwt beam="1">  1        2 0.12265176E-01 0.82617062E+02</pdfrwt>
<pdfrwt beam="2">  1       -2 0.17266254E-01 0.82617062E+02</pdfrwt>
<totfact> 0.11974788E+04</totfact>
</mgrwt>
</event>
<event>
 4    1  0.1437859E-001  0.8823108E+02  0.7546771E-02  0.1307193E+00
         -2   -1    0    0    0  501 -0.00000000000E+00  0.00000000000E+00  0.26924266234E+03  0.26924266234E+03  0.00000000000E+00 0.  1.
          2   -1    0    0  501    0  0.00000000000E+00 -0.00000000000E+00 -0.40476182992E+03  0.40476182992E+03  0.00000000000E+00 0. -1.
         24    1    1    2    0    0 -0.19338460797E+02  0.30716954069E+02 -0.39250227463E+03  0.40229685417E+03  0.80419002446E+02 0. -1.
        -24    1    1    2    0    0  0.19338460797E+02 -0.30716954069E+02  0.25698310705E+03  0.27170763809E+03  0.80419002446E+02 0.  1.
<mgrwt>
<rscale>  0 0.88231079E+02</rscale>
<asrwt>0</asrwt>
<pdfrwt beam="1">  1        2 0.62271050E-01 0.88231079E+02</pdfrwt>
<pdfrwt beam="2">  1       -2 0.41421948E-01 0.88231079E+02</pdfrwt>
<totfact> 0.44210385E+02</totfact>
</mgrwt>
</event>
<event>
 4    1  0.1437859E-001  0.1129246E+03  0.7546771E-02  0.1255248E+00
          2   -1    0    0  501    0  0.00000000000E+00  0.00000000000E+00  0.33517842346E+04  0.33517842346E+04  0.00000000000E+00 0. -1.
         -2   -1    0    0    0  501 -0.00000000000E+00 -0.00000000000E+00 -0.95969811196E+01  0.95969811196E+01  0.00000000000E+00 0.  1.
         24    1    1    2    0    0  0.77220584647E+02  0.17937109592E+02  0.29768180276E+04  0.29789591377E+04  0.80419002446E+02 0. -1.
        -24    1    1    2    0    0 -0.77220584647E+02 -0.17937109592E+02  0.36536922587E+03  0.38242207803E+03  0.80419002446E+02 0.  1.
<mgrwt>
<rscale>  0 0.11292464E+03</rscale>
<asrwt>0</asrwt>
<pdfrwt beam="1">  1        2 0.51565818E+00 0.11292464E+03</pdfrwt>
<pdfrwt beam="2">  1       -2 0.14764613E-02 0.11292464E+03</pdfrwt>
<totfact> 0.15869780E+03</totfact>
</mgrwt>
</event>
<event>
 4    1  0.1437859E-001  0.1125952E+03  0.7546771E-02  0.1255838E+00
          2   -1    0    0  501    0  0.00000000000E+00  0.00000000000E+00  0.11549455086E+04  0.11549455086E+04  0.00000000000E+00 0. -1.
         -2   -1    0    0    0  501 -0.00000000000E+00 -0.00000000000E+00 -0.17206311634E+02  0.17206311634E+02  0.00000000000E+00 0.  1.
         24    1    1    2    0    0 -0.65587922113E+02 -0.43688466772E+02  0.92151232783E+03  0.92836557668E+03  0.80419002446E+02 0. -1.
        -24    1    1    2    0    0  0.65587922113E+02  0.43688466772E+02  0.21622686910E+03  0.24378624352E+03  0.80419002446E+02 0.  1.
<mgrwt>
<rscale>  0 0.11259518E+03</rscale>
<asrwt>0</asrwt>
<pdfrwt beam="1">  1        2 0.17768386E+00 0.11259518E+03</pdfrwt>
<pdfrwt beam="2">  1       -2 0.26471258E-02 0.11259518E+03</pdfrwt>
<totfact> 0.10366489E+04</totfact>
</mgrwt>
</event>
<event>
 4    1  0.1437859E-001  0.8725577E+02  0.7546771E-02  0.1309637E+00
          1   -1    0    0  501    0  0.00000000000E+00  0.00000000000E+00  0.46235224876E+03  0.46235224876E+03  0.00000000000E+00 0. -1.
         -1   -1    0    0    0  501 -0.00000000000E+00 -0.00000000000E+00 -0.54445049455E+02  0.54445049455E+02  0.00000000000E+00 0.  1.
         24    1    1    2    0    0 -0.19616075932E+02 -0.27596443699E+02 -0.11859188372E+02  0.88057994771E+02  0.80419002446E+02 0.  1.
        -24    1    1    2    0    0  0.19616075932E+02  0.27596443699E+02  0.41976638767E+03  0.42873930344E+03  0.80419002446E+02 0. -1.
<mgrwt>
<rscale>  0 0.87255774E+02</rscale>
<asrwt>0</asrwt>
<pdfrwt beam="1">  1        1 0.71131113E-01 0.87255774E+02</pdfrwt>
<pdfrwt beam="2">  1       -1 0.83761618E-02 0.87255774E+02</pdfrwt>
<totfact> 0.38049331E+03</totfact>
</mgrwt>
</event>
<event>
 4    1  0.1437859E-001  0.9502508E+02  0.7546771E-02  0.1291120E+00
         -1   -1    0    0    0  501 -0.00000000000E+00  0.00000000000E+00  0.32621623121E+03  0.32621623121E+03  0.00000000000E+00 0.  1.
          1   -1    0    0  501    0  0.00000000000E+00 -0.00000000000E+00 -0.31142307470E+02  0.31142307470E+02  0.00000000000E+00 0. -1.
         24    1    1    2    0    0 -0.16474886140E+02  0.47865731975E+02  0.20711170810E+03  0.22787063382E+03  0.80419002446E+02 0.  1.
        -24    1    1    2    0    0  0.16474886140E+02 -0.47865731975E+02  0.87962215645E+02  0.12948790486E+03  0.80419002446E+02 0. -1.
<mgrwt>
<rscale>  0 0.95025082E+02</rscale>
<asrwt>0</asrwt>
<pdfrwt beam="1">  1        1 0.47911245E-02 0.95025082E+02</pdfrwt>
<pdfrwt beam="2">  1       -1 0.50187110E-01 0.95025082E+02</pdfrwt>
<totfact> 0.66375392E+03</totfact>
</mgrwt>
</event>
<event>
 4    1  0.1437859E-001  0.8276071E+02  0.7546771E-02  0.1321395E+00
          1   -1    0    0  501    0  0.00000000000E+00  0.00000000000E+00  0.13856070952E+03  0.13856070952E+03  0.00000000000E+00 0. -1.
         -1   -1    0    0    0  501 -0.00000000000E+00 -0.00000000000E+00 -0.55010916349E+02  0.55010916349E+02  0.00000000000E+00 0.  1.
         24    1    1    2    0    0 -0.13213960332E+01 -0.19503151711E+02  0.10952838656E+02  0.83482331323E+02  0.80419002446E+02 0.  0.
        -24    1    1    2    0    0  0.13213960332E+01  0.19503151711E+02  0.72596954513E+02  0.11008929454E+03  0.80419002446E+02 0.  0.
<mgrwt>
<rscale>  0 0.82760709E+02</rscale>
<asrwt>0</asrwt>
<pdfrwt beam="1">  1        1 0.21317032E-01 0.82760709E+02</pdfrwt>
<pdfrwt beam="2">  1       -1 0.84632180E-02 0.82760709E+02</pdfrwt>
<totfact> 0.16413925E+04</totfact>
</mgrwt>
</event>
<event>
 4    1  0.1437859E-001  0.8964514E+02  0.7546771E-02  0.1303713E+00
         -2   -1    0    0    0  501 -0.00000000000E+00  0.00000000000E+00  0.15619592972E+03  0.15619592972E+03  0.00000000000E+00 0.  1.
          2   -1    0    0  501    0  0.00000000000E+00 -0.00000000000E+00 -0.31965896140E+03  0.31965896140E+03  0.00000000000E+00 0. -1.
         24    1    1    2    0    0  0.37049128002E+02  0.14014149814E+02 -0.29967199401E+03  0.31279314927E+03  0.80419002446E+02 0. -1.
        -24    1    1    2    0    0 -0.37049128002E+02 -0.14014149814E+02  0.13620896233E+03  0.16306174185E+03  0.80419002446E+02 0.  1.
<mgrwt>
<rscale>  0 0.89645135E+02</rscale>
<asrwt>0</asrwt>
<pdfrwt beam="1">  1        2 0.49178301E-01 0.89645135E+02</pdfrwt>
<pdfrwt beam="2">  1       -2 0.24030143E-01 0.89645135E+02</pdfrwt>
<totfact> 0.15080839E+03</totfact>
</mgrwt>
</event>
<event>
 4    1  0.1437859E-001  0.1837542E+03  0.7546771E-02  0.1164218E+00
          2   -1    0    0  501    0  0.00000000000E+00  0.00000000000E+00  0.24397577596E+04  0.24397577596E+04  0.00000000000E+00 0. -1.
         -2   -1    0    0    0  501 -0.00000000000E+00 -0.00000000000E+00 -0.35813502768E+02  0.35813502768E+02  0.00000000000E+00 0.  1.
         24    1    1    2    0    0 -0.63162315172E+02  0.15267256412E+03  0.21715312176E+04  0.21792919572E+04  0.80419002446E+02 0. -1.
        -24    1    1    2    0    0  0.63162315172E+02 -0.15267256412E+03  0.23241303923E+03  0.29627930513E+03  0.80419002446E+02 0.  1.
<mgrwt>
<rscale>  0 0.18375420E+03</rscale>
<asrwt>0</asrwt>
<pdfrwt beam="1">  1        2 0.37534722E+00 0.18375420E+03</pdfrwt>
<pdfrwt beam="2">  1       -2 0.55097716E-02 0.18375420E+03</pdfrwt>
<totfact> 0.74355992E+02</totfact>
</mgrwt>
</event>
<event>
 4    1  0.1437859E-001  0.8850635E+02  0.7546771E-02  0.1306510E+00
         -3   -1    0    0    0  501 -0.00000000000E+00  0.00000000000E+00  0.44212618961E+02  0.44212618961E+02  0.00000000000E+00 0.  1.
          3   -1    0    0  501    0  0.00000000000E+00 -0.00000000000E+00 -0.19773008201E+03  0.19773008201E+03  0.00000000000E+00 0. -1.
         24    1    1    2    0    0  0.27805852555E+02 -0.24351445669E+02 -0.37755111341E+02  0.96222776562E+02  0.80419002446E+02 0.  1.
        -24    1    1    2    0    0 -0.27805852555E+02  0.24351445669E+02 -0.11576235171E+03  0.14571992441E+03  0.80419002446E+02 0. -1.
<mgrwt>
<rscale>  0 0.88506352E+02</rscale>
<asrwt>0</asrwt>
<pdfrwt beam="1">  1        3 0.30420013E-01 0.88506352E+02</pdfrwt>
<pdfrwt beam="2">  1       -3 0.68019413E-02 0.88506352E+02</pdfrwt>
<totfact> 0.30491587E+03</totfact>
</mgrwt>
</event>
<event>
 4    1  0.1437859E-001  0.1074557E+03  0.7546771E-02  0.1265355E+00
          2   -1    0    0  501    0  0.00000000000E+00  0.00000000000E+00  0.37049437465E+03  0.37049437465E+03  0.00000000000E+00 0. -1.
         -2   -1    0    0    0  501 -0.00000000000E+00 -0.00000000000E+00 -0.33545122722E+02  0.33545122722E+02  0.00000000000E+00 0.  1.
         24    1    1    2    0    0  0.53836961218E+02 -0.46702229492E+02  0.22227818214E+03  0.24688929268E+03  0.80419002446E+02 0. -1.
        -24    1    1    2    0    0 -0.53836961218E+02  0.46702229492E+02  0.11467106979E+03  0.15715020469E+03  0.80419002446E+02 0.  1.
<mgrwt>
<rscale>  0 0.10745572E+03</rscale>
<asrwt>0</asrwt>
<pdfrwt beam="1">  1        2 0.56999132E-01 0.10745572E+03</pdfrwt>
<pdfrwt beam="2">  1       -2 0.51607884E-02 0.10745572E+03</pdfrwt>
<totfact> 0.14944999E+04</totfact>
</mgrwt>
</event>
<event>
 4    1  0.1437859E-001  0.1077106E+03  0.7546771E-02  0.1264869E+00
         -1   -1    0    0    0  501 -0.00000000000E+00  0.00000000000E+00  0.80352546854E+02  0.80352546854E+02  0.00000000000E+00 0.  1.
          1   -1    0    0  501    0  0.00000000000E+00 -0.00000000000E+00 -0.21505450052E+03  0.21505450052E+03  0.00000000000E+00 0. -1.
         24    1    1    2    0    0 -0.50293712915E+02  0.51038313301E+02  0.17320506961E+02  0.10909437611E+03  0.80419002446E+02 0.  1.
        -24    1    1    2    0    0  0.50293712915E+02 -0.51038313301E+02 -0.15202246063E+03  0.18631267126E+03  0.80419002446E+02 0. -1.
<mgrwt>
<rscale>  0 0.10771064E+03</rscale>
<asrwt>0</asrwt>
<pdfrwt beam="1">  1        1 0.33085307E-01 0.10771064E+03</pdfrwt>
<pdfrwt beam="2">  1       -1 0.12361930E-01 0.10771064E+03</pdfrwt>
<totfact> 0.54959419E+03</totfact>
</mgrwt>
</event>
<event>
 4    1  0.1437859E-001  0.1455448E+03  0.7546771E-02  0.1206057E+00
          2   -1    0    0  501    0  0.00000000000E+00  0.00000000000E+00  0.42913515299E+03  0.42913515299E+03  0.00000000000E+00 0. -1.
         -2   -1    0    0    0  501 -0.00000000000E+00 -0.00000000000E+00 -0.54888560804E+02  0.54888560804E+02  0.00000000000E+00 0.  1.
         24    1    1    2    0    0 -0.32438983635E+02 -0.11689223713E+03  0.26391124130E+03  0.30138420994E+03  0.80419002446E+02 0.  0.
        -24    1    1    2    0    0  0.32438983635E+02  0.11689223713E+03  0.11033535088E+03  0.18263950385E+03  0.80419002446E+02 0.  1.
<mgrwt>
<rscale>  0 0.14554483E+03</rscale>
<asrwt>0</asrwt>
<pdfrwt beam="1">  1        2 0.66020791E-01 0.14554483E+03</pdfrwt>
<pdfrwt beam="2">  1       -2 0.84443942E-02 0.14554483E+03</pdfrwt>
<totfact> 0.61734120E+03</totfact>
</mgrwt>
</event>
<event>
 4    1  0.1437859E-001  0.1166822E+03  0.7546771E-02  0.1248673E+00
          1   -1    0    0  501    0  0.00000000000E+00  0.00000000000E+00  0.63456222889E+03  0.63456222889E+03  0.00000000000E+00 0. -1.
         -1   -1    0    0    0  501 -0.00000000000E+00 -0.00000000000E+00 -0.53575086938E+02  0.53575086938E+02  0.00000000000E+00 0.  1.
         24    1    1    2    0    0  0.81806851544E+02 -0.21334466035E+02  0.24083979416E+02  0.11914182481E+03  0.80419002446E+02 0.  1.
        -24    1    1    2    0    0 -0.81806851544E+02  0.21334466035E+02  0.55690316254E+03  0.56899549102E+03  0.80419002446E+02 0. -1.
<mgrwt>
<rscale>  0 0.11668220E+03</rscale>
<asrwt>0</asrwt>
<pdfrwt beam="1">  1        1 0.97624953E-01 0.11668220E+03</pdfrwt>
<pdfrwt beam="2">  1       -1 0.82423215E-02 0.11668220E+03</pdfrwt>
<totfact> 0.26050099E+03</totfact>
</mgrwt>
</event>
<event>
 4    1  0.1437859E-001  0.8740447E+02  0.7546771E-02  0.1309262E+00
          1   -1    0    0  501    0  0.00000000000E+00  0.00000000000E+00  0.93562410035E+03  0.93562410035E+03  0.00000000000E+00 0. -1.
         -1   -1    0    0    0  501 -0.00000000000E+00 -0.00000000000E+00 -0.90210507556E+01  0.90210507556E+01  0.00000000000E+00 0.  1.
         24    1    1    2    0    0  0.12082913893E+02 -0.32036374283E+02  0.31781811810E+03  0.32961780631E+03  0.80419002446E+02 0. -1.
        -24    1    1    2    0    0 -0.12082913893E+02  0.32036374283E+02  0.60878493149E+03  0.61502734480E+03  0.80419002446E+02 0.  0.
<mgrwt>
<rscale>  0 0.87404474E+02</rscale>
<asrwt>0</asrwt>
<pdfrwt beam="1">  1        1 0.14394209E+00 0.87404474E+02</pdfrwt>
<pdfrwt beam="2">  1       -1 0.13878547E-02 0.87404474E+02</pdfrwt>
<totfact> 0.19226972E+04</totfact>
</mgrwt>
</event>
<event>
 4    1  0.1437859E-001  0.3352832E+03  0.7546771E-02  0.1068823E+00
          2   -1    0    0  501    0  0.00000000000E+00  0.00000000000E+00  0.12613999484E+04  0.12613999484E+04  0.00000000000E+00 0. -1.
         -2   -1    0    0    0  501 -0.00000000000E+00 -0.00000000000E+00 -0.89510814642E+02  0.89510814642E+02  0.00000000000E+00 0.  1.
         24    1    1    2    0    0 -0.30885660893E+03 -0.10273816569E+03  0.54125794941E+03  0.63669059937E+03  0.80419002446E+02 0. -1.
        -24    1    1    2    0    0  0.30885660893E+03  0.10273816569E+03  0.63063118433E+03  0.71422016366E+03  0.80419002446E+02 0.  1.
<mgrwt>
<rscale>  0 0.33528313E+03</rscale>
<asrwt>0</asrwt>
<pdfrwt beam="1">  1        2 0.19406152E+00 0.33528318E+03</pdfrwt>
<pdfrwt beam="2">  1       -2 0.13770895E-01 0.33528318E+03</pdfrwt>
<totfact> 0.72613286E+02</totfact>
</mgrwt>
</event>
<event>
 4    1  0.1437859E-001  0.1165766E+03  0.7546771E-02  0.1248854E+00
          2   -1    0    0  501    0  0.00000000000E+00  0.00000000000E+00  0.31122899429E+03  0.31122899429E+03  0.00000000000E+00 0. -1.
         -2   -1    0    0    0  501 -0.00000000000E+00 -0.00000000000E+00 -0.51113336732E+02  0.51113336732E+02  0.00000000000E+00 0.  1.
         24    1    1    2    0    0 -0.82343572180E+02  0.18504646166E+02  0.19921299968E+03  0.23081577287E+03  0.80419002446E+02 0. -1.
        -24    1    1    2    0    0  0.82343572180E+02 -0.18504646166E+02  0.60902657881E+02  0.13152655816E+03  0.80419002446E+02 0.  1.
<mgrwt>
<rscale>  0 0.11657659E+03</rscale>
<asrwt>0</asrwt>
<pdfrwt beam="1">  1        2 0.47881382E-01 0.11657659E+03</pdfrwt>
<pdfrwt beam="2">  1       -2 0.78635905E-02 0.11657659E+03</pdfrwt>
<totfact> 0.95550693E+03</totfact>
</mgrwt>
</event>
<event>
 4    1  0.1437859E-001  0.1026145E+03  0.7546771E-02  0.1274892E+00
          2   -1    0    0  501    0  0.00000000000E+00  0.00000000000E+00  0.12531208928E+03  0.12531208928E+03  0.00000000000E+00 0. -1.
         -2   -1    0    0    0  501 -0.00000000000E+00 -0.00000000000E+00 -0.90519924970E+02  0.90519924970E+02  0.00000000000E+00 0.  1.
         24    1    1    2    0    0 -0.16316479323E+02 -0.61614114170E+02  0.46295935727E+02  0.11257466936E+03  0.80419002446E+02 0. -1.
        -24    1    1    2    0    0  0.16316479323E+02  0.61614114170E+02 -0.11503771416E+02  0.10325734489E+03  0.80419002446E+02 0.  0.
<mgrwt>
<rscale>  0 0.10261453E+03</rscale>
<asrwt>0</asrwt>
<pdfrwt beam="1">  1        2 0.19278783E-01 0.10261453E+03</pdfrwt>
<pdfrwt beam="2">  1       -2 0.13926142E-01 0.10261453E+03</pdfrwt>
<totfact> 0.10292324E+04</totfact>
</mgrwt>
</event>
<event>
 4    1  0.1437859E-001  0.9671059E+02  0.7546771E-02  0.1287369E+00
          3   -1    0    0  501    0  0.00000000000E+00  0.00000000000E+00  0.15694767250E+03  0.15694767250E+03  0.00000000000E+00 0. -1.
         -3   -1    0    0    0  501 -0.00000000000E+00 -0.00000000000E+00 -0.59688962599E+02  0.59688962599E+02  0.00000000000E+00 0.  1.
         24    1    1    2    0    0 -0.40529135854E+02  0.35257795769E+02  0.44279901264E+02  0.10636563649E+03  0.80419002446E+02 0.  1.
        -24    1    1    2    0    0  0.40529135854E+02 -0.35257795769E+02  0.52978808640E+02  0.11027099861E+03  0.80419002446E+02 0.  0.
<mgrwt>
<rscale>  0 0.96710594E+02</rscale>
<asrwt>0</asrwt>
<pdfrwt beam="1">  1        3 0.24145796E-01 0.96710594E+02</pdfrwt>
<pdfrwt beam="2">  1       -3 0.91829174E-02 0.96710594E+02</pdfrwt>
<totfact> 0.29089339E+03</totfact>
</mgrwt>
</event>
<event>
 4    1  0.1437859E-001  0.1025416E+03  0.7546771E-02  0.1275040E+00
          1   -1    0    0  501    0  0.00000000000E+00  0.00000000000E+00  0.33318603706E+02  0.33318603706E+02  0.00000000000E+00 0. -1.
         -1   -1    0    0    0  501 -0.00000000000E+00 -0.00000000000E+00 -0.36322343312E+03  0.36322343312E+03  0.00000000000E+00 0.  1.
         24    1    1    2    0    0 -0.49727918536E+02 -0.39682323554E+02 -0.93146141887E+02  0.13853148518E+03  0.80419002446E+02 0. -1.
        -24    1    1    2    0    0  0.49727918536E+02  0.39682323554E+02 -0.23675868753E+03  0.25801055164E+03  0.80419002446E+02 0.  1.
<mgrwt>
<rscale>  0 0.10254156E+03</rscale>
<asrwt>0</asrwt>
<pdfrwt beam="1">  1        1 0.51259391E-02 0.10254157E+03</pdfrwt>
<pdfrwt beam="2">  1       -1 0.55880527E-01 0.10254157E+03</pdfrwt>
<totfact> 0.50060524E+03</totfact>
</mgrwt>
</event>
<event>
 4    1  0.1437859E-001  0.9012984E+02  0.7546771E-02  0.1302538E+00
          1   -1    0    0  501    0  0.00000000000E+00  0.00000000000E+00  0.19399131643E+04  0.19399131643E+04  0.00000000000E+00 0. -1.
         -1   -1    0    0    0  501 -0.00000000000E+00 -0.00000000000E+00 -0.46511334324E+01  0.46511334324E+01  0.00000000000E+00 0.  1.
         24    1    1    2    0    0  0.29689465502E+01  0.40587653199E+02  0.66065824958E+03  0.66677785726E+03  0.80419002446E+02 0. -1.
        -24    1    1    2    0    0 -0.29689465502E+01 -0.40587653199E+02  0.12746037813E+04  0.12777864405E+04  0.80419002446E+02 0. -1.
<mgrwt>
<rscale>  0 0.90129841E+02</rscale>
<asrwt>0</asrwt>
<pdfrwt beam="1">  1        1 0.29844753E+00 0.90129841E+02</pdfrwt>
<pdfrwt beam="2">  1       -1 0.71556054E-03 0.90129841E+02</pdfrwt>
<totfact> 0.10772664E+04</totfact>
</mgrwt>
</event>
<event>
 4    1  0.1437859E-001  0.9907886E+02  0.7546771E-02  0.1282245E+00
          3   -1    0    0  501    0  0.00000000000E+00  0.00000000000E+00  0.96987740217E+01  0.96987740217E+01  0.00000000000E+00 0. -1.
         -3   -1    0    0    0  501 -0.00000000000E+00 -0.00000000000E+00 -0.11607729133E+04  0.11607729133E+04  0.00000000000E+00 0.  1.
         24    1    1    2    0    0  0.21130768185E+02  0.53878527122E+02 -0.78494789749E+03  0.79117622738E+03  0.80419002446E+02 0.  1.
        -24    1    1    2    0    0 -0.21130768185E+02 -0.53878527122E+02 -0.36612624179E+03  0.37929545994E+03  0.80419002446E+02 0. -1.
<mgrwt>
<rscale>  0 0.99078863E+02</rscale>
<asrwt>0</asrwt>
<pdfrwt beam="1">  1        3 0.14921199E-02 0.99078863E+02</pdfrwt>
<pdfrwt beam="2">  1       -3 0.17858035E+00 0.99078863E+02</pdfrwt>
<totfact> 0.71952167E+02</totfact>
</mgrwt>
</event>
<event>
 4    1  0.1437859E-001  0.9855408E+02  0.7546771E-02  0.1283366E+00
         -2   -1    0    0    0  501 -0.00000000000E+00  0.00000000000E+00  0.34057900796E+02  0.34057900796E+02  0.00000000000E+00 0.  1.
          2   -1    0    0  501    0  0.00000000000E+00 -0.00000000000E+00 -0.33008804634E+03  0.33008804634E+03  0.00000000000E+00 0. -1.
         24    1    1    2    0    0 -0.27655539578E+02  0.49808258218E+02 -0.21516624274E+03  0.23666309265E+03  0.80419002446E+02 0. -1.
        -24    1    1    2    0    0  0.27655539578E+02 -0.49808258218E+02 -0.80863902811E+02  0.12748285449E+03  0.80419002446E+02 0.  1.
<mgrwt>
<rscale>  0 0.98554084E+02</rscale>
<asrwt>0</asrwt>
<pdfrwt beam="1">  1        2 0.50782775E-01 0.98554084E+02</pdfrwt>
<pdfrwt beam="2">  1       -2 0.52396772E-02 0.98554084E+02</pdfrwt>
<totfact> 0.16365189E+04</totfact>
</mgrwt>
</event>
<event>
 4    1  0.1437859E-001  0.8776888E+02  0.7546771E-02  0.1308346E+00
         -1   -1    0    0    0  501 -0.00000000000E+00  0.00000000000E+00  0.80225326789E+02  0.80225326789E+02  0.00000000000E+00 0.  1.
          1   -1    0    0  501    0  0.00000000000E+00 -0.00000000000E+00 -0.11546030986E+03  0.11546030986E+03  0.00000000000E+00 0. -1.
         24    1    1    2    0    0 -0.34128609183E+02  0.84497963706E+01  0.22528717308E+02  0.90614127383E+02  0.80419002446E+02 0.  1.
        -24    1    1    2    0    0  0.34128609183E+02 -0.84497963706E+01 -0.57763700377E+02  0.10507150926E+03  0.80419002446E+02 0. -1.
<mgrwt>
<rscale>  0 0.87768884E+02</rscale>
<asrwt>0</asrwt>
<pdfrwt beam="1">  1        1 0.17763125E-01 0.87768884E+02</pdfrwt>
<pdfrwt beam="2">  1       -1 0.12342358E-01 0.87768884E+02</pdfrwt>
<totfact> 0.11748582E+04</totfact>
</mgrwt>
</event>
<event>
 4    1  0.1437859E-001  0.1571582E+03  0.7546771E-02  0.1191943E+00
         -1   -1    0    0    0  501 -0.00000000000E+00  0.00000000000E+00  0.16199470869E+04  0.16199470869E+04  0.00000000000E+00 0.  1.
          1   -1    0    0  501    0  0.00000000000E+00 -0.00000000000E+00 -0.60495419358E+02  0.60495419358E+02  0.00000000000E+00 0. -1.
         24    1    1    2    0    0 -0.17630701737E+02 -0.13386805583E+03  0.15063937034E+04  0.15145694779E+04  0.80419002446E+02 0.  1.
        -24    1    1    2    0    0  0.17630701737E+02  0.13386805583E+03  0.53057964220E+02  0.16587302836E+03  0.80419002446E+02 0. -1.
<mgrwt>
<rscale>  0 0.15715824E+03</rscale>
<asrwt>0</asrwt>
<pdfrwt beam="1">  1        1 0.93069888E-02 0.15715824E+03</pdfrwt>
<pdfrwt beam="2">  1       -1 0.24922260E+00 0.15715824E+03</pdfrwt>
<totfact> 0.58324923E+01</totfact>
</mgrwt>
</event>
<event>
 4    1  0.1437859E-001  0.8913486E+02  0.7546771E-02  0.1304960E+00
         -2   -1    0    0    0  501 -0.00000000000E+00  0.00000000000E+00  0.23104682101E+01  0.23104682101E+01  0.00000000000E+00 0.  1.
          2   -1    0    0  501    0  0.00000000000E+00 -0.00000000000E+00 -0.40337210139E+04  0.40337210139E+04  0.00000000000E+00 0. -1.
         24    1    1    2    0    0  0.28086284576E+02 -0.26248210587E+02 -0.27907648899E+04  0.27921879762E+04  0.80419002446E+02 0. -1.
        -24    1    1    2    0    0 -0.28086284576E+02  0.26248210587E+02 -0.12406456559E+04  0.12438435060E+04  0.80419002446E+02 0.  1.
<mgrwt>
<rscale>  0 0.89134864E+02</rscale>
<asrwt>0</asrwt>
<pdfrwt beam="1">  1        2 0.62057435E+00 0.89134864E+02</pdfrwt>
<pdfrwt beam="2">  1       -2 0.35545557E-03 0.89134864E+02</pdfrwt>
<totfact> 0.41224216E+03</totfact>
</mgrwt>
</event>
<event>
 4    1  0.1437859E-001  0.8962065E+02  0.7546771E-02  0.1303773E+00
          2   -1    0    0  501    0  0.00000000000E+00  0.00000000000E+00  0.17074205359E+03  0.17074205359E+03  0.00000000000E+00 0. -1.
         -2   -1    0    0    0  501 -0.00000000000E+00 -0.00000000000E+00 -0.50354791314E+02  0.50354791314E+02  0.00000000000E+00 0.  1.
         24    1    1    2    0    0  0.37678179899E+02 -0.12041551620E+02  0.88553300796E+02  0.12599026646E+03  0.80419002446E+02 0. -1.
        -24    1    1    2    0    0 -0.37678179899E+02  0.12041551620E+02  0.31833961482E+02  0.95106578447E+02  0.80419002446E+02 0.  1.
<mgrwt>
<rscale>  0 0.89620646E+02</rscale>
<asrwt>0</asrwt>
<pdfrwt beam="1">  1        2 0.26268008E-01 0.89620646E+02</pdfrwt>
<pdfrwt beam="2">  1       -2 0.77468911E-02 0.89620646E+02</pdfrwt>
<totfact> 0.18062606E+04</totfact>
</mgrwt>
</event>
<event>
 4    1  0.1437859E-001  0.1063475E+03  0.7546771E-02  0.1267487E+00
         -2   -1    0    0    0  501 -0.00000000000E+00  0.00000000000E+00  0.20847437832E+02  0.20847437832E+02  0.00000000000E+00 0.  1.
          2   -1    0    0  501    0  0.00000000000E+00 -0.00000000000E+00 -0.74585920536E+03  0.74585920536E+03  0.00000000000E+00 0. -1.
         24    1    1    2    0    0  0.33749795432E+02 -0.60856672049E+02 -0.56267608951E+03  0.57263791429E+03  0.80419002446E+02 0.  1.
        -24    1    1    2    0    0 -0.33749795432E+02  0.60856672049E+02 -0.16233567801E+03  0.19406872889E+03  0.80419002446E+02 0.  0.
<mgrwt>
<rscale>  0 0.10634754E+03</rscale>
<asrwt>0</asrwt>
<pdfrwt beam="1">  1        2 0.11474755E+00 0.10634754E+03</pdfrwt>
<pdfrwt beam="2">  1       -2 0.32072986E-02 0.10634754E+03</pdfrwt>
<totfact> 0.13906274E+04</totfact>
</mgrwt>
</event>
<event>
 4    1  0.1437859E-001  0.8265177E+02  0.7546771E-02  0.1321690E+00
         -4   -1    0    0    0  501 -0.00000000000E+00  0.00000000000E+00  0.11671730248E+02  0.11671730248E+02  0.00000000000E+00 0.  1.
          4   -1    0    0  501    0  0.00000000000E+00 -0.00000000000E+00 -0.61710625192E+03  0.61710625192E+03  0.00000000000E+00 0. -1.
         24    1    1    2    0    0 -0.13932810403E-01 -0.19081366496E+02 -0.37410617104E+03  0.38312757915E+03  0.80419002446E+02 0.  1.
        -24    1    1    2    0    0  0.13932810403E-01  0.19081366496E+02 -0.23132835063E+03  0.24565040302E+03  0.80419002446E+02 0.  0.
<mgrwt>
<rscale>  0 0.82651768E+02</rscale>
<asrwt>0</asrwt>
<pdfrwt beam="1">  1        4 0.94939454E-01 0.82651768E+02</pdfrwt>
<pdfrwt beam="2">  1       -4 0.17956502E-02 0.82651768E+02</pdfrwt>
<totfact> 0.16928481E+03</totfact>
</mgrwt>
</event>
<event>
 4    1  0.1437859E-001  0.8108814E+02  0.7546771E-02  0.1325992E+00
          1   -1    0    0  501    0  0.00000000000E+00  0.00000000000E+00  0.13065944046E+04  0.13065944046E+04  0.00000000000E+00 0. -1.
         -1   -1    0    0    0  501 -0.00000000000E+00 -0.00000000000E+00 -0.10247637246E+02  0.10247637246E+02  0.00000000000E+00 0.  1.
         24    1    1    2    0    0  0.59920013400E+01  0.84951068367E+01  0.17846376878E+03  0.19602194684E+03  0.80419002446E+02 0.  1.
        -24    1    1    2    0    0 -0.59920013400E+01 -0.84951068367E+01  0.11178829985E+04  0.11208200950E+04  0.80419002446E+02 0.  0.
<mgrwt>
<rscale>  0 0.81088143E+02</rscale>
<asrwt>0</asrwt>
<pdfrwt beam="1">  1        1 0.20101439E+00 0.81088143E+02</pdfrwt>
<pdfrwt beam="2">  1       -1 0.15765606E-02 0.81088143E+02</pdfrwt>
<totfact> 0.88545293E+03</totfact>
</mgrwt>
</event>
<event>
 4    1  0.1437859E-001  0.1170608E+03  0.7546771E-02  0.1248026E+00
          2   -1    0    0  501    0  0.00000000000E+00  0.00000000000E+00  0.80685726575E+03  0.80685726575E+03  0.00000000000E+00 0. -1.
         -2   -1    0    0    0  501 -0.00000000000E+00 -0.00000000000E+00 -0.20605480372E+02  0.20605480372E+02  0.00000000000E+00 0.  1.
         24    1    1    2    0    0  0.31049628815E+02 -0.79195574713E+02  0.56658697606E+03  0.57855339935E+03  0.80419002446E+02 0.  1.
        -24    1    1    2    0    0 -0.31049628815E+02  0.79195574713E+02  0.21966480933E+03  0.24890934678E+03  0.80419002446E+02 0. -1.
<mgrwt>
<rscale>  0 0.11706082E+03</rscale>
<asrwt>0</asrwt>
<pdfrwt beam="1">  1        2 0.12413186E+00 0.11706082E+03</pdfrwt>
<pdfrwt beam="2">  1       -2 0.31700745E-02 0.11706082E+03</pdfrwt>
<totfact> 0.12944828E+04</totfact>
</mgrwt>
</event>
<event>
 4    1  0.1437859E-001  0.1595837E+03  0.7546771E-02  0.1189168E+00
         -3   -1    0    0    0  501 -0.00000000000E+00  0.00000000000E+00  0.20272230387E+02  0.20272230387E+02  0.00000000000E+00 0.  1.
          3   -1    0    0  501    0  0.00000000000E+00 -0.00000000000E+00 -0.12877582893E+04  0.12877582893E+04  0.00000000000E+00 0. -1.
         24    1    1    2    0    0 -0.10502719873E+03  0.89269479630E+02 -0.53143958483E+03  0.55488287119E+03  0.80419002446E+02 0. -1.
        -24    1    1    2    0    0  0.10502719873E+03 -0.89269479630E+02 -0.73604647411E+03  0.75314764852E+03  0.80419002446E+02 0.  1.
<mgrwt>
<rscale>  0 0.15958373E+03</rscale>
<asrwt>0</asrwt>
<pdfrwt beam="1">  1        3 0.19811671E+00 0.15958373E+03</pdfrwt>
<pdfrwt beam="2">  1       -3 0.31188039E-02 0.15958373E+03</pdfrwt>
<totfact> 0.18972747E+02</totfact>
</mgrwt>
</event>
<event>
 4    1  0.1437859E-001  0.9662948E+02  0.7546771E-02  0.1287548E+00
          1   -1    0    0  501    0  0.00000000000E+00  0.00000000000E+00  0.14863307351E+04  0.14863307351E+04  0.00000000000E+00 0. -1.
         -1   -1    0    0    0  501 -0.00000000000E+00 -0.00000000000E+00 -0.85364069812E+01  0.85364069812E+01  0.00000000000E+00 0.  1.
         24    1    1    2    0    0 -0.48029723006E+02  0.23731539813E+02  0.35479831724E+03  0.36772150079E+03  0.80419002446E+02 0.  1.
        -24    1    1    2    0    0  0.48029723006E+02 -0.23731539813E+02  0.11229960109E+04  0.11271456413E+04  0.80419002446E+02 0. -1.
<mgrwt>
<rscale>  0 0.96629479E+02</rscale>
<asrwt>0</asrwt>
<pdfrwt beam="1">  1        1 0.22866606E+00 0.96629479E+02</pdfrwt>
<pdfrwt beam="2">  1       -1 0.13132946E-02 0.96629479E+02</pdfrwt>
<totfact> 0.88673988E+03</totfact>
</mgrwt>
</event>
<event>
 4    1  0.1437859E-001  0.1302370E+03  0.7546771E-02  0.1227105E+00
          1   -1    0    0  501    0  0.00000000000E+00  0.00000000000E+00  0.66136281734E+03  0.66136281734E+03  0.00000000000E+00 0. -1.
         -1   -1    0    0    0  501 -0.00000000000E+00 -0.00000000000E+00 -0.27980707699E+02  0.27980707699E+02  0.00000000000E+00 0.  1.
         24    1    1    2    0    0 -0.67546623715E+01  0.10221950515E+03  0.21714082057E+03  0.25320308965E+03  0.80419002446E+02 0.  0.
        -24    1    1    2    0    0  0.67546623715E+01 -0.10221950515E+03  0.41624128907E+03  0.43614043538E+03  0.80419002446E+02 0.  1.
<mgrwt>
<rscale>  0 0.13023697E+03</rscale>
<asrwt>0</asrwt>
<pdfrwt beam="1">  1        1 0.10174811E+00 0.13023697E+03</pdfrwt>
<pdfrwt beam="2">  1       -1 0.43047248E-02 0.13023697E+03</pdfrwt>
<totfact> 0.64904465E+03</totfact>
</mgrwt>
</event>
<event>
 4    1  0.1746871E-001  0.8042532E+02  0.7546771E-02  0.1327849E+00
         -3   -1    0    0    0  501 -0.00000000000E+00  0.00000000000E+00  0.31842091017E+03  0.31842091017E+03  0.00000000000E+00 0.  1.
          3   -1    0    0  501    0  0.00000000000E+00 -0.00000000000E+00 -0.65824809468E+02  0.65824809468E+02  0.00000000000E+00 0. -1.
         24    1    1    2    0    0  0.62572168796E+00 -0.79071316460E+00  0.28604922476E+03  0.29714035690E+03  0.80419002446E+02 0.  1.
        -24    1    1    2    0    0 -0.62572168796E+00  0.79071316460E+00 -0.33453124059E+02  0.87105362743E+02  0.80419002446E+02 0.  0.
<mgrwt>
<rscale>  0 0.80425324E+02</rscale>
<asrwt>0</asrwt>
<pdfrwt beam="1">  1        3 0.10126894E-01 0.80425324E+02</pdfrwt>
<pdfrwt beam="2">  1       -3 0.48987831E-01 0.80425324E+02</pdfrwt>
<totfact> 0.63757042E+02</totfact>
</mgrwt>
</event>
<event>
 4    1  0.1437859E-001  0.1040227E+03  0.7546771E-02  0.1272057E+00
          1   -1    0    0  501    0  0.00000000000E+00  0.00000000000E+00  0.12037209001E+03  0.12037209001E+03  0.00000000000E+00 0. -1.
         -1   -1    0    0    0  501 -0.00000000000E+00 -0.00000000000E+00 -0.10000312314E+03  0.10000312314E+03  0.00000000000E+00 0.  1.
         24    1    1    2    0    0 -0.94946195000E+01  0.65294381404E+02 -0.24849075441E+02  0.10694950466E+03  0.80419002446E+02 0.  1.
        -24    1    1    2    0    0  0.94946195000E+01 -0.65294381404E+02  0.45218042310E+02  0.11342570849E+03  0.80419002446E+02 0.  0.
<mgrwt>
<rscale>  0 0.10402269E+03</rscale>
<asrwt>0</asrwt>
<pdfrwt beam="1">  1        1 0.18518783E-01 0.10402269E+03</pdfrwt>
<pdfrwt beam="2">  1       -1 0.15385096E-01 0.10402269E+03</pdfrwt>
<totfact> 0.80556464E+03</totfact>
</mgrwt>
</event>
<event>
 4    1  0.1437859E-001  0.8606003E+02  0.7546771E-02  0.1312683E+00
          1   -1    0    0  501    0  0.00000000000E+00  0.00000000000E+00  0.66715701775E+03  0.66715701775E+03  0.00000000000E+00 0. -1.
         -1   -1    0    0    0  501 -0.00000000000E+00 -0.00000000000E+00 -0.13518378221E+02  0.13518378221E+02  0.00000000000E+00 0.  1.
         24    1    1    2    0    0 -0.25492861601E+02 -0.17006682542E+02  0.18290945836E+03  0.20214400599E+03  0.80419002446E+02 0.  1.
        -24    1    1    2    0    0  0.25492861601E+02  0.17006682542E+02  0.47072918117E+03  0.47853138998E+03  0.80419002446E+02 0. -1.
<mgrwt>
<rscale>  0 0.86060033E+02</rscale>
<asrwt>0</asrwt>
<pdfrwt beam="1">  1        1 0.10263952E+00 0.86060033E+02</pdfrwt>
<pdfrwt beam="2">  1       -1 0.20797510E-02 0.86060033E+02</pdfrwt>
<totfact> 0.17809738E+04</totfact>
</mgrwt>
</event>
<event>
 4    1  0.1437859E-001  0.8236152E+02  0.7546771E-02  0.1322480E+00
          2   -1    0    0  501    0  0.00000000000E+00  0.00000000000E+00  0.30169184069E+03  0.30169184069E+03  0.00000000000E+00 0. -1.
         -2   -1    0    0    0  501 -0.00000000000E+00 -0.00000000000E+00 -0.14086309795E+03  0.14086309795E+03  0.00000000000E+00 0.  1.
         24    1    1    2    0    0 -0.12050968399E+02 -0.13075841100E+02  0.28326436411E+03  0.29499511757E+03  0.80419002446E+02 0.  0.
        -24    1    1    2    0    0  0.12050968399E+02  0.13075841100E+02 -0.12243562138E+03  0.14755982108E+03  0.80419002446E+02 0.  1.
<mgrwt>
<rscale>  0 0.82361517E+02</rscale>
<asrwt>0</asrwt>
<pdfrwt beam="1">  1        2 0.46414129E-01 0.82361517E+02</pdfrwt>
<pdfrwt beam="2">  1       -2 0.21671246E-01 0.82361517E+02</pdfrwt>
<totfact> 0.19036370E+03</totfact>
</mgrwt>
</event>
<event>
 4    1  0.1437859E-001  0.9421060E+02  0.7546771E-02  0.1292964E+00
          1   -1    0    0  501    0  0.00000000000E+00  0.00000000000E+00  0.26681718412E+02  0.26681718412E+02  0.00000000000E+00 0. -1.
         -1   -1    0    0    0  501 -0.00000000000E+00 -0.00000000000E+00 -0.36285441145E+03  0.36285441145E+03  0.00000000000E+00 0.  1.
         24    1    1    2    0    0 -0.44459962220E+02 -0.20778073368E+02 -0.11189132926E+03  0.14627133038E+03  0.80419002446E+02 0.  0.
        -24    1    1    2    0    0  0.44459962220E+02  0.20778073368E+02 -0.22428136379E+03  0.24326479949E+03  0.80419002446E+02 0.  0.
<mgrwt>
<rscale>  0 0.94210587E+02</rscale>
<asrwt>0</asrwt>
<pdfrwt beam="1">  1        1 0.41048797E-02 0.94210599E+02</pdfrwt>
<pdfrwt beam="2">  1       -1 0.55823757E-01 0.94210599E+02</pdfrwt>
<totfact> 0.67335416E+03</totfact>
</mgrwt>
</event>
<event>
 4    1  0.1437859E-001  0.8829037E+02  0.7546771E-02  0.1307045E+00
         -2   -1    0    0    0  501 -0.00000000000E+00  0.00000000000E+00  0.29654609277E+02  0.29654609277E+02  0.00000000000E+00 0.  1.
          2   -1    0    0  501    0  0.00000000000E+00 -0.00000000000E+00 -0.12132728032E+04  0.12132728032E+04  0.00000000000E+00 0. -1.
         24    1    1    2    0    0 -0.20289819676E+02 -0.30270382151E+02 -0.11418453384E+04  0.11452536687E+04  0.80419002446E+02 0. -1.
        -24    1    1    2    0    0  0.20289819676E+02  0.30270382151E+02 -0.41772855536E+02  0.97673743821E+02  0.80419002446E+02 0.  1.
<mgrwt>
<rscale>  0 0.88290366E+02</rscale>
<asrwt>0</asrwt>
<pdfrwt beam="1">  1        2 0.18665731E+00 0.88290366E+02</pdfrwt>
<pdfrwt beam="2">  1       -2 0.45622487E-02 0.88290366E+02</pdfrwt>
<totfact> 0.42866328E+03</totfact>
</mgrwt>
</event>
<event>
 4    1  0.1437859E-001  0.8314510E+02  0.7546771E-02  0.1320356E+00
          2   -1    0    0  501    0  0.00000000000E+00  0.00000000000E+00  0.14395350645E+03  0.14395350645E+03  0.00000000000E+00 0. -1.
         -2   -1    0    0    0  501 -0.00000000000E+00 -0.00000000000E+00 -0.12892536227E+03  0.12892536227E+03  0.00000000000E+00 0.  1.
         24    1    1    2    0    0 -0.69615748474E+01  0.19935597594E+02  0.11559543288E+03  0.14239175409E+03  0.80419002446E+02 0. -1.
        -24    1    1    2    0    0  0.69615748474E+01 -0.19935597594E+02 -0.10056728869E+03  0.13048711463E+03  0.80419002446E+02 0.  1.
<mgrwt>
<rscale>  0 0.83145099E+02</rscale>
<asrwt>0</asrwt>
<pdfrwt beam="1">  1        2 0.22146693E-01 0.83145099E+02</pdfrwt>
<pdfrwt beam="2">  1       -2 0.19834671E-01 0.83145099E+02</pdfrwt>
<totfact> 0.48557319E+03</totfact>
</mgrwt>
</event>
<event>
 4    1  0.1437859E-001  0.8734518E+02  0.7546771E-02  0.1309411E+00
          2   -1    0    0  501    0  0.00000000000E+00  0.00000000000E+00  0.55598575802E+03  0.55598575802E+03  0.00000000000E+00 0. -1.
         -2   -1    0    0    0  501 -0.00000000000E+00 -0.00000000000E+00 -0.13810685124E+02  0.13810685124E+02  0.00000000000E+00 0.  1.
         24    1    1    2    0    0 -0.52823481971E+01  0.33675835868E+02  0.29393046414E+03  0.30663381880E+03  0.80419002446E+02 0.  1.
        -24    1    1    2    0    0  0.52823481971E+01 -0.33675835868E+02  0.24824460875E+03  0.26316262435E+03  0.80419002446E+02 0.  0.
<mgrwt>
<rscale>  0 0.87345183E+02</rscale>
<asrwt>0</asrwt>
<pdfrwt beam="1">  1        2 0.85536253E-01 0.87345183E+02</pdfrwt>
<pdfrwt beam="2">  1       -2 0.21247212E-02 0.87345183E+02</pdfrwt>
<totfact> 0.34699777E+04</totfact>
</mgrwt>
</event>
<event>
 4    1  0.1437859E-001  0.8083054E+02  0.7546771E-02  0.1326711E+00
          1   -1    0    0  501    0  0.00000000000E+00  0.00000000000E+00  0.19058987941E+03  0.19058987941E+03  0.00000000000E+00 0. -1.
         -1   -1    0    0    0  501 -0.00000000000E+00 -0.00000000000E+00 -0.52208306563E+02  0.52208306563E+02  0.00000000000E+00 0.  1.
         24    1    1    2    0    0 -0.81004543659E+01 -0.86233462404E+00 -0.19478223806E+01  0.80854010094E+02  0.80419002446E+02 0.  1.
        -24    1    1    2    0    0  0.81004543659E+01  0.86233462404E+00  0.14032939523E+03  0.16194417588E+03  0.80419002446E+02 0. -1.
<mgrwt>
<rscale>  0 0.80830545E+02</rscale>
<asrwt>0</asrwt>
<pdfrwt beam="1">  1        1 0.29321520E-01 0.80830545E+02</pdfrwt>
<pdfrwt beam="2">  1       -1 0.80320472E-02 0.80830545E+02</pdfrwt>
<totfact> 0.11938482E+04</totfact>
</mgrwt>
</event>
<event>
 4    1  0.1437859E-001  0.8127866E+02  0.7546771E-02  0.1325461E+00
          1   -1    0    0  501    0  0.00000000000E+00  0.00000000000E+00  0.86636364237E+03  0.86636364237E+03  0.00000000000E+00 0. -1.
         -1   -1    0    0    0  501 -0.00000000000E+00 -0.00000000000E+00 -0.28484054972E+02  0.28484054972E+02  0.00000000000E+00 0.  1.
         24    1    1    2    0    0  0.11786633783E+02  0.28159828816E+00  0.36059366198E+02  0.88918490082E+02  0.80419002446E+02 0.  1.
        -24    1    1    2    0    0 -0.11786633783E+02 -0.28159828816E+00  0.80182022120E+03  0.80592920726E+03  0.80419002446E+02 0.  0.
<mgrwt>
<rscale>  0 0.81278656E+02</rscale>
<asrwt>0</asrwt>
<pdfrwt beam="1">  1        1 0.13328669E+00 0.81278656E+02</pdfrwt>
<pdfrwt beam="2">  1       -1 0.43821630E-02 0.81278656E+02</pdfrwt>
<totfact> 0.41598837E+03</totfact>
</mgrwt>
</event>
<event>
 4    1  0.1437859E-001  0.8142740E+02  0.7546771E-02  0.1325049E+00
         -1   -1    0    0    0  501 -0.00000000000E+00  0.00000000000E+00  0.84756100857E+02  0.84756100857E+02  0.00000000000E+00 0.  1.
          1   -1    0    0  501    0  0.00000000000E+00 -0.00000000000E+00 -0.31095323847E+03  0.31095323847E+03  0.00000000000E+00 0. -1.
         24    1    1    2    0    0 -0.52242140600E-02 -0.12775200287E+02  0.58068087691E+02  0.10001162199E+03  0.80419002446E+02 0.  1.
        -24    1    1    2    0    0  0.52242140600E-02  0.12775200287E+02 -0.28426522531E+03  0.29569771735E+03  0.80419002446E+02 0.  0.
<mgrwt>
<rscale>  0 0.81427402E+02</rscale>
<asrwt>0</asrwt>
<pdfrwt beam="1">  1        1 0.47838960E-01 0.81427402E+02</pdfrwt>
<pdfrwt beam="2">  1       -1 0.13039400E-01 0.81427402E+02</pdfrwt>
<totfact> 0.31706901E+03</totfact>
</mgrwt>
</event>
<event>
 4    1  0.1437859E-001  0.9098945E+02  0.7546771E-02  0.1300473E+00
         -2   -1    0    0    0  501 -0.00000000000E+00  0.00000000000E+00  0.21975990692E+02  0.21975990692E+02  0.00000000000E+00 0.  1.
          2   -1    0    0  501    0  0.00000000000E+00 -0.00000000000E+00 -0.40176164106E+03  0.40176164106E+03  0.00000000000E+00 0. -1.
         24    1    1    2    0    0  0.26616167554E+02  0.33218122263E+02 -0.24277408645E+03  0.25926499384E+03  0.80419002446E+02 0.  0.
        -24    1    1    2    0    0 -0.26616167554E+02 -0.33218122263E+02 -0.13701156392E+03  0.16447263792E+03  0.80419002446E+02 0. -1.
<mgrwt>
<rscale>  0 0.90989450E+02</rscale>
<asrwt>0</asrwt>
<pdfrwt beam="1">  1        2 0.61809483E-01 0.90989450E+02</pdfrwt>
<pdfrwt beam="2">  1       -2 0.33809217E-02 0.90989450E+02</pdfrwt>
<totfact> 0.25209022E+04</totfact>
</mgrwt>
</event>
<event>
 4    1  0.1437859E-001  0.8650636E+02  0.7546771E-02  0.1311540E+00
          2   -1    0    0  501    0  0.00000000000E+00  0.00000000000E+00  0.11634603612E+04  0.11634603612E+04  0.00000000000E+00 0. -1.
         -2   -1    0    0    0  501 -0.00000000000E+00 -0.00000000000E+00 -0.73148285940E+01  0.73148285940E+01  0.00000000000E+00 0.  1.
         24    1    1    2    0    0  0.31845277138E+02  0.14186253008E+01  0.78144203342E+03  0.78621562038E+03  0.80419002446E+02 0.  0.
        -24    1    1    2    0    0 -0.31845277138E+02 -0.14186253008E+01  0.37470349917E+03  0.38455956940E+03  0.80419002446E+02 0. -1.
<mgrwt>
<rscale>  0 0.86506359E+02</rscale>
<asrwt>0</asrwt>
<pdfrwt beam="1">  1        2 0.17899375E+00 0.86506359E+02</pdfrwt>
<pdfrwt beam="2">  1       -2 0.11253592E-02 0.86506359E+02</pdfrwt>
<totfact> 0.34296477E+04</totfact>
</mgrwt>
</event>
<event>
 4    1  0.1437859E-001  0.8158771E+02  0.7546771E-02  0.1324605E+00
         -1   -1    0    0    0  501 -0.00000000000E+00  0.00000000000E+00  0.17662224566E+03  0.17662224566E+03  0.00000000000E+00 0.  1.
          1   -1    0    0  501    0  0.00000000000E+00 -0.00000000000E+00 -0.38084067060E+02  0.38084067060E+02  0.00000000000E+00 0. -1.
         24    1    1    2    0    0 -0.51530315783E+01  0.12758681371E+02  0.80215775685E+02  0.11441645121E+03  0.80419002446E+02 0.  1.
        -24    1    1    2    0    0  0.51530315783E+01 -0.12758681371E+02  0.58322402911E+02  0.10028986150E+03  0.80419002446E+02 0. -1.
<mgrwt>
<rscale>  0 0.81587705E+02</rscale>
<asrwt>0</asrwt>
<pdfrwt beam="1">  1        1 0.58590873E-02 0.81587705E+02</pdfrwt>
<pdfrwt beam="2">  1       -1 0.27172653E-01 0.81587705E+02</pdfrwt>
<totfact> 0.14276272E+04</totfact>
</mgrwt>
</event>
<event>
 4    1  0.1437859E-001  0.1083137E+03  0.7546771E-02  0.1263725E+00
         -2   -1    0    0    0  501 -0.00000000000E+00  0.00000000000E+00  0.19624588402E+03  0.19624588402E+03  0.00000000000E+00 0.  1.
          2   -1    0    0  501    0  0.00000000000E+00 -0.00000000000E+00 -0.18153194312E+03  0.18153194312E+03  0.00000000000E+00 0. -1.
         24    1    1    2    0    0 -0.72557837768E+02  0.92359121375E-01 -0.14733411884E+03  0.18286390262E+03  0.80419002446E+02 0. -1.
        -24    1    1    2    0    0  0.72557837768E+02 -0.92359121375E-01  0.16204805974E+03  0.19491392452E+03  0.80419002446E+02 0.  1.
<mgrwt>
<rscale>  0 0.10831373E+03</rscale>
<asrwt>0</asrwt>
<pdfrwt beam="1">  1        2 0.27927991E-01 0.10831373E+03</pdfrwt>
<pdfrwt beam="2">  1       -2 0.30191674E-01 0.10831373E+03</pdfrwt>
<totfact> 0.18531517E+03</totfact>
</mgrwt>
</event>
<event>
 4    1  0.1437859E-001  0.1534322E+03  0.7546771E-02  0.1196318E+00
         -1   -1    0    0    0  501 -0.00000000000E+00  0.00000000000E+00  0.19116813397E+02  0.19116813397E+02  0.00000000000E+00 0.  1.
          1   -1    0    0  501    0  0.00000000000E+00 -0.00000000000E+00 -0.13325520521E+04  0.13325520521E+04  0.00000000000E+00 0. -1.
         24    1    1    2    0    0  0.16866693926E+02 -0.12957518784E+03 -0.47056259929E+03  0.49494503783E+03  0.80419002446E+02 0.  1.
        -24    1    1    2    0    0 -0.16866693926E+02  0.12957518784E+03 -0.84287263938E+03  0.85672382763E+03  0.80419002446E+02 0. -1.
<mgrwt>
<rscale>  0 0.15343217E+03</rscale>
<asrwt>0</asrwt>
<pdfrwt beam="1">  1        1 0.20500806E+00 0.15343217E+03</pdfrwt>
<pdfrwt beam="2">  1       -1 0.29410475E-02 0.15343217E+03</pdfrwt>
<totfact> 0.35655526E+03</totfact>
</mgrwt>
</event>
<event>
 4    1  0.1437859E-001  0.8198428E+02  0.7546771E-02  0.1323513E+00
         -1   -1    0    0    0  501 -0.00000000000E+00  0.00000000000E+00  0.58875456650E+02  0.58875456650E+02  0.00000000000E+00 0.  1.
          1   -1    0    0  501    0  0.00000000000E+00 -0.00000000000E+00 -0.33092240595E+03  0.33092240595E+03  0.00000000000E+00 0. -1.
         24    1    1    2    0    0  0.13368595849E+02 -0.86883306610E+01  0.21714022289E+02  0.84811091038E+02  0.80419002446E+02 0.  1.
        -24    1    1    2    0    0 -0.13368595849E+02  0.86883306610E+01 -0.29376097159E+03  0.30498677156E+03  0.80419002446E+02 0. -1.
<mgrwt>
<rscale>  0 0.81984281E+02</rscale>
<asrwt>0</asrwt>
<pdfrwt beam="1">  1        1 0.50911140E-01 0.81984281E+02</pdfrwt>
<pdfrwt beam="2">  1       -1 0.90577624E-02 0.81984281E+02</pdfrwt>
<totfact> 0.51023456E+03</totfact>
</mgrwt>
</event>
<event>
 4    1  0.1437859E-001  0.1055770E+03  0.7546771E-02  0.1268987E+00
         -1   -1    0    0    0  501 -0.00000000000E+00  0.00000000000E+00  0.11718227197E+02  0.11718227197E+02  0.00000000000E+00 0.  1.
          1   -1    0    0  501    0  0.00000000000E+00 -0.00000000000E+00 -0.18019590921E+04  0.18019590921E+04  0.00000000000E+00 0. -1.
         24    1    1    2    0    0  0.56296448940E+02  0.38858797311E+02 -0.27202017343E+03  0.29179014206E+03  0.80419002446E+02 0.  1.
        -24    1    1    2    0    0 -0.56296448940E+02 -0.38858797311E+02 -0.15182206915E+04  0.15218871772E+04  0.80419002446E+02 0. -1.
<mgrwt>
<rscale>  0 0.10557704E+03</rscale>
<asrwt>0</asrwt>
<pdfrwt beam="1">  1        1 0.27722454E+00 0.10557704E+03</pdfrwt>
<pdfrwt beam="2">  1       -1 0.18028038E-02 0.10557704E+03</pdfrwt>
<totfact> 0.35742350E+03</totfact>
</mgrwt>
</event>
<event>
 4    1  0.1437859E-001  0.8202685E+02  0.7546771E-02  0.1323396E+00
         -2   -1    0    0    0  501 -0.00000000000E+00  0.00000000000E+00  0.85465453655E+02  0.85465453655E+02  0.00000000000E+00 0.  1.
          2   -1    0    0  501    0  0.00000000000E+00 -0.00000000000E+00 -0.14652457787E+03  0.14652457787E+03  0.00000000000E+00 0. -1.
         24    1    1    2    0    0  0.65786805061E+01  0.14761754065E+02 -0.10943237154E+03  0.13676201343E+03  0.80419002446E+02 0. -1.
        -24    1    1    2    0    0 -0.65786805061E+01 -0.14761754065E+02  0.48373247327E+02  0.95228018102E+02  0.80419002446E+02 0.  1.
<mgrwt>
<rscale>  0 0.82026852E+02</rscale>
<asrwt>0</asrwt>
<pdfrwt beam="1">  1        2 0.22542243E-01 0.82026852E+02</pdfrwt>
<pdfrwt beam="2">  1       -2 0.13148531E-01 0.82026852E+02</pdfrwt>
<totfact> 0.92909997E+03</totfact>
</mgrwt>
</event>
<event>
 4    1  0.1437859E-001  0.9628129E+02  0.7546771E-02  0.1288316E+00
         -2   -1    0    0    0  501 -0.00000000000E+00  0.00000000000E+00  0.11238437993E+02  0.11238437993E+02  0.00000000000E+00 0.  1.
          2   -1    0    0  501    0  0.00000000000E+00 -0.00000000000E+00 -0.82546723413E+03  0.82546723413E+03  0.00000000000E+00 0. -1.
         24    1    1    2    0    0  0.52922954620E+02  0.14251868312E+01 -0.41850405213E+03  0.42943652370E+03  0.80419002446E+02 0.  1.
        -24    1    1    2    0    0 -0.52922954620E+02 -0.14251868312E+01 -0.39572474401E+03  0.40726914842E+03  0.80419002446E+02 0. -1.
<mgrwt>
<rscale>  0 0.96281287E+02</rscale>
<asrwt>0</asrwt>
<pdfrwt beam="1">  1        2 0.12699499E+00 0.96281287E+02</pdfrwt>
<pdfrwt beam="2">  1       -2 0.17289901E-02 0.96281287E+02</pdfrwt>
<totfact> 0.29797290E+04</totfact>
</mgrwt>
</event>
<event>
 4    1  0.1437859E-001  0.8735456E+02  0.7546771E-02  0.1309387E+00
          2   -1    0    0  501    0  0.00000000000E+00  0.00000000000E+00  0.13536169486E+03  0.13536169486E+03  0.00000000000E+00 0. -1.
         -2   -1    0    0    0  501 -0.00000000000E+00 -0.00000000000E+00 -0.34763663422E+03  0.34763663422E+03  0.00000000000E+00 0.  1.
         24    1    1    2    0    0 -0.33740014373E+02 -0.50214146571E+01  0.11491510986E+03  0.14434784932E+03  0.80419002446E+02 0. -1.
        -24    1    1    2    0    0  0.33740014373E+02  0.50214146571E+01 -0.32719004922E+03  0.33865047976E+03  0.80419002446E+02 0.  1.
<mgrwt>
<rscale>  0 0.87354560E+02</rscale>
<asrwt>0</asrwt>
<pdfrwt beam="1">  1        2 0.20824876E-01 0.87354560E+02</pdfrwt>
<pdfrwt beam="2">  1       -2 0.53482559E-01 0.87354560E+02</pdfrwt>
<totfact> 0.86312353E+02</totfact>
</mgrwt>
</event>
<event>
 4    1  0.1437859E-001  0.1086686E+03  0.7546771E-02  0.1263055E+00
         -2   -1    0    0    0  501 -0.00000000000E+00  0.00000000000E+00  0.55541928365E+02  0.55541928365E+02  0.00000000000E+00 0.  1.
          2   -1    0    0  501    0  0.00000000000E+00 -0.00000000000E+00 -0.79071938424E+03  0.79071938424E+03  0.00000000000E+00 0. -1.
         24    1    1    2    0    0  0.70057087576E+02  0.20824591981E+02 -0.72938792068E+03  0.73743854926E+03  0.80419002446E+02 0. -1.
        -24    1    1    2    0    0 -0.70057087576E+02 -0.20824591981E+02 -0.57895352026E+01  0.10882276335E+03  0.80419002446E+02 0.  1.
<mgrwt>
<rscale>  0 0.10866865E+03</rscale>
<asrwt>0</asrwt>
<pdfrwt beam="1">  1        2 0.12164914E+00 0.10866865E+03</pdfrwt>
<pdfrwt beam="2">  1       -2 0.85449117E-02 0.10866865E+03</pdfrwt>
<totfact> 0.29875956E+03</totfact>
</mgrwt>
</event>
<event>
 4    1  0.1437859E-001  0.1520315E+03  0.7546771E-02  0.1197999E+00
          4   -1    0    0  501    0  0.00000000000E+00  0.00000000000E+00  0.13620915969E+03  0.13620915969E+03  0.00000000000E+00 0. -1.
         -4   -1    0    0    0  501 -0.00000000000E+00 -0.00000000000E+00 -0.25757747154E+03  0.25757747154E+03  0.00000000000E+00 0.  1.
         24    1    1    2    0    0  0.10810026922E+03 -0.70432112657E+02  0.54326020277E+02  0.16144622365E+03  0.80419002446E+02 0.  1.
        -24    1    1    2    0    0 -0.10810026922E+03  0.70432112657E+02 -0.17569433212E+03  0.23234040758E+03  0.80419002446E+02 0. -1.
<mgrwt>
<rscale>  0 0.15203147E+03</rscale>
<asrwt>0</asrwt>
<pdfrwt beam="1">  1        4 0.20955255E-01 0.15203147E+03</pdfrwt>
<pdfrwt beam="2">  1       -4 0.39627304E-01 0.15203147E+03</pdfrwt>
<totfact> 0.21856241E+02</totfact>
</mgrwt>
</event>
<event>
 4    1  0.1437859E-001  0.9607117E+02  0.7546771E-02  0.1288782E+00
          1   -1    0    0  501    0  0.00000000000E+00  0.00000000000E+00  0.37414022108E+03  0.37414022108E+03  0.00000000000E+00 0. -1.
         -1   -1    0    0    0  501 -0.00000000000E+00 -0.00000000000E+00 -0.27557218745E+02  0.27557218745E+02  0.00000000000E+00 0.  1.
         24    1    1    2    0    0 -0.35732194679E+02 -0.38544264518E+02  0.23831438632E+03  0.25695021452E+03  0.80419002446E+02 0. -1.
        -24    1    1    2    0    0  0.35732194679E+02  0.38544264518E+02  0.10826861602E+03  0.14474722531E+03  0.80419002446E+02 0.  1.
<mgrwt>
<rscale>  0 0.96071163E+02</rscale>
<asrwt>0</asrwt>
<pdfrwt beam="1">  1        1 0.57560030E-01 0.96071175E+02</pdfrwt>
<pdfrwt beam="2">  1       -1 0.42395724E-02 0.96071175E+02</pdfrwt>
<totfact> 0.13622355E+04</totfact>
</mgrwt>
</event>
<event>
 4    1  0.1437859E-001  0.8107262E+02  0.7546771E-02  0.1326035E+00
         -2   -1    0    0    0  501 -0.00000000000E+00  0.00000000000E+00  0.23329991794E+02  0.23329991794E+02  0.00000000000E+00 0.  1.
          2   -1    0    0  501    0  0.00000000000E+00 -0.00000000000E+00 -0.36427889748E+03  0.36427889748E+03  0.00000000000E+00 0. -1.
         24    1    1    2    0    0 -0.70229867383E+01 -0.74987816555E+01 -0.26273182399E+03  0.27495596258E+03  0.80419002446E+02 0.  0.
        -24    1    1    2    0    0  0.70229867383E+01  0.74987816555E+01 -0.78217081703E+02  0.11265292670E+03  0.80419002446E+02 0.  1.
<mgrwt>
<rscale>  0 0.81072622E+02</rscale>
<asrwt>0</asrwt>
<pdfrwt beam="1">  1        2 0.56042911E-01 0.81072622E+02</pdfrwt>
<pdfrwt beam="2">  1       -2 0.35892293E-02 0.81072622E+02</pdfrwt>
<totfact> 0.25270399E+04</totfact>
</mgrwt>
</event>
<event>
 4    1  0.1437859E-001  0.1815313E+03  0.7546771E-02  0.1166329E+00
          2   -1    0    0  501    0  0.00000000000E+00  0.00000000000E+00  0.16044709784E+04  0.16044709784E+04  0.00000000000E+00 0. -1.
         -2   -1    0    0    0  501 -0.00000000000E+00 -0.00000000000E+00 -0.25562893035E+02  0.25562893035E+02  0.00000000000E+00 0.  1.
         24    1    1    2    0    0 -0.99696054172E+02 -0.12863548893E+03  0.11507794983E+04  0.11650094686E+04  0.80419002446E+02 0. -1.
        -24    1    1    2    0    0  0.99696054172E+02  0.12863548893E+03  0.42812858708E+03  0.46502440287E+03  0.80419002446E+02 0.  1.
<mgrwt>
<rscale>  0 0.18153129E+03</rscale>
<asrwt>0</asrwt>
<pdfrwt beam="1">  1        2 0.24684161E+00 0.18153129E+03</pdfrwt>
<pdfrwt beam="2">  1       -2 0.39327540E-02 0.18153129E+03</pdfrwt>
<totfact> 0.33755742E+03</totfact>
</mgrwt>
</event>
<event>
 4    1  0.1437859E-001  0.8044255E+02  0.7546771E-02  0.1327800E+00
         -2   -1    0    0    0  501 -0.00000000000E+00  0.00000000000E+00  0.49118777063E+01  0.49118777063E+01  0.00000000000E+00 0.  1.
          2   -1    0    0  501    0  0.00000000000E+00 -0.00000000000E+00 -0.15523052280E+04  0.15523052280E+04  0.00000000000E+00 0. -1.
         24    1    1    2    0    0  0.10771933266E+01 -0.16208654217E+01 -0.10765685307E+04  0.10795697314E+04  0.80419002446E+02 0.  0.
        -24    1    1    2    0    0 -0.10771933266E+01  0.16208654217E+01 -0.47082481950E+03  0.47764737428E+03  0.80419002446E+02 0.  1.
<mgrwt>
<rscale>  0 0.80442548E+02</rscale>
<asrwt>0</asrwt>
<pdfrwt beam="1">  1        2 0.23881641E+00 0.80442548E+02</pdfrwt>
<pdfrwt beam="2">  1       -2 0.75567280E-03 0.80442548E+02</pdfrwt>
<totfact> 0.37418714E+04</totfact>
</mgrwt>
</event>
<event>
 4    1  0.1437859E-001  0.8369055E+02  0.7546771E-02  0.1318893E+00
          2   -1    0    0  501    0  0.00000000000E+00  0.00000000000E+00  0.90702073090E+03  0.90702073090E+03  0.00000000000E+00 0. -1.
         -2   -1    0    0    0  501 -0.00000000000E+00 -0.00000000000E+00 -0.18384512153E+02  0.18384512153E+02  0.00000000000E+00 0.  1.
         24    1    1    2    0    0  0.81611843937E+01 -0.21686126911E+02  0.79669185574E+03  0.80107554075E+03  0.80419002446E+02 0. -1.
        -24    1    1    2    0    0 -0.81611843937E+01  0.21686126911E+02  0.91944363002E+02  0.12432970230E+03  0.80419002446E+02 0.  1.
<mgrwt>
<rscale>  0 0.83690555E+02</rscale>
<asrwt>0</asrwt>
<pdfrwt beam="1">  1        2 0.13954162E+00 0.83690555E+02</pdfrwt>
<pdfrwt beam="2">  1       -2 0.28283872E-02 0.83690555E+02</pdfrwt>
<totfact> 0.12865311E+04</totfact>
</mgrwt>
</event>
<event>
 4    1  0.1437859E-001  0.3798907E+03  0.7546771E-02  0.1050974E+00
         -2   -1    0    0    0  501 -0.00000000000E+00  0.00000000000E+00  0.42119206678E+02  0.42119206678E+02  0.00000000000E+00 0.  1.
          2   -1    0    0  501    0  0.00000000000E+00 -0.00000000000E+00 -0.34795199277E+04  0.34795199277E+04  0.00000000000E+00 0. -1.
         24    1    1    2    0    0  0.11458502912E+03 -0.35315705341E+03 -0.15011184430E+04  0.15484422589E+04  0.80419002446E+02 0. -1.
        -24    1    1    2    0    0 -0.11458502912E+03  0.35315705341E+03 -0.19362822781E+04  0.19731968755E+04  0.80419002446E+02 0.  1.
<mgrwt>
<rscale>  0 0.37989062E+03</rscale>
<asrwt>0</asrwt>
<pdfrwt beam="1">  1        2 0.53531085E+00 0.37989067E+03</pdfrwt>
<pdfrwt beam="2">  1       -2 0.64798768E-02 0.37989067E+03</pdfrwt>
<totfact> 0.13301165E+02</totfact>
</mgrwt>
</event>
<event>
 4    1  0.1437859E-001  0.1264901E+03  0.7546771E-02  0.1232759E+00
          3   -1    0    0  501    0  0.00000000000E+00  0.00000000000E+00  0.10605126746E+04  0.10605126746E+04  0.00000000000E+00 0. -1.
         -3   -1    0    0    0  501 -0.00000000000E+00 -0.00000000000E+00 -0.15978864496E+02  0.15978864496E+02  0.00000000000E+00 0.  1.
         24    1    1    2    0    0 -0.77772621361E+02 -0.59024889497E+02  0.39509015125E+03  0.41484450313E+03  0.80419002446E+02 0. -1.
        -24    1    1    2    0    0  0.77772621361E+02  0.59024889497E+02  0.64944365886E+03  0.66164703597E+03  0.80419002446E+02 0.  1.
<mgrwt>
<rscale>  0 0.12649006E+03</rscale>
<asrwt>0</asrwt>
<pdfrwt beam="1">  1        3 0.16315574E+00 0.12649006E+03</pdfrwt>
<pdfrwt beam="2">  1       -3 0.24582877E-02 0.12649006E+03</pdfrwt>
<totfact> 0.44448257E+02</totfact>
</mgrwt>
</event>
<event>
 4    1  0.1437859E-001  0.9483306E+02  0.7546771E-02  0.1291553E+00
         -2   -1    0    0    0  501 -0.00000000000E+00  0.00000000000E+00  0.18665555747E+02  0.18665555747E+02  0.00000000000E+00 0.  1.
          2   -1    0    0  501    0  0.00000000000E+00 -0.00000000000E+00 -0.49719236229E+03  0.49719236229E+03  0.00000000000E+00 0. -1.
         24    1    1    2    0    0 -0.45471970765E+02 -0.21410102607E+02 -0.28462686261E+03  0.30000959900E+03  0.80419002446E+02 0. -1.
        -24    1    1    2    0    0  0.45471970765E+02  0.21410102607E+02 -0.19389994393E+03  0.21584831903E+03  0.80419002446E+02 0.  1.
<mgrwt>
<rscale>  0 0.94833056E+02</rscale>
<asrwt>0</asrwt>
<pdfrwt beam="1">  1        2 0.76491130E-01 0.94833056E+02</pdfrwt>
<pdfrwt beam="2">  1       -2 0.28716241E-02 0.94833056E+02</pdfrwt>
<totfact> 0.25591324E+04</totfact>
</mgrwt>
</event>
<event>
 4    1  0.1437859E-001  0.1129353E+03  0.7546771E-02  0.1255229E+00
          2   -1    0    0  501    0  0.00000000000E+00  0.00000000000E+00  0.11870784830E+04  0.11870784830E+04  0.00000000000E+00 0. -1.
         -2   -1    0    0    0  501 -0.00000000000E+00 -0.00000000000E+00 -0.10800136227E+02  0.10800136227E+02  0.00000000000E+00 0.  1.
         24    1    1    2    0    0  0.62077168596E+02 -0.49331395940E+02  0.63118807265E+03  0.64121194663E+03  0.80419002446E+02 0.  0.
        -24    1    1    2    0    0 -0.62077168596E+02  0.49331395940E+02  0.54509027415E+03  0.55666667263E+03  0.80419002446E+02 0.  1.
<mgrwt>
<rscale>  0 0.11293528E+03</rscale>
<asrwt>0</asrwt>
<pdfrwt beam="1">  1        2 0.18262736E+00 0.11293528E+03</pdfrwt>
<pdfrwt beam="2">  1       -2 0.16615604E-02 0.11293528E+03</pdfrwt>
<totfact> 0.19524065E+04</totfact>
</mgrwt>
</event>
<event>
 4    1  0.1437859E-001  0.2085759E+03  0.7546771E-02  0.1142699E+00
         -2   -1    0    0    0  501 -0.00000000000E+00  0.00000000000E+00  0.35281897390E+03  0.35281897390E+03  0.00000000000E+00 0.  1.
          2   -1    0    0  501    0  0.00000000000E+00 -0.00000000000E+00 -0.23370160504E+03  0.23370160504E+03  0.00000000000E+00 0. -1.
         24    1    1    2    0    0 -0.36079758904E+02  0.18903688861E+03 -0.14200054361E+03  0.25232531502E+03  0.80419002446E+02 0. -1.
        -24    1    1    2    0    0  0.36079758904E+02 -0.18903688861E+03  0.26111791247E+03  0.33419526392E+03  0.80419002446E+02 0.  1.
<mgrwt>
<rscale>  0 0.20857591E+03</rscale>
<asrwt>0</asrwt>
<pdfrwt beam="1">  1        2 0.35954093E-01 0.20857591E+03</pdfrwt>
<pdfrwt beam="2">  1       -2 0.54279842E-01 0.20857591E+03</pdfrwt>
<totfact> 0.46863572E+02</totfact>
</mgrwt>
</event>
<event>
 4    1  0.1437859E-001  0.1073523E+03  0.7546771E-02  0.1265553E+00
         -2   -1    0    0    0  501 -0.00000000000E+00  0.00000000000E+00  0.10573522481E+02  0.10573522481E+02  0.00000000000E+00 0.  1.
          2   -1    0    0  501    0  0.00000000000E+00 -0.00000000000E+00 -0.14877066646E+04  0.14877066646E+04  0.00000000000E+00 0. -1.
         24    1    1    2    0    0 -0.66862447919E+01  0.70799707140E+02 -0.35120387888E+03  0.36724472072E+03  0.80419002446E+02 0.  0.
        -24    1    1    2    0    0  0.66862447919E+01 -0.70799707140E+02 -0.11259292633E+04  0.11310354664E+04  0.80419002446E+02 0. -1.
<mgrwt>
<rscale>  0 0.10735233E+03</rscale>
<asrwt>0</asrwt>
<pdfrwt beam="1">  1        2 0.22887794E+00 0.10735235E+03</pdfrwt>
<pdfrwt beam="2">  1       -2 0.16266958E-02 0.10735235E+03</pdfrwt>
<totfact> 0.13892854E+04</totfact>
</mgrwt>
</event>
<event>
 4    1  0.1437859E-001  0.9406877E+02  0.7546771E-02  0.1293287E+00
          1   -1    0    0  501    0  0.00000000000E+00  0.00000000000E+00  0.15957584235E+04  0.15957584235E+04  0.00000000000E+00 0. -1.
         -1   -1    0    0    0  501 -0.00000000000E+00 -0.00000000000E+00 -0.57068760489E+01  0.57068760489E+01  0.00000000000E+00 0.  1.
         24    1    1    2    0    0  0.22298971611E+02  0.43410531313E+02  0.66028539883E+03  0.66695257869E+03  0.80419002446E+02 0.  1.
        -24    1    1    2    0    0 -0.22298971611E+02 -0.43410531313E+02  0.92976614861E+03  0.93451272085E+03  0.80419002446E+02 0. -1.
<mgrwt>
<rscale>  0 0.94068774E+02</rscale>
<asrwt>0</asrwt>
<pdfrwt beam="1">  1        1 0.24550094E+00 0.94068774E+02</pdfrwt>
<pdfrwt beam="2">  1       -1 0.87798220E-03 0.94068774E+02</pdfrwt>
<totfact> 0.13325034E+04</totfact>
</mgrwt>
</event>
<event>
 4    1  0.1437859E-001  0.8222099E+02  0.7546771E-02  0.1322864E+00
         -1   -1    0    0    0  501 -0.00000000000E+00  0.00000000000E+00  0.62168542772E+03  0.62168542772E+03  0.00000000000E+00 0.  1.
          1   -1    0    0  501    0  0.00000000000E+00 -0.00000000000E+00 -0.15095991694E+02  0.15095991694E+02  0.00000000000E+00 0. -1.
         24    1    1    2    0    0  0.28698521912E+01 -0.16877164877E+02  0.47167116995E+03  0.47878385860E+03  0.80419002446E+02 0.  1.
        -24    1    1    2    0    0 -0.28698521912E+01  0.16877164877E+02  0.13491826608E+03  0.15799756081E+03  0.80419002446E+02 0. -1.
<mgrwt>
<rscale>  0 0.82220987E+02</rscale>
<asrwt>0</asrwt>
<pdfrwt beam="1">  1        1 0.23224607E-02 0.82220987E+02</pdfrwt>
<pdfrwt beam="2">  1       -1 0.95643892E-01 0.82220987E+02</pdfrwt>
<totfact> 0.49879361E+03</totfact>
</mgrwt>
</event>
<event>
 4    1  0.1437859E-001  0.1194250E+03  0.7546771E-02  0.1244049E+00
         -1   -1    0    0    0  501 -0.00000000000E+00  0.00000000000E+00  0.13619546014E+02  0.13619546014E+02  0.00000000000E+00 0.  1.
          1   -1    0    0  501    0  0.00000000000E+00 -0.00000000000E+00 -0.22122969452E+04  0.22122969452E+04  0.00000000000E+00 0. -1.
         24    1    1    2    0    0  0.68819577316E+02 -0.55308148633E+02 -0.29165961263E+03  0.31516292789E+03  0.80419002446E+02 0.  1.
        -24    1    1    2    0    0 -0.68819577316E+02  0.55308148633E+02 -0.19070177866E+04  0.19107535633E+04  0.80419002446E+02 0. -1.
<mgrwt>
<rscale>  0 0.11942505E+03</rscale>
<asrwt>0</asrwt>
<pdfrwt beam="1">  1        1 0.34035328E+00 0.11942505E+03</pdfrwt>
<pdfrwt beam="2">  1       -1 0.20953154E-02 0.11942505E+03</pdfrwt>
<totfact> 0.15863684E+03</totfact>
</mgrwt>
</event>
<event>
 4    1  0.1437859E-001  0.1231885E+03  0.7546771E-02  0.1237928E+00
         -2   -1    0    0    0  501 -0.00000000000E+00  0.00000000000E+00  0.23289862296E+02  0.23289862296E+02  0.00000000000E+00 0.  1.
          2   -1    0    0  501    0  0.00000000000E+00 -0.00000000000E+00 -0.15210117273E+04  0.15210117273E+04  0.00000000000E+00 0. -1.
         24    1    1    2    0    0 -0.61352511622E+02 -0.70314049938E+02 -0.13326438712E+04  0.13383254835E+04  0.80419002446E+02 0. -1.
        -24    1    1    2    0    0  0.61352511622E+02  0.70314049938E+02 -0.16507799378E+03  0.20597610611E+03  0.80419002446E+02 0.  1.
<mgrwt>
<rscale>  0 0.12318852E+03</rscale>
<asrwt>0</asrwt>
<pdfrwt beam="1">  1        2 0.23400179E+00 0.12318852E+03</pdfrwt>
<pdfrwt beam="2">  1       -2 0.35830559E-02 0.12318852E+03</pdfrwt>
<totfact> 0.42589046E+03</totfact>
</mgrwt>
</event>
<event>
 4    1  0.1437859E-001  0.1079046E+03  0.7546771E-02  0.1264500E+00
          1   -1    0    0  501    0  0.00000000000E+00  0.00000000000E+00  0.31646538364E+03  0.31646538364E+03  0.00000000000E+00 0. -1.
         -1   -1    0    0    0  501 -0.00000000000E+00 -0.00000000000E+00 -0.50833595691E+02  0.50833595691E+02  0.00000000000E+00 0.  1.
         24    1    1    2    0    0 -0.67401610626E+02  0.25163639353E+02  0.36294812348E+02  0.11384513700E+03  0.80419002446E+02 0.  1.
        -24    1    1    2    0    0  0.67401610626E+02 -0.25163639353E+02  0.22933697560E+03  0.25345384233E+03  0.80419002446E+02 0. -1.
<mgrwt>
<rscale>  0 0.10790460E+03</rscale>
<asrwt>0</asrwt>
<pdfrwt beam="1">  1        1 0.48686981E-01 0.10790460E+03</pdfrwt>
<pdfrwt beam="2">  1       -1 0.78205534E-02 0.10790460E+03</pdfrwt>
<totfact> 0.68472703E+03</totfact>
</mgrwt>
</event>
<event>
 4    1  0.1437859E-001  0.1360692E+03  0.7546771E-02  0.1218718E+00
          2   -1    0    0  501    0  0.00000000000E+00  0.00000000000E+00  0.23608301153E+04  0.23608301153E+04  0.00000000000E+00 0. -1.
         -2   -1    0    0    0  501 -0.00000000000E+00 -0.00000000000E+00 -0.18486514358E+02  0.18486514358E+02  0.00000000000E+00 0.  1.
         24    1    1    2    0    0  0.10154213525E+03  0.41675062219E+02  0.20738797468E+04  0.20783387684E+04  0.80419002446E+02 0. -1.
        -24    1    1    2    0    0 -0.10154213525E+03 -0.41675062219E+02  0.26846385417E+03  0.30097786130E+03  0.80419002446E+02 0.  1.
<mgrwt>
<rscale>  0 0.13606922E+03</rscale>
<asrwt>0</asrwt>
<pdfrwt beam="1">  1        2 0.36320439E+00 0.13606922E+03</pdfrwt>
<pdfrwt beam="2">  1       -2 0.28440810E-02 0.13606922E+03</pdfrwt>
<totfact> 0.22162728E+03</totfact>
</mgrwt>
</event>
<event>
 4    1  0.1437859E-001  0.9112925E+02  0.7546771E-02  0.1300140E+00
         -2   -1    0    0    0  501 -0.00000000000E+00  0.00000000000E+00  0.13260395102E+02  0.13260395102E+02  0.00000000000E+00 0.  1.
          2   -1    0    0  501    0  0.00000000000E+00 -0.00000000000E+00 -0.64550351487E+03  0.64550351487E+03  0.00000000000E+00 0. -1.
         24    1    1    2    0    0 -0.30247354273E+02  0.30371334098E+02 -0.25925937961E+03  0.27480895591E+03  0.80419002446E+02 0.  0.
        -24    1    1    2    0    0  0.30247354273E+02 -0.30371334098E+02 -0.37298374015E+03  0.38395495406E+03  0.80419002446E+02 0.  0.
<mgrwt>
<rscale>  0 0.91129240E+02</rscale>
<asrwt>0</asrwt>
<pdfrwt beam="1">  1        2 0.99308231E-01 0.91129252E+02</pdfrwt>
<pdfrwt beam="2">  1       -2 0.20400608E-02 0.91129252E+02</pdfrwt>
<totfact> 0.31280572E+04</totfact>
</mgrwt>
</event>
<event>
 4    1  0.1437859E-001  0.8749745E+02  0.7546771E-02  0.1309028E+00
          2   -1    0    0  501    0  0.00000000000E+00  0.00000000000E+00  0.11131429424E+04  0.11131429424E+04  0.00000000000E+00 0. -1.
         -2   -1    0    0    0  501 -0.00000000000E+00 -0.00000000000E+00 -0.72054160590E+01  0.72054160590E+01  0.00000000000E+00 0.  1.
         24    1    1    2    0    0  0.27028016834E+02  0.21402651453E+02  0.67244407571E+03  0.67811270310E+03  0.80419002446E+02 0.  1.
        -24    1    1    2    0    0 -0.27028016834E+02 -0.21402651453E+02  0.43349345062E+03  0.44223565536E+03  0.80419002446E+02 0.  0.
<mgrwt>
<rscale>  0 0.87497446E+02</rscale>
<asrwt>0</asrwt>
<pdfrwt beam="1">  1        2 0.17125262E+00 0.87497446E+02</pdfrwt>
<pdfrwt beam="2">  1       -2 0.11085264E-02 0.87497446E+02</pdfrwt>
<totfact> 0.37395787E+04</totfact>
</mgrwt>
</event>
<event>
 4    1  0.1437859E-001  0.9747457E+02  0.7546771E-02  0.1285698E+00
         -1   -1    0    0    0  501 -0.00000000000E+00  0.00000000000E+00  0.14304307184E+03  0.14304307184E+03  0.00000000000E+00 0.  1.
          1   -1    0    0  501    0  0.00000000000E+00 -0.00000000000E+00 -0.98340330742E+02  0.98340330742E+02  0.00000000000E+00 0. -1.
         24    1    1    2    0    0  0.55006277030E+02  0.28948314454E+01 -0.46407364193E+02  0.10795800094E+03  0.80419002446E+02 0. -1.
        -24    1    1    2    0    0 -0.55006277030E+02 -0.28948314454E+01  0.91110105288E+02  0.13342540164E+03  0.80419002446E+02 0.  1.
<mgrwt>
<rscale>  0 0.97474555E+02</rscale>
<asrwt>0</asrwt>
<pdfrwt beam="1">  1        1 0.15129282E-01 0.97474567E+02</pdfrwt>
<pdfrwt beam="2">  1       -1 0.22006627E-01 0.97474567E+02</pdfrwt>
<totfact> 0.58863844E+03</totfact>
</mgrwt>
</event>
<event>
 4    1  0.1720281E-001  0.1418812E+03  0.7546771E-02  0.1210820E+00
         -1   -1    0    0    0  501 -0.00000000000E+00  0.00000000000E+00  0.42022354431E+03  0.42022354431E+03  0.00000000000E+00 0.  1.
          1   -1    0    0  501    0  0.00000000000E+00 -0.00000000000E+00 -0.61684537844E+03  0.61684537844E+03  0.00000000000E+00 0. -1.
         24    1    1    2    0    0 -0.20953407018E+02 -0.11499576856E+03  0.39968217523E+03  0.42411806045E+03  0.80419002446E+02 0.  1.
        -24    1    1    2    0    0  0.20953407018E+02  0.11499576856E+03 -0.59630400936E+03  0.61295086230E+03  0.80419002446E+02 0. -1.
<mgrwt>
<rscale>  0 0.14188125E+03</rscale>
<asrwt>0</asrwt>
<pdfrwt beam="1">  1        1 0.94899289E-01 0.14188125E+03</pdfrwt>
<pdfrwt beam="2">  1       -1 0.64649776E-01 0.14188125E+03</pdfrwt>
<totfact> 0.89217534E+01</totfact>
</mgrwt>
</event>
<event>
 4    1  0.1437859E-001  0.1431175E+03  0.7546771E-02  0.1209195E+00
          1   -1    0    0  501    0  0.00000000000E+00  0.00000000000E+00  0.72598327498E+03  0.72598327498E+03  0.00000000000E+00 0. -1.
         -1   -1    0    0    0  501 -0.00000000000E+00 -0.00000000000E+00 -0.28375663999E+02  0.28375663999E+02  0.00000000000E+00 0.  1.
         24    1    1    2    0    0  0.11764084709E+03  0.13267506949E+02  0.37730742965E+03  0.40353873181E+03  0.80419002446E+02 0.  1.
        -24    1    1    2    0    0 -0.11764084709E+03 -0.13267506949E+02  0.32030018133E+03  0.35082020717E+03  0.80419002446E+02 0. -1.
<mgrwt>
<rscale>  0 0.14311749E+03</rscale>
<asrwt>0</asrwt>
<pdfrwt beam="1">  1        1 0.11168972E+00 0.14311751E+03</pdfrwt>
<pdfrwt beam="2">  1       -1 0.43654873E-02 0.14311751E+03</pdfrwt>
<totfact> 0.55940757E+03</totfact>
</mgrwt>
</event>
<event>
 4    1  0.2339769E-001  0.8166497E+02  0.7546771E-02  0.1324392E+00
         -1   -1    0    0    0  501 -0.00000000000E+00  0.00000000000E+00  0.18623684609E+02  0.18623684609E+02  0.00000000000E+00 0.  1.
          1   -1    0    0  501    0  0.00000000000E+00 -0.00000000000E+00 -0.28005639247E+04  0.28005639247E+04  0.00000000000E+00 0. -1.
         24    1    1    2    0    0  0.69816533998E+01  0.12377716240E+02 -0.74578245923E+02  0.11059422256E+03  0.80419002446E+02 0.  1.
        -24    1    1    2    0    0 -0.69816533998E+01 -0.12377716240E+02 -0.27073619941E+04  0.27085933867E+04  0.80419002446E+02 0. -1.
<mgrwt>
<rscale>  0 0.81664970E+02</rscale>
<asrwt>0</asrwt>
<pdfrwt beam="1">  1        1 0.43085557E+00 0.81664970E+02</pdfrwt>
<pdfrwt beam="2">  1       -1 0.28651850E-02 0.81664970E+02</pdfrwt>
<totfact> 0.42545855E+02</totfact>
</mgrwt>
</event>
<event>
 4    1  0.1437859E-001  0.8636806E+02  0.7546771E-02  0.1311893E+00
         -1   -1    0    0    0  501 -0.00000000000E+00  0.00000000000E+00  0.44654804047E+01  0.44654804047E+01  0.00000000000E+00 0.  1.
          1   -1    0    0  501    0  0.00000000000E+00 -0.00000000000E+00 -0.18399137802E+04  0.18399137802E+04  0.00000000000E+00 0. -1.
         24    1    1    2    0    0  0.30879854946E+02 -0.62177823388E+01 -0.63786671397E+03  0.64368733638E+03  0.80419002446E+02 0.  1.
        -24    1    1    2    0    0 -0.30879854946E+02  0.62177823388E+01 -0.11975815858E+04  0.12006919243E+04  0.80419002446E+02 0. -1.
<mgrwt>
<rscale>  0 0.86368062E+02</rscale>
<asrwt>0</asrwt>
<pdfrwt beam="1">  1        1 0.28306373E+00 0.86368062E+02</pdfrwt>
<pdfrwt beam="2">  1       -1 0.68699682E-03 0.86368062E+02</pdfrwt>
<totfact> 0.13141488E+04</totfact>
</mgrwt>
</event>
<event>
 4    1  0.1437859E-001  0.8276112E+02  0.7546771E-02  0.1321393E+00
         -1   -1    0    0    0  501 -0.00000000000E+00  0.00000000000E+00  0.44538489122E+03  0.44538489122E+03  0.00000000000E+00 0.  1.
          1   -1    0    0  501    0  0.00000000000E+00 -0.00000000000E+00 -0.10338378137E+03  0.10338378137E+03  0.00000000000E+00 0. -1.
         24    1    1    2    0    0  0.16043476885E+02 -0.11171134555E+02  0.42415595148E+03  0.43215468820E+03  0.80419002446E+02 0.  0.
        -24    1    1    2    0    0 -0.16043476885E+02  0.11171134555E+02 -0.82154841630E+02  0.11661398439E+03  0.80419002446E+02 0.  0.
<mgrwt>
<rscale>  0 0.82761122E+02</rscale>
<asrwt>0</asrwt>
<pdfrwt beam="1">  1        1 0.15905197E-01 0.82761122E+02</pdfrwt>
<pdfrwt beam="2">  1       -1 0.68520751E-01 0.82761122E+02</pdfrwt>
<totfact> 0.75846730E+02</totfact>
</mgrwt>
</event>
<event>
 4    1  0.1437859E-001  0.1238054E+03  0.7546771E-02  0.1236948E+00
         -3   -1    0    0    0  501 -0.00000000000E+00  0.00000000000E+00  0.19828888685E+03  0.19828888685E+03  0.00000000000E+00 0.  1.
          3   -1    0    0  501    0  0.00000000000E+00 -0.00000000000E+00 -0.88800419123E+02  0.88800419123E+02  0.00000000000E+00 0. -1.
         24    1    1    2    0    0  0.15881897750E+01  0.94117100469E+02  0.10640167897E+03  0.16324547219E+03  0.80419002446E+02 0.  1.
        -24    1    1    2    0    0 -0.15881897750E+01 -0.94117100469E+02  0.30867887546E+01  0.12384383379E+03  0.80419002446E+02 0. -1.
<mgrwt>
<rscale>  0 0.12380536E+03</rscale>
<asrwt>0</asrwt>
<pdfrwt beam="1">  1        3 0.13661603E-01 0.12380536E+03</pdfrwt>
<pdfrwt beam="2">  1       -3 0.30505983E-01 0.12380536E+03</pdfrwt>
<totfact> 0.10298363E+03</totfact>
</mgrwt>
</event>
<event>
 4    1  0.1437859E-001  0.8148177E+02  0.7546771E-02  0.1324898E+00
         -2   -1    0    0    0  501 -0.00000000000E+00  0.00000000000E+00  0.55819502450E+01  0.55819502450E+01  0.00000000000E+00 0.  1.
          2   -1    0    0  501    0  0.00000000000E+00 -0.00000000000E+00 -0.31656860010E+04  0.31656860010E+04  0.00000000000E+00 0. -1.
         24    1    1    2    0    0  0.80175060512E+01 -0.10381858469E+02 -0.28328810372E+04  0.28340526196E+04  0.80419002446E+02 0. -1.
        -24    1    1    2    0    0 -0.80175060512E+01  0.10381858469E+02 -0.32722301355E+03  0.33721533171E+03  0.80419002446E+02 0.  1.
<mgrwt>
<rscale>  0 0.81481773E+02</rscale>
<asrwt>0</asrwt>
<pdfrwt beam="1">  1        2 0.48702925E+00 0.81481773E+02</pdfrwt>
<pdfrwt beam="2">  1       -2 0.85876046E-03 0.81481773E+02</pdfrwt>
<totfact> 0.44676928E+03</totfact>
</mgrwt>
</event>
<event>
 4    1  0.1437859E-001  0.8489664E+02  0.7546771E-02  0.1315703E+00
         -1   -1    0    0    0  501 -0.00000000000E+00  0.00000000000E+00  0.23394958407E+03  0.23394958407E+03  0.00000000000E+00 0.  1.
          1   -1    0    0  501    0  0.00000000000E+00 -0.00000000000E+00 -0.31070763514E+02  0.31070763514E+02  0.00000000000E+00 0. -1.
         24    1    1    2    0    0  0.26335448846E+02  0.68313197718E+01  0.11363318942E+03  0.14184477603E+03  0.80419002446E+02 0.  0.
        -24    1    1    2    0    0 -0.26335448846E+02 -0.68313197718E+01  0.89245631140E+02  0.12317557155E+03  0.80419002446E+02 0. -1.
<mgrwt>
<rscale>  0 0.84896636E+02</rscale>
<asrwt>0</asrwt>
<pdfrwt beam="1">  1        1 0.47801176E-02 0.84896636E+02</pdfrwt>
<pdfrwt beam="2">  1       -1 0.35992243E-01 0.84896636E+02</pdfrwt>
<totfact> 0.11795681E+04</totfact>
</mgrwt>
</event>
<event>
 4    1  0.1437859E-001  0.8983982E+02  0.7546771E-02  0.1303240E+00
          1   -1    0    0  501    0  0.00000000000E+00  0.00000000000E+00  0.12283160439E+03  0.12283160439E+03  0.00000000000E+00 0. -1.
         -1   -1    0    0    0  501 -0.00000000000E+00 -0.00000000000E+00 -0.19472004811E+03  0.19472004811E+03  0.00000000000E+00 0.  1.
         24    1    1    2    0    0  0.40043330315E+02 -0.71347527788E+00 -0.16518268789E+03  0.18803327813E+03  0.80419002446E+02 0.  1.
        -24    1    1    2    0    0 -0.40043330315E+02  0.71347527788E+00  0.93294244171E+02  0.12951837437E+03  0.80419002446E+02 0. -1.
<mgrwt>
<rscale>  0 0.89839820E+02</rscale>
<asrwt>0</asrwt>
<pdfrwt beam="1">  1        1 0.18897170E-01 0.89839820E+02</pdfrwt>
<pdfrwt beam="2">  1       -1 0.29956930E-01 0.89839820E+02</pdfrwt>
<totfact> 0.26680249E+03</totfact>
</mgrwt>
</event>
<event>
 4    1  0.1437859E-001  0.8980261E+02  0.7546771E-02  0.1303330E+00
          3   -1    0    0  501    0  0.00000000000E+00  0.00000000000E+00  0.65605657995E+03  0.65605657995E+03  0.00000000000E+00 0. -1.
         -3   -1    0    0    0  501 -0.00000000000E+00 -0.00000000000E+00 -0.21521246092E+02  0.21521246092E+02  0.00000000000E+00 0.  1.
         24    1    1    2    0    0  0.23241225399E+01  0.39898504271E+02  0.95412653381E+02  0.13102702991E+03  0.80419002446E+02 0.  1.
        -24    1    1    2    0    0 -0.23241225399E+01 -0.39898504271E+02  0.53912268048E+03  0.54655079613E+03  0.80419002446E+02 0. -1.
<mgrwt>
<rscale>  0 0.89802607E+02</rscale>
<asrwt>0</asrwt>
<pdfrwt beam="1">  1        3 0.10093177E+00 0.89802607E+02</pdfrwt>
<pdfrwt beam="2">  1       -3 0.33109614E-02 0.89802607E+02</pdfrwt>
<totfact> 0.83582562E+02</totfact>
</mgrwt>
</event>
<event>
 4    1  0.1437859E-001  0.8317095E+02  0.7546771E-02  0.1320286E+00
         -2   -1    0    0    0  501 -0.00000000000E+00  0.00000000000E+00  0.10015673557E+03  0.10015673557E+03  0.00000000000E+00 0.  1.
          2   -1    0    0  501    0  0.00000000000E+00 -0.00000000000E+00 -0.89008609728E+02  0.89008609728E+02  0.00000000000E+00 0. -1.
         24    1    1    2    0    0 -0.19128558287E+02 -0.91809062497E+01 -0.39196088629E+02  0.91944222765E+02  0.80419002446E+02 0.  1.
        -24    1    1    2    0    0  0.19128558287E+02  0.91809062497E+01  0.50344214476E+02  0.97221122537E+02  0.80419002446E+02 0.  1.
<mgrwt>
<rscale>  0 0.83170949E+02</rscale>
<asrwt>0</asrwt>
<pdfrwt beam="1">  1        2 0.13693632E-01 0.83170949E+02</pdfrwt>
<pdfrwt beam="2">  1       -2 0.15408729E-01 0.83170949E+02</pdfrwt>
<totfact> 0.12675932E+04</totfact>
</mgrwt>
</event>
<event>
 4    1  0.1437859E-001  0.1037612E+03  0.7546771E-02  0.1272580E+00
          2   -1    0    0  501    0  0.00000000000E+00  0.00000000000E+00  0.31289180354E+03  0.31289180354E+03  0.00000000000E+00 0. -1.
         -2   -1    0    0    0  501 -0.00000000000E+00 -0.00000000000E+00 -0.31824789301E+03  0.31824789301E+03  0.00000000000E+00 0.  1.
         24    1    1    2    0    0 -0.38603738116E+02  0.52999217583E+02  0.29534405527E+03  0.31304072035E+03  0.80419002446E+02 0. -1.
        -24    1    1    2    0    0  0.38603738116E+02 -0.52999217583E+02 -0.30070014474E+03  0.31809897620E+03  0.80419002446E+02 0.  1.
<mgrwt>
<rscale>  0 0.10376118E+03</rscale>
<asrwt>0</asrwt>
<pdfrwt beam="1">  1        2 0.48137200E-01 0.10376118E+03</pdfrwt>
<pdfrwt beam="2">  1       -2 0.48961214E-01 0.10376118E+03</pdfrwt>
<totfact> 0.42040745E+02</totfact>
</mgrwt>
</event>
<event>
 4    1  0.1437859E-001  0.9137830E+02  0.7546771E-02  0.1299548E+00
         -1   -1    0    0    0  501 -0.00000000000E+00  0.00000000000E+00  0.13460662689E+03  0.13460662689E+03  0.00000000000E+00 0.  1.
          1   -1    0    0  501    0  0.00000000000E+00 -0.00000000000E+00 -0.21721445440E+03  0.21721445440E+03  0.00000000000E+00 0. -1.
         24    1    1    2    0    0  0.33300184765E+02  0.27818604219E+02  0.10738138643E+03  0.14099913174E+03  0.80419002446E+02 0.  1.
        -24    1    1    2    0    0 -0.33300184765E+02 -0.27818604219E+02 -0.18998921393E+03  0.21082194955E+03  0.80419002446E+02 0. -1.
<mgrwt>
<rscale>  0 0.91378296E+02</rscale>
<asrwt>0</asrwt>
<pdfrwt beam="1">  1        1 0.33417608E-01 0.91378296E+02</pdfrwt>
<pdfrwt beam="2">  1       -1 0.20708712E-01 0.91378296E+02</pdfrwt>
<totfact> 0.24005669E+03</totfact>
</mgrwt>
</event>
<event>
 4    1  0.1437859E-001  0.9059659E+02  0.7546771E-02  0.1301413E+00
          3   -1    0    0  501    0  0.00000000000E+00  0.00000000000E+00  0.11741481331E+04  0.11741481331E+04  0.00000000000E+00 0. -1.
         -3   -1    0    0    0  501 -0.00000000000E+00 -0.00000000000E+00 -0.72491961137E+01  0.72491961137E+01  0.00000000000E+00 0.  1.
         24    1    1    2    0    0  0.41713424939E+02 -0.71565841155E+00  0.69506364359E+03  0.70094308369E+03  0.80419002446E+02 0.  1.
        -24    1    1    2    0    0 -0.41713424939E+02  0.71565841155E+00  0.47183529342E+03  0.48045424554E+03  0.80419002446E+02 0.  0.
<mgrwt>
<rscale>  0 0.90596578E+02</rscale>
<asrwt>0</asrwt>
<pdfrwt beam="1">  1        3 0.18063802E+00 0.90596590E+02</pdfrwt>
<pdfrwt beam="2">  1       -3 0.11152619E-02 0.90596590E+02</pdfrwt>
<totfact> 0.10672860E+03</totfact>
</mgrwt>
</event>
<event>
 4    1  0.1437859E-001  0.8851419E+02  0.7546771E-02  0.1306490E+00
         -2   -1    0    0    0  501 -0.00000000000E+00  0.00000000000E+00  0.56948552780E+01  0.56948552780E+01  0.00000000000E+00 0.  1.
          2   -1    0    0  501    0  0.00000000000E+00 -0.00000000000E+00 -0.30812190512E+04  0.30812190512E+04  0.00000000000E+00 0. -1.
         24    1    1    2    0    0 -0.26078190936E+01 -0.36888288640E+02 -0.26860576811E+04  0.26875156983E+04  0.80419002446E+02 0. -1.
        -24    1    1    2    0    0  0.26078190936E+01  0.36888288640E+02 -0.38946651484E+03  0.39939820818E+03  0.80419002446E+02 0.  1.
<mgrwt>
<rscale>  0 0.88514194E+02</rscale>
<asrwt>0</asrwt>
<pdfrwt beam="1">  1        2 0.47403360E+00 0.88514194E+02</pdfrwt>
<pdfrwt beam="2">  1       -2 0.87613176E-03 0.88514194E+02</pdfrwt>
<totfact> 0.48632041E+03</totfact>
</mgrwt>
</event>
<event>
 4    1  0.1437859E-001  0.8196052E+02  0.7546771E-02  0.1323578E+00
          2   -1    0    0  501    0  0.00000000000E+00  0.00000000000E+00  0.50469610911E+02  0.50469610911E+02  0.00000000000E+00 0. -1.
         -2   -1    0    0    0  501 -0.00000000000E+00 -0.00000000000E+00 -0.17059507424E+03  0.17059507424E+03  0.00000000000E+00 0.  1.
         24    1    1    2    0    0  0.13588017200E+02  0.81041234826E+01 -0.82435271855E+01  0.82374041565E+02  0.80419002446E+02 0.  0.
        -24    1    1    2    0    0 -0.13588017200E+02 -0.81041234826E+01 -0.11188193614E+03  0.13869064359E+03  0.80419002446E+02 0.  1.
<mgrwt>
<rscale>  0 0.81960521E+02</rscale>
<asrwt>0</asrwt>
<pdfrwt beam="1">  1        2 0.77645556E-02 0.81960521E+02</pdfrwt>
<pdfrwt beam="2">  1       -2 0.26245396E-01 0.81960521E+02</pdfrwt>
<totfact> 0.10267957E+04</totfact>
</mgrwt>
</event>
<event>
 4    1  0.1437859E-001  0.9573580E+02  0.7546771E-02  0.1289527E+00
          2   -1    0    0  501    0  0.00000000000E+00  0.00000000000E+00  0.20599509196E+02  0.20599509196E+02  0.00000000000E+00 0. -1.
         -2   -1    0    0    0  501 -0.00000000000E+00 -0.00000000000E+00 -0.55207589359E+03  0.55207589359E+03  0.00000000000E+00 0.  1.
         24    1    1    2    0    0  0.46489812737E+02 -0.23169400563E+02 -0.39188227816E+03  0.40340681663E+03  0.80419002446E+02 0.  1.
        -24    1    1    2    0    0 -0.46489812737E+02  0.23169400563E+02 -0.13959410623E+03  0.16926858616E+03  0.80419002446E+02 0. -1.
<mgrwt>
<rscale>  0 0.95735793E+02</rscale>
<asrwt>0</asrwt>
<pdfrwt beam="1">  1        2 0.31691557E-02 0.95735805E+02</pdfrwt>
<pdfrwt beam="2">  1       -2 0.84934742E-01 0.95735805E+02</pdfrwt>
<totfact> 0.33483511E+03</totfact>
</mgrwt>
</event>
<event>
 4    1  0.1437859E-001  0.1924619E+03  0.7546771E-02  0.1156259E+00
         -2   -1    0    0    0  501 -0.00000000000E+00  0.00000000000E+00  0.12235227574E+03  0.12235227574E+03  0.00000000000E+00 0.  1.
          2   -1    0    0  501    0  0.00000000000E+00 -0.00000000000E+00 -0.84736315030E+03  0.84736315030E+03  0.00000000000E+00 0. -1.
         24    1    1    2    0    0  0.12015027890E+03 -0.12703646887E+03 -0.75121522731E+03  0.77547784471E+03  0.80419002446E+02 0. -1.
        -24    1    1    2    0    0 -0.12015027890E+03  0.12703646887E+03  0.26204352750E+02  0.19423758133E+03  0.80419002446E+02 0.  1.
<mgrwt>
<rscale>  0 0.19246187E+03</rscale>
<asrwt>0</asrwt>
<pdfrwt beam="1">  1        2 0.13036356E+00 0.19246187E+03</pdfrwt>
<pdfrwt beam="2">  1       -2 0.18823428E-01 0.19246187E+03</pdfrwt>
<totfact> 0.77292372E+02</totfact>
</mgrwt>
</event>
<event>
 4    1  0.1437859E-001  0.8486548E+02  0.7546771E-02  0.1315785E+00
          1   -1    0    0  501    0  0.00000000000E+00  0.00000000000E+00  0.58415019775E+02  0.58415019775E+02  0.00000000000E+00 0. -1.
         -1   -1    0    0    0  501 -0.00000000000E+00 -0.00000000000E+00 -0.16267863748E+03  0.16267863748E+03  0.00000000000E+00 0.  1.
         24    1    1    2    0    0  0.27027694203E+02  0.21065427360E+01 -0.10652583679E+03  0.13619803095E+03  0.80419002446E+02 0. -1.
        -24    1    1    2    0    0 -0.27027694203E+02 -0.21065427360E+01  0.22622190834E+01  0.84895626305E+02  0.80419002446E+02 0. -1.
<mgrwt>
<rscale>  0 0.84865480E+02</rscale>
<asrwt>0</asrwt>
<pdfrwt beam="1">  1        1 0.89869260E-02 0.84865480E+02</pdfrwt>
<pdfrwt beam="2">  1       -1 0.25027483E-01 0.84865480E+02</pdfrwt>
<totfact> 0.92915250E+03</totfact>
</mgrwt>
</event>
<event>
 4    1  0.1437859E-001  0.1030163E+03  0.7546771E-02  0.1274078E+00
          3   -1    0    0  501    0  0.00000000000E+00  0.00000000000E+00  0.21845253069E+03  0.21845253069E+03  0.00000000000E+00 0. -1.
         -3   -1    0    0    0  501 -0.00000000000E+00 -0.00000000000E+00 -0.54164767415E+02  0.54164767415E+02  0.00000000000E+00 0.  1.
         24    1    1    2    0    0  0.63638542736E+02 -0.97615482760E+01  0.38373786349E+02  0.10993141216E+03  0.80419002446E+02 0.  1.
        -24    1    1    2    0    0 -0.63638542736E+02  0.97615482760E+01  0.12591397693E+03  0.16268588595E+03  0.80419002446E+02 0. -1.
<mgrwt>
<rscale>  0 0.10301635E+03</rscale>
<asrwt>0</asrwt>
<pdfrwt beam="1">  1        3 0.33608081E-01 0.10301635E+03</pdfrwt>
<pdfrwt beam="2">  1       -3 0.83330413E-02 0.10301635E+03</pdfrwt>
<totfact> 0.18870219E+03</totfact>
</mgrwt>
</event>
<event>
 4    1  0.1437859E-001  0.1114456E+03  0.7546771E-02  0.1257916E+00
         -2   -1    0    0    0  501 -0.00000000000E+00  0.00000000000E+00  0.62386625849E+02  0.62386625849E+02  0.00000000000E+00 0.  1.
          2   -1    0    0  501    0  0.00000000000E+00 -0.00000000000E+00 -0.13212295174E+04  0.13212295174E+04  0.00000000000E+00 0. -1.
         24    1    1    2    0    0 -0.75666755201E+01  0.76783193321E+02 -0.12669816993E+04  0.12718737184E+04  0.80419002446E+02 0. -1.
        -24    1    1    2    0    0  0.75666755201E+01 -0.76783193321E+02  0.81388077488E+01  0.11174242480E+03  0.80419002446E+02 0.  1.
<mgrwt>
<rscale>  0 0.11144563E+03</rscale>
<asrwt>0</asrwt>
<pdfrwt beam="1">  1        2 0.20326607E+00 0.11144563E+03</pdfrwt>
<pdfrwt beam="2">  1       -2 0.95979429E-02 0.11144563E+03</pdfrwt>
<totfact> 0.12211363E+03</totfact>
</mgrwt>
</event>
<event>
 4    1  0.1437859E-001  0.1047853E+03  0.7546771E-02  0.1270543E+00
          2   -1    0    0  501    0  0.00000000000E+00  0.00000000000E+00  0.98903942255E+03  0.98903942255E+03  0.00000000000E+00 0. -1.
         -2   -1    0    0    0  501 -0.00000000000E+00 -0.00000000000E+00 -0.16703971928E+02  0.16703971928E+02  0.00000000000E+00 0.  1.
         24    1    1    2    0    0  0.48299216652E+02  0.46689770220E+02  0.77739465227E+03  0.78442489144E+03  0.80419002446E+02 0.  1.
        -24    1    1    2    0    0 -0.48299216652E+02 -0.46689770220E+02  0.19494079835E+03  0.22131850304E+03  0.80419002446E+02 0.  1.
<mgrwt>
<rscale>  0 0.10478533E+03</rscale>
<asrwt>0</asrwt>
<pdfrwt beam="1">  1        2 0.15215987E+00 0.10478533E+03</pdfrwt>
<pdfrwt beam="2">  1       -2 0.25698426E-02 0.10478533E+03</pdfrwt>
<totfact> 0.13412608E+04</totfact>
</mgrwt>
</event>
<event>
 4    1  0.1437859E-001  0.8161309E+02  0.7546771E-02  0.1324535E+00
         -3   -1    0    0    0  501 -0.00000000000E+00  0.00000000000E+00  0.92479983696E+03  0.92479983696E+03  0.00000000000E+00 0.  1.
          3   -1    0    0  501    0  0.00000000000E+00 -0.00000000000E+00 -0.13059831648E+02  0.13059831648E+02  0.00000000000E+00 0. -1.
         24    1    1    2    0    0 -0.13864837353E+02  0.11166796785E+01  0.76991795419E+03  0.77423145946E+03  0.80419002446E+02 0.  1.
        -24    1    1    2    0    0  0.13864837353E+02 -0.11166796785E+01  0.14182205113E+03  0.16362820915E+03  0.80419002446E+02 0.  0.
<mgrwt>
<rscale>  0 0.81613091E+02</rscale>
<asrwt>0</asrwt>
<pdfrwt beam="1">  1        3 0.20092056E-02 0.81613091E+02</pdfrwt>
<pdfrwt beam="2">  1       -3 0.14227685E+00 0.81613091E+02</pdfrwt>
<totfact> 0.78645830E+02</totfact>
</mgrwt>
</event>
<event>
 4    1  0.1437859E-001  0.3047258E+03  0.7546771E-02  0.1082902E+00
         -2   -1    0    0    0  501 -0.00000000000E+00  0.00000000000E+00  0.13140906778E+03  0.13140906778E+03  0.00000000000E+00 0. -1.
          2   -1    0    0  501    0  0.00000000000E+00 -0.00000000000E+00 -0.76350559556E+03  0.76350559556E+03  0.00000000000E+00 0.  1.
         24    1    1    2    0    0  0.27878930567E+03  0.93097211980E+02 -0.43817277891E+03  0.53371637409E+03  0.80419002446E+02 0.  0.
        -24    1    1    2    0    0 -0.27878930567E+03 -0.93097211980E+02 -0.19392374887E+03  0.36119828926E+03  0.80419002446E+02 0.  0.
<mgrwt>
<rscale>  0 0.30472575E+03</rscale>
<asrwt>0</asrwt>
<pdfrwt beam="1">  1        2 0.11746240E+00 0.30472575E+03</pdfrwt>
<pdfrwt beam="2">  1       -2 0.20216780E-01 0.30472575E+03</pdfrwt>
<totfact> 0.77844218E+02</totfact>
</mgrwt>
</event>
<event>
 4    1  0.1437859E-001  0.8965891E+02  0.7546771E-02  0.1303680E+00
         -1   -1    0    0    0  501 -0.00000000000E+00  0.00000000000E+00  0.55596745649E+03  0.55596745649E+03  0.00000000000E+00 0.  1.
          1   -1    0    0  501    0  0.00000000000E+00 -0.00000000000E+00 -0.42307871986E+02  0.42307871986E+02  0.00000000000E+00 0. -1.
         24    1    1    2    0    0 -0.35339351772E+02  0.17962038927E+02  0.49952683940E+03  0.50750939288E+03  0.80419002446E+02 0.  1.
        -24    1    1    2    0    0  0.35339351772E+02 -0.17962038927E+02  0.14132745105E+02  0.90765935596E+02  0.80419002446E+02 0. -1.
<mgrwt>
<rscale>  0 0.89658912E+02</rscale>
<asrwt>0</asrwt>
<pdfrwt beam="1">  1        1 0.65089038E-02 0.89658912E+02</pdfrwt>
<pdfrwt beam="2">  1       -1 0.85533450E-01 0.89658912E+02</pdfrwt>
<totfact> 0.15674046E+03</totfact>
</mgrwt>
</event>
<event>
 4    1  0.1437859E-001  0.1184489E+03  0.7546771E-02  0.1245678E+00
          1   -1    0    0  501    0  0.00000000000E+00  0.00000000000E+00  0.15706503892E+04  0.15706503892E+04  0.00000000000E+00 0. -1.
         -1   -1    0    0    0  501 -0.00000000000E+00 -0.00000000000E+00 -0.17385459132E+02  0.17385459132E+02  0.00000000000E+00 0.  1.
         24    1    1    2    0    0 -0.65431493601E+02 -0.57285643029E+02  0.22298082088E+03  0.25248878725E+03  0.80419002446E+02 0.  1.
        -24    1    1    2    0    0  0.65431493601E+02  0.57285643029E+02  0.13302841092E+04  0.13355470611E+04  0.80419002446E+02 0. -1.
<mgrwt>
<rscale>  0 0.11844890E+03</rscale>
<asrwt>0</asrwt>
<pdfrwt beam="1">  1        1 0.24163841E+00 0.11844890E+03</pdfrwt>
<pdfrwt beam="2">  1       -1 0.26746873E-02 0.11844890E+03</pdfrwt>
<totfact> 0.28479796E+03</totfact>
</mgrwt>
</event>
<event>
 4    1  0.1437859E-001  0.1226910E+03  0.7546771E-02  0.1238723E+00
         -1   -1    0    0    0  501 -0.00000000000E+00  0.00000000000E+00  0.79010904198E+03  0.79010904198E+03  0.00000000000E+00 0.  1.
          1   -1    0    0  501    0  0.00000000000E+00 -0.00000000000E+00 -0.34579738783E+02  0.34579738783E+02  0.00000000000E+00 0. -1.
         24    1    1    2    0    0 -0.92619396311E+02  0.27396270057E+01  0.65407988004E+03  0.66548746311E+03  0.80419002446E+02 0.  1.
        -24    1    1    2    0    0  0.92619396311E+02 -0.27396270057E+01  0.10144942316E+03  0.15920131765E+03  0.80419002446E+02 0.  0.
<mgrwt>
<rscale>  0 0.12269097E+03</rscale>
<asrwt>0</asrwt>
<pdfrwt beam="1">  1        1 0.53199604E-02 0.12269097E+03</pdfrwt>
<pdfrwt beam="2">  1       -1 0.12155522E+00 0.12269097E+03</pdfrwt>
<totfact> 0.96031674E+02</totfact>
</mgrwt>
</event>
<event>
 4    1  0.1437859E-001  0.1733472E+03  0.7546771E-02  0.1174402E+00
         -2   -1    0    0    0  501 -0.00000000000E+00  0.00000000000E+00  0.45384770219E+02  0.45384770219E+02  0.00000000000E+00 0.  1.
          2   -1    0    0  501    0  0.00000000000E+00 -0.00000000000E+00 -0.75593072216E+03  0.75593072216E+03  0.00000000000E+00 0. -1.
         24    1    1    2    0    0  0.15119261711E+03  0.26885254295E+02 -0.21411484708E+03  0.27548939736E+03  0.80419002446E+02 0.  0.
        -24    1    1    2    0    0 -0.15119261711E+03 -0.26885254295E+02 -0.49643110487E+03  0.52582609502E+03  0.80419002446E+02 0.  0.
<mgrwt>
<rscale>  0 0.17334719E+03</rscale>
<asrwt>0</asrwt>
<pdfrwt beam="1">  1        2 0.11629703E+00 0.17334721E+03</pdfrwt>
<pdfrwt beam="2">  1       -2 0.69822728E-02 0.17334721E+03</pdfrwt>
<totfact> 0.43816446E+03</totfact>
</mgrwt>
</event>
<event>
 4    1  0.1437859E-001  0.1135362E+03  0.7546771E-02  0.1254158E+00
         -1   -1    0    0    0  501 -0.00000000000E+00  0.00000000000E+00  0.11955211668E+03  0.11955211668E+03  0.00000000000E+00 0.  1.
          1   -1    0    0  501    0  0.00000000000E+00 -0.00000000000E+00 -0.17429668740E+03  0.17429668740E+03  0.00000000000E+00 0. -1.
         24    1    1    2    0    0 -0.15762047732E+02  0.78579910767E+02  0.63362632961E+02  0.13002032047E+03  0.80419002446E+02 0.  1.
        -24    1    1    2    0    0  0.15762047732E+02 -0.78579910767E+02 -0.11810720368E+03  0.16382848361E+03  0.80419002446E+02 0. -1.
<mgrwt>
<rscale>  0 0.11353616E+03</rscale>
<asrwt>0</asrwt>
<pdfrwt beam="1">  1        1 0.26814875E-01 0.11353616E+03</pdfrwt>
<pdfrwt beam="2">  1       -1 0.18392633E-01 0.11353616E+03</pdfrwt>
<totfact> 0.38473566E+03</totfact>
</mgrwt>
</event>
<event>
 4    1  0.1437859E-001  0.1123913E+03  0.7546771E-02  0.1256205E+00
         -1   -1    0    0    0  501 -0.00000000000E+00  0.00000000000E+00  0.12636353025E+02  0.12636353025E+02  0.00000000000E+00 0.  1.
          1   -1    0    0  501    0  0.00000000000E+00 -0.00000000000E+00 -0.14612665779E+04  0.14612665779E+04  0.00000000000E+00 0. -1.
         24    1    1    2    0    0 -0.62028702628E+02 -0.48135504624E+02 -0.31010603766E+03  0.32984474727E+03  0.80419002446E+02 0.  0.
        -24    1    1    2    0    0  0.62028702628E+02  0.48135504624E+02 -0.11385241873E+04  0.11440581837E+04  0.80419002446E+02 0. -1.
<mgrwt>
<rscale>  0 0.11239129E+03</rscale>
<asrwt>0</asrwt>
<pdfrwt beam="1">  1        1 0.22481014E+00 0.11239129E+03</pdfrwt>
<pdfrwt beam="2">  1       -1 0.19440552E-02 0.11239129E+03</pdfrwt>
<totfact> 0.52952177E+03</totfact>
</mgrwt>
</event>
<event>
 4    1  0.1437859E-001  0.1105408E+03  0.7546771E-02  0.1259572E+00
         -1   -1    0    0    0  501 -0.00000000000E+00  0.00000000000E+00  0.36962530266E+03  0.36962530266E+03  0.00000000000E+00 0.  1.
          1   -1    0    0  501    0  0.00000000000E+00 -0.00000000000E+00 -0.33618635106E+02  0.33618635106E+02  0.00000000000E+00 0. -1.
         24    1    1    2    0    0 -0.43172456508E+02  0.62355285505E+02  0.19402850922E+03  0.22330768231E+03  0.80419002446E+02 0.  1.
        -24    1    1    2    0    0  0.43172456508E+02 -0.62355285505E+02  0.14197815833E+03  0.17993625546E+03  0.80419002446E+02 0. -1.
<mgrwt>
<rscale>  0 0.11054076E+03</rscale>
<asrwt>0</asrwt>
<pdfrwt beam="1">  1        1 0.51720979E-02 0.11054076E+03</pdfrwt>
<pdfrwt beam="2">  1       -1 0.56865429E-01 0.11054076E+03</pdfrwt>
<totfact> 0.48149395E+03</totfact>
</mgrwt>
</event>
<event>
 4    1  0.1437859E-001  0.8257249E+02  0.7546771E-02  0.1321906E+00
         -1   -1    0    0    0  501 -0.00000000000E+00  0.00000000000E+00  0.94329543535E+03  0.94329543535E+03  0.00000000000E+00 0.  1.
          1   -1    0    0  501    0  0.00000000000E+00 -0.00000000000E+00 -0.23476988595E+02  0.23476988595E+02  0.00000000000E+00 0. -1.
         24    1    1    2    0    0 -0.17459499862E+02  0.67945526026E+01  0.86205651238E+03  0.86600210541E+03  0.80419002446E+02 0.  1.
        -24    1    1    2    0    0  0.17459499862E+02 -0.67945526026E+01  0.57761934371E+02  0.10077031853E+03  0.80419002446E+02 0.  0.
<mgrwt>
<rscale>  0 0.82572490E+02</rscale>
<asrwt>0</asrwt>
<pdfrwt beam="1">  1        1 0.36118451E-02 0.82572490E+02</pdfrwt>
<pdfrwt beam="2">  1       -1 0.14512235E+00 0.82572490E+02</pdfrwt>
<totfact> 0.10408585E+03</totfact>
</mgrwt>
</event>
<event>
 4    1  0.1437859E-001  0.9405705E+02  0.7546771E-02  0.1293314E+00
         -1   -1    0    0    0  501 -0.00000000000E+00  0.00000000000E+00  0.32417830467E+02  0.32417830467E+02  0.00000000000E+00 0.  1.
          1   -1    0    0  501    0  0.00000000000E+00 -0.00000000000E+00 -0.32409388279E+03  0.32409388279E+03  0.00000000000E+00 0. -1.
         24    1    1    2    0    0  0.74519489963E+01  0.48207686509E+02 -0.74989606229E+02  0.12029201794E+03  0.80419002446E+02 0.  1.
        -24    1    1    2    0    0 -0.74519489963E+01 -0.48207686509E+02 -0.21668644609E+03  0.23621969532E+03  0.80419002446E+02 0. -1.
<mgrwt>
<rscale>  0 0.94057049E+02</rscale>
<asrwt>0</asrwt>
<pdfrwt beam="1">  1        1 0.49860597E-01 0.94057049E+02</pdfrwt>
<pdfrwt beam="2">  1       -1 0.49873586E-02 0.94057049E+02</pdfrwt>
<totfact> 0.12798959E+04</totfact>
</mgrwt>
</event>
<event>
 4    1  0.1437859E-001  0.8254081E+02  0.7546771E-02  0.1321992E+00
         -2   -1    0    0    0  501 -0.00000000000E+00  0.00000000000E+00  0.53254748334E+01  0.53254748334E+01  0.00000000000E+00 0.  1.
          2   -1    0    0  501    0  0.00000000000E+00 -0.00000000000E+00 -0.12974113282E+04  0.12974113282E+04  0.00000000000E+00 0. -1.
         24    1    1    2    0    0 -0.11183251516E+02  0.14855998823E+02 -0.56912392315E+03  0.57507827438E+03  0.80419002446E+02 0. -1.
        -24    1    1    2    0    0  0.11183251516E+02 -0.14855998823E+02 -0.72296193023E+03  0.72765852866E+03  0.80419002446E+02 0.  1.
<mgrwt>
<rscale>  0 0.82540799E+02</rscale>
<asrwt>0</asrwt>
<pdfrwt beam="1">  1        2 0.19960190E+00 0.82540809E+02</pdfrwt>
<pdfrwt beam="2">  1       -2 0.81930318E-03 0.82540809E+02</pdfrwt>
<totfact> 0.45281218E+04</totfact>
</mgrwt>
</event>
<event>
 4    1  0.1437859E-001  0.9957550E+02  0.7546771E-02  0.1281191E+00
         -3   -1    0    0    0  501 -0.00000000000E+00  0.00000000000E+00  0.22024221193E+03  0.22024221193E+03  0.00000000000E+00 0.  1.
          3   -1    0    0  501    0  0.00000000000E+00 -0.00000000000E+00 -0.60697581980E+02  0.60697581980E+02  0.00000000000E+00 0. -1.
         24    1    1    2    0    0  0.23955066913E+01 -0.58671341165E+02  0.15116251510E+03  0.18101211742E+03  0.80419002446E+02 0. -1.
        -24    1    1    2    0    0 -0.23955066913E+01  0.58671341165E+02  0.83821148559E+01  0.99927676498E+02  0.80419002446E+02 0.  0.
<mgrwt>
<rscale>  0 0.99575502E+02</rscale>
<asrwt>0</asrwt>
<pdfrwt beam="1">  1        3 0.93380897E-02 0.99575502E+02</pdfrwt>
<pdfrwt beam="2">  1       -3 0.33883417E-01 0.99575502E+02</pdfrwt>
<totfact> 0.15340236E+03</totfact>
</mgrwt>
</event>
<event>
 4    1  0.1437859E-001  0.2656642E+03  0.7546771E-02  0.1103787E+00
          1   -1    0    0  501    0  0.00000000000E+00  0.00000000000E+00  0.16879072271E+03  0.16879072271E+03  0.00000000000E+00 0. -1.
         -1   -1    0    0    0  501 -0.00000000000E+00 -0.00000000000E+00 -0.53330817394E+03  0.53330817394E+03  0.00000000000E+00 0.  1.
         24    1    1    2    0    0  0.24564375301E+03  0.61395506584E+02 -0.34539590820E+03  0.43574741649E+03  0.80419002446E+02 0. -1.
        -24    1    1    2    0    0 -0.24564375301E+03 -0.61395506584E+02 -0.19121543027E+02  0.26635148016E+03  0.80419002446E+02 0.  1.
<mgrwt>
<rscale>  0 0.26566422E+03</rscale>
<asrwt>0</asrwt>
<pdfrwt beam="1">  1        1 0.25967804E-01 0.26566422E+03</pdfrwt>
<pdfrwt beam="2">  1       -1 0.82047409E-01 0.26566422E+03</pdfrwt>
<totfact> 0.28343576E+02</totfact>
</mgrwt>
</event>
<event>
 4    1  0.1437859E-001  0.9606004E+02  0.7546771E-02  0.1288806E+00
          2   -1    0    0  501    0  0.00000000000E+00  0.00000000000E+00  0.16423959704E+03  0.16423959704E+03  0.00000000000E+00 0. -1.
         -2   -1    0    0    0  501 -0.00000000000E+00 -0.00000000000E+00 -0.10890888158E+03  0.10890888158E+03  0.00000000000E+00 0.  1.
         24    1    1    2    0    0 -0.42408420163E+02  0.31013567379E+02  0.12269248672E+03  0.15582354673E+03  0.80419002446E+02 0. -1.
        -24    1    1    2    0    0  0.42408420163E+02 -0.31013567379E+02 -0.67361771264E+02  0.11732493190E+03  0.80419002446E+02 0.  1.
<mgrwt>
<rscale>  0 0.96060041E+02</rscale>
<asrwt>0</asrwt>
<pdfrwt beam="1">  1        2 0.25267630E-01 0.96060041E+02</pdfrwt>
<pdfrwt beam="2">  1       -2 0.16755213E-01 0.96060041E+02</pdfrwt>
<totfact> 0.56175573E+03</totfact>
</mgrwt>
</event>
<event>
 4    1  0.1437859E-001  0.8055670E+02  0.7546771E-02  0.1327479E+00
         -1   -1    0    0    0  501 -0.00000000000E+00  0.00000000000E+00  0.35818258211E+03  0.35818258211E+03  0.00000000000E+00 0.  1.
          1   -1    0    0  501    0  0.00000000000E+00 -0.00000000000E+00 -0.36985964733E+02  0.36985964733E+02  0.00000000000E+00 0. -1.
         24    1    1    2    0    0 -0.18297475595E+00 -0.47045221170E+01  0.30172263792E+03  0.31229142190E+03  0.80419002446E+02 0.  1.
        -24    1    1    2    0    0  0.18297475595E+00  0.47045221170E+01  0.19473979461E+02  0.82877124941E+02  0.80419002446E+02 0.  0.
<mgrwt>
<rscale>  0 0.80556700E+02</rscale>
<asrwt>0</asrwt>
<pdfrwt beam="1">  1        1 0.56901487E-02 0.80556700E+02</pdfrwt>
<pdfrwt beam="2">  1       -1 0.55105010E-01 0.80556700E+02</pdfrwt>
<totfact> 0.43791373E+03</totfact>
</mgrwt>
</event>
<event>
 4    1  0.1437859E-001  0.1504576E+03  0.7546771E-02  0.1199912E+00
          1   -1    0    0  501    0  0.00000000000E+00  0.00000000000E+00  0.10540554865E+03  0.10540554865E+03  0.00000000000E+00 0. -1.
         -1   -1    0    0    0  501 -0.00000000000E+00 -0.00000000000E+00 -0.23467013999E+03  0.23467013999E+03  0.00000000000E+00 0.  1.
         24    1    1    2    0    0  0.12223027743E+03  0.35071726995E+02 -0.15110877079E+02  0.15121448779E+03  0.80419002446E+02 0.  1.
        -24    1    1    2    0    0 -0.12223027743E+03 -0.35071726995E+02 -0.11415371426E+03  0.18886120086E+03  0.80419002446E+02 0. -1.
<mgrwt>
<rscale>  0 0.15045760E+03</rscale>
<asrwt>0</asrwt>
<pdfrwt beam="1">  1        1 0.16216239E-01 0.15045762E+03</pdfrwt>
<pdfrwt beam="2">  1       -1 0.36103098E-01 0.15045762E+03</pdfrwt>
<totfact> 0.24250292E+03</totfact>
</mgrwt>
</event>
<event>
 4    1  0.1437859E-001  0.8234072E+02  0.7546771E-02  0.1322537E+00
          2   -1    0    0  501    0  0.00000000000E+00  0.00000000000E+00  0.70436956017E+03  0.70436956017E+03  0.00000000000E+00 0. -1.
         -2   -1    0    0    0  501 -0.00000000000E+00 -0.00000000000E+00 -0.16976430856E+02  0.16976430856E+02  0.00000000000E+00 0.  1.
         24    1    1    2    0    0  0.13860630333E+01 -0.17631141873E+02  0.58102951210E+03  0.58683497529E+03  0.80419002446E+02 0. -1.
        -24    1    1    2    0    0 -0.13860630333E+01  0.17631141873E+02  0.10636361722E+03  0.13451101574E+03  0.80419002446E+02 0.  0.
<mgrwt>
<rscale>  0 0.82340721E+02</rscale>
<asrwt>0</asrwt>
<pdfrwt beam="1">  1        2 0.10836453E+00 0.82340721E+02</pdfrwt>
<pdfrwt beam="2">  1       -2 0.26117591E-02 0.82340721E+02</pdfrwt>
<totfact> 0.19615909E+04</totfact>
</mgrwt>
</event>
<event>
 4    1  0.1437859E-001  0.9153786E+02  0.7546771E-02  0.1299170E+00
          2   -1    0    0  501    0  0.00000000000E+00  0.00000000000E+00  0.94641700175E+03  0.94641700175E+03  0.00000000000E+00 0. -1.
         -2   -1    0    0    0  501 -0.00000000000E+00 -0.00000000000E+00 -0.22379136203E+02  0.22379136203E+02  0.00000000000E+00 0.  1.
         24    1    1    2    0    0  0.37528161950E+02  0.22441045131E+02  0.83859983986E+03  0.84358098059E+03  0.80419002446E+02 0. -1.
        -24    1    1    2    0    0 -0.37528161950E+02 -0.22441045131E+02  0.85438025687E+02  0.12521515736E+03  0.80419002446E+02 0.  1.
<mgrwt>
<rscale>  0 0.91537858E+02</rscale>
<asrwt>0</asrwt>
<pdfrwt beam="1">  1        2 0.14560258E+00 0.91537858E+02</pdfrwt>
<pdfrwt beam="2">  1       -2 0.34429448E-02 0.91537858E+02</pdfrwt>
<totfact> 0.92051391E+03</totfact>
</mgrwt>
</event>
<event>
 4    1  0.1437859E-001  0.8125448E+02  0.7546771E-02  0.1325529E+00
         -2   -1    0    0    0  501 -0.00000000000E+00  0.00000000000E+00  0.14805327262E+03  0.14805327262E+03  0.00000000000E+00 0.  1.
          2   -1    0    0  501    0  0.00000000000E+00 -0.00000000000E+00 -0.98489805776E+02  0.98489805776E+02  0.00000000000E+00 0. -1.
         24    1    1    2    0    0  0.39984278184E+01  0.10912719275E+02 -0.66407712367E+02  0.10493938766E+03  0.80419002446E+02 0.  0.
        -24    1    1    2    0    0 -0.39984278184E+01 -0.10912719275E+02  0.11597117921E+03  0.14160369073E+03  0.80419002446E+02 0.  1.
<mgrwt>
<rscale>  0 0.81254482E+02</rscale>
<asrwt>0</asrwt>
<pdfrwt beam="1">  1        2 0.15152278E-01 0.81254482E+02</pdfrwt>
<pdfrwt beam="2">  1       -2 0.22777427E-01 0.81254482E+02</pdfrwt>
<totfact> 0.58834542E+03</totfact>
</mgrwt>
</event>
<event>
 4    1  0.1437859E-001  0.1133888E+03  0.7546771E-02  0.1254420E+00
         -1   -1    0    0    0  501 -0.00000000000E+00  0.00000000000E+00  0.42739004389E+02  0.42739004389E+02  0.00000000000E+00 0.  1.
          1   -1    0    0  501    0  0.00000000000E+00 -0.00000000000E+00 -0.31370662916E+03  0.31370662916E+03  0.00000000000E+00 0. -1.
         24    1    1    2    0    0  0.48998439598E+02  0.63158224555E+02 -0.17159666996E+03  0.20567557344E+03  0.80419002446E+02 0. -1.
        -24    1    1    2    0    0 -0.48998439598E+02 -0.63158224555E+02 -0.99370954805E+02  0.15077006011E+03  0.80419002446E+02 0.  1.
<mgrwt>
<rscale>  0 0.11338883E+03</rscale>
<asrwt>0</asrwt>
<pdfrwt beam="1">  1        1 0.48262557E-01 0.11338885E+03</pdfrwt>
<pdfrwt beam="2">  1       -1 0.65752316E-02 0.11338885E+03</pdfrwt>
<totfact> 0.89999596E+03</totfact>
</mgrwt>
</event>
<event>
 4    1  0.1437859E-001  0.9367813E+02  0.7546771E-02  0.1294181E+00
         -2   -1    0    0    0  501 -0.00000000000E+00  0.00000000000E+00  0.81290240703E+01  0.81290240703E+01  0.00000000000E+00 0.  1.
          2   -1    0    0  501    0  0.00000000000E+00 -0.00000000000E+00 -0.11996686381E+04  0.11996686381E+04  0.00000000000E+00 0. -1.
         24    1    1    2    0    0  0.35542923467E+02 -0.32327565486E+02 -0.40466957521E+03  0.41537098112E+03  0.80419002446E+02 0.  1.
        -24    1    1    2    0    0 -0.35542923467E+02  0.32327565486E+02 -0.78687003878E+03  0.79242668101E+03  0.80419002446E+02 0. -1.
<mgrwt>
<rscale>  0 0.93678114E+02</rscale>
<asrwt>0</asrwt>
<pdfrwt beam="1">  1        2 0.18456442E+00 0.93678126E+02</pdfrwt>
<pdfrwt beam="2">  1       -2 0.12506190E-02 0.93678126E+02</pdfrwt>
<totfact> 0.28420938E+04</totfact>
</mgrwt>
</event>
<event>
 4    1  0.1437859E-001  0.1304272E+03  0.7546771E-02  0.1226823E+00
          2   -1    0    0  501    0  0.00000000000E+00  0.00000000000E+00  0.27326367301E+03  0.27326367301E+03  0.00000000000E+00 0. -1.
         -2   -1    0    0    0  501 -0.00000000000E+00 -0.00000000000E+00 -0.29885873415E+03  0.29885873415E+03  0.00000000000E+00 0.  1.
         24    1    1    2    0    0  0.97801664469E+02  0.31287146783E+02  0.24173268462E+03  0.27467427600E+03  0.80419002446E+02 0. -1.
        -24    1    1    2    0    0 -0.97801664469E+02 -0.31287146783E+02 -0.26732774576E+03  0.29744813116E+03  0.80419002446E+02 0.  1.
<mgrwt>
<rscale>  0 0.13042725E+03</rscale>
<asrwt>0</asrwt>
<pdfrwt beam="1">  1        2 0.42040565E-01 0.13042725E+03</pdfrwt>
<pdfrwt beam="2">  1       -2 0.45978267E-01 0.13042725E+03</pdfrwt>
<totfact> 0.54923379E+02</totfact>
</mgrwt>
</event>
<event>
 4    1  0.1437859E-001  0.9246661E+02  0.7546771E-02  0.1296986E+00
         -2   -1    0    0    0  501 -0.00000000000E+00  0.00000000000E+00  0.93943984922E+02  0.93943984922E+02  0.00000000000E+00 0.  1.
          2   -1    0    0  501    0  0.00000000000E+00 -0.00000000000E+00 -0.39576784524E+03  0.39576784524E+03  0.00000000000E+00 0. -1.
         24    1    1    2    0    0 -0.20691503602E+02  0.40678240464E+02 -0.36577710858E+03  0.37728366872E+03  0.80419002446E+02 0. -1.
        -24    1    1    2    0    0  0.20691503602E+02 -0.40678240464E+02  0.63953248258E+02  0.11242816144E+03  0.80419002446E+02 0.  1.
<mgrwt>
<rscale>  0 0.92466608E+02</rscale>
<asrwt>0</asrwt>
<pdfrwt beam="1">  1        2 0.60887362E-01 0.92466608E+02</pdfrwt>
<pdfrwt beam="2">  1       -2 0.14452920E-01 0.92466608E+02</pdfrwt>
<totfact> 0.28107324E+03</totfact>
</mgrwt>
</event>
<event>
 4    1  0.1437859E-001  0.9739013E+02  0.7546771E-02  0.1285882E+00
         -2   -1    0    0    0  501 -0.00000000000E+00  0.00000000000E+00  0.19670296476E+02  0.19670296476E+02  0.00000000000E+00 0.  1.
          2   -1    0    0  501    0  0.00000000000E+00 -0.00000000000E+00 -0.63585785734E+03  0.63585785734E+03  0.00000000000E+00 0. -1.
         24    1    1    2    0    0  0.26322670753E+02 -0.48215545132E+02 -0.46922199457E+03  0.47922240967E+03  0.80419002446E+02 0.  0.
        -24    1    1    2    0    0 -0.26322670753E+02  0.48215545132E+02 -0.14696556629E+03  0.17630574414E+03  0.80419002446E+02 0.  1.
<mgrwt>
<rscale>  0 0.97390132E+02</rscale>
<asrwt>0</asrwt>
<pdfrwt beam="1">  1        2 0.97824290E-01 0.97390132E+02</pdfrwt>
<pdfrwt beam="2">  1       -2 0.30261993E-02 0.97390132E+02</pdfrwt>
<totfact> 0.18104047E+04</totfact>
</mgrwt>
</event>
<event>
 4    1  0.1437859E-001  0.1825369E+03  0.7546771E-02  0.1165370E+00
          4   -1    0    0  501    0  0.00000000000E+00  0.00000000000E+00  0.17998758213E+04  0.17998758213E+04  0.00000000000E+00 0. -1.
         -4   -1    0    0    0  501 -0.00000000000E+00 -0.00000000000E+00 -0.22414812214E+02  0.22414812214E+02  0.00000000000E+00 0.  1.
         24    1    1    2    0    0 -0.10812678690E+03  0.12313037841E+03  0.50854430838E+03  0.54031196699E+03  0.80419002446E+02 0.  1.
        -24    1    1    2    0    0  0.10812678690E+03 -0.12313037841E+03  0.12689167007E+04  0.12819786665E+04  0.80419002446E+02 0. -1.
<mgrwt>
<rscale>  0 0.18253689E+03</rscale>
<asrwt>0</asrwt>
<pdfrwt beam="1">  1        4 0.27690386E+00 0.18253691E+03</pdfrwt>
<pdfrwt beam="2">  1       -4 0.34484341E-02 0.18253691E+03</pdfrwt>
<totfact> 0.38627900E+01</totfact>
</mgrwt>
</event>
<event>
 4    1  0.1437859E-001  0.8135243E+02  0.7546771E-02  0.1325257E+00
          2   -1    0    0  501    0  0.00000000000E+00  0.00000000000E+00  0.81208221593E+02  0.81208221593E+02  0.00000000000E+00 0. -1.
         -2   -1    0    0    0  501 -0.00000000000E+00 -0.00000000000E+00 -0.14709070981E+03  0.14709070981E+03  0.00000000000E+00 0.  1.
         24    1    1    2    0    0 -0.12214615048E+02 -0.13434456504E+01  0.43286438593E+02  0.92151686840E+02  0.80419002446E+02 0. -1.
        -24    1    1    2    0    0  0.12214615048E+02  0.13434456504E+01 -0.10916892681E+03  0.13614724457E+03  0.80419002446E+02 0.  0.
<mgrwt>
<rscale>  0 0.81352428E+02</rscale>
<asrwt>0</asrwt>
<pdfrwt beam="1">  1        2 0.12493573E-01 0.81352428E+02</pdfrwt>
<pdfrwt beam="2">  1       -2 0.22629340E-01 0.81352428E+02</pdfrwt>
<totfact> 0.74480695E+03</totfact>
</mgrwt>
</event>
<event>
 4    1  0.1437859E-001  0.9856480E+02  0.7546771E-02  0.1283343E+00
         -1   -1    0    0    0  501 -0.00000000000E+00  0.00000000000E+00  0.85704529856E+01  0.85704529856E+01  0.00000000000E+00 0.  1.
          1   -1    0    0  501    0  0.00000000000E+00 -0.00000000000E+00 -0.22125050617E+04  0.22125050617E+04  0.00000000000E+00 0. -1.
         24    1    1    2    0    0 -0.51216843418E+02 -0.24992767711E+02 -0.32644680400E+03  0.34100225114E+03  0.80419002446E+02 0.  1.
        -24    1    1    2    0    0  0.51216843418E+02  0.24992767711E+02 -0.18774878047E+04  0.18800732635E+04  0.80419002446E+02 0. -1.
<mgrwt>
<rscale>  0 0.98564798E+02</rscale>
<asrwt>0</asrwt>
<pdfrwt beam="1">  1        1 0.34038593E+00 0.98564798E+02</pdfrwt>
<pdfrwt beam="2">  1       -1 0.13185292E-02 0.98564798E+02</pdfrwt>
<totfact> 0.30724347E+03</totfact>
</mgrwt>
</event>
<event>
 4    1  0.1437859E-001  0.8483682E+02  0.7546771E-02  0.1315860E+00
          1   -1    0    0  501    0  0.00000000000E+00  0.00000000000E+00  0.12545334724E+02  0.12545334724E+02  0.00000000000E+00 0. -1.
         -1   -1    0    0    0  501 -0.00000000000E+00 -0.00000000000E+00 -0.58349019725E+03  0.58349019725E+03  0.00000000000E+00 0.  1.
         24    1    1    2    0    0  0.24655913003E+02 -0.11052413317E+02 -0.32407114258E+03  0.33499162869E+03  0.80419002446E+02 0. -1.
        -24    1    1    2    0    0 -0.24655913003E+02  0.11052413317E+02 -0.24687371995E+03  0.26104390328E+03  0.80419002446E+02 0.  0.
<mgrwt>
<rscale>  0 0.84836819E+02</rscale>
<asrwt>0</asrwt>
<pdfrwt beam="1">  1        1 0.19300513E-02 0.84836819E+02</pdfrwt>
<pdfrwt beam="2">  1       -1 0.89767732E-01 0.84836819E+02</pdfrwt>
<totfact> 0.73766881E+03</totfact>
</mgrwt>
</event>
<event>
 4    1  0.1437859E-001  0.8848841E+02  0.7546771E-02  0.1306554E+00
          1   -1    0    0  501    0  0.00000000000E+00  0.00000000000E+00  0.16187355071E+04  0.16187355071E+04  0.00000000000E+00 0. -1.
         -1   -1    0    0    0  501 -0.00000000000E+00 -0.00000000000E+00 -0.66515875962E+01  0.66515875962E+01  0.00000000000E+00 0.  1.
         24    1    1    2    0    0 -0.17028093487E+02 -0.32757074550E+02  0.38159301571E+03  0.39171855648E+03  0.80419002446E+02 0.  1.
        -24    1    1    2    0    0  0.17028093487E+02  0.32757074550E+02  0.12304909038E+04  0.12336685382E+04  0.80419002446E+02 0. -1.
<mgrwt>
<rscale>  0 0.88488405E+02</rscale>
<asrwt>0</asrwt>
<pdfrwt beam="1">  1        1 0.24903592E+00 0.88488405E+02</pdfrwt>
<pdfrwt beam="2">  1       -1 0.10233225E-02 0.88488405E+02</pdfrwt>
<totfact> 0.10345442E+04</totfact>
</mgrwt>
</event>
<event>
 4    1  0.1437859E-001  0.9000420E+02  0.7546771E-02  0.1302842E+00
         -2   -1    0    0    0  501 -0.00000000000E+00  0.00000000000E+00  0.63480227254E+01  0.63480227254E+01  0.00000000000E+00 0.  1.
          2   -1    0    0  501    0  0.00000000000E+00 -0.00000000000E+00 -0.15291528712E+04  0.15291528712E+04  0.00000000000E+00 0. -1.
         24    1    1    2    0    0 -0.82819224337E+01 -0.39559452613E+02 -0.10737184143E+04  0.10774841018E+04  0.80419002446E+02 0. -1.
        -24    1    1    2    0    0  0.82819224337E+01  0.39559452613E+02 -0.44908643423E+03  0.45801679215E+03  0.80419002446E+02 0.  1.
<mgrwt>
<rscale>  0 0.90004203E+02</rscale>
<asrwt>0</asrwt>
<pdfrwt beam="1">  1        2 0.23525452E+00 0.90004203E+02</pdfrwt>
<pdfrwt beam="2">  1       -2 0.97661792E-03 0.90004203E+02</pdfrwt>
<totfact> 0.27040457E+04</totfact>
</mgrwt>
</event>
<event>
 4    1  0.1437859E-001  0.9934905E+02  0.7546771E-02  0.1281671E+00
          2   -1    0    0  501    0  0.00000000000E+00  0.00000000000E+00  0.16201733427E+03  0.16201733427E+03  0.00000000000E+00 0. -1.
         -2   -1    0    0    0  501 -0.00000000000E+00 -0.00000000000E+00 -0.13620613686E+03  0.13620613686E+03  0.00000000000E+00 0.  1.
         24    1    1    2    0    0  0.58054256210E+02  0.57201748359E+01  0.12376398555E+03  0.15870651259E+03  0.80419002446E+02 0. -1.
        -24    1    1    2    0    0 -0.58054256210E+02 -0.57201748359E+01 -0.97952788138E+02  0.13951695855E+03  0.80419002446E+02 0.  1.
<mgrwt>
<rscale>  0 0.99349046E+02</rscale>
<asrwt>0</asrwt>
<pdfrwt beam="1">  1        2 0.24925744E-01 0.99349046E+02</pdfrwt>
<pdfrwt beam="2">  1       -2 0.20954790E-01 0.99349046E+02</pdfrwt>
<totfact> 0.39382369E+03</totfact>
</mgrwt>
</event>
<event>
 4    1  0.1437859E-001  0.9927868E+02  0.7546771E-02  0.1281820E+00
         -1   -1    0    0    0  501 -0.00000000000E+00  0.00000000000E+00  0.23719463366E+02  0.23719463366E+02  0.00000000000E+00 0.  1.
          1   -1    0    0  501    0  0.00000000000E+00 -0.00000000000E+00 -0.57159824306E+03  0.57159824306E+03  0.00000000000E+00 0. -1.
         24    1    1    2    0    0  0.96393745446E+01 -0.57411864571E+02 -0.11840574443E+03  0.15451917682E+03  0.80419002446E+02 0.  1.
        -24    1    1    2    0    0 -0.96393745446E+01  0.57411864571E+02 -0.42947303526E+03  0.44079852961E+03  0.80419002446E+02 0. -1.
<mgrwt>
<rscale>  0 0.99278677E+02</rscale>
<asrwt>0</asrwt>
<pdfrwt beam="1">  1        1 0.87938190E-01 0.99278677E+02</pdfrwt>
<pdfrwt beam="2">  1       -1 0.36491482E-02 0.99278677E+02</pdfrwt>
<totfact> 0.98994271E+03</totfact>
</mgrwt>
</event>
<event>
 4    1  0.1437859E-001  0.1887910E+03  0.7546771E-02  0.1159556E+00
         -2   -1    0    0    0  501 -0.00000000000E+00  0.00000000000E+00  0.10578689819E+03  0.10578689819E+03  0.00000000000E+00 0.  1.
          2   -1    0    0  501    0  0.00000000000E+00 -0.00000000000E+00 -0.73198108175E+03  0.73198108175E+03  0.00000000000E+00 0. -1.
         24    1    1    2    0    0 -0.30937149511E+02  0.16798132781E+03 -0.62083022146E+03  0.64890077326E+03  0.80419002446E+02 0. -1.
        -24    1    1    2    0    0  0.30937149511E+02 -0.16798132781E+03 -0.53639620970E+01  0.18886720668E+03  0.80419002446E+02 0.  1.
<mgrwt>
<rscale>  0 0.18879102E+03</rscale>
<asrwt>0</asrwt>
<pdfrwt beam="1">  1        2 0.11261247E+00 0.18879102E+03</pdfrwt>
<pdfrwt beam="2">  1       -2 0.16274908E-01 0.18879102E+03</pdfrwt>
<totfact> 0.11851877E+03</totfact>
</mgrwt>
</event>
<event>
 4    1  0.1437859E-001  0.1073277E+03  0.7546771E-02  0.1265600E+00
         -1   -1    0    0    0  501 -0.00000000000E+00  0.00000000000E+00  0.12404931869E+02  0.12404931869E+02  0.00000000000E+00 0.  1.
          1   -1    0    0  501    0  0.00000000000E+00 -0.00000000000E+00 -0.13500794833E+04  0.13500794833E+04  0.00000000000E+00 0. -1.
         24    1    1    2    0    0 -0.63026730424E+02 -0.32858037908E+02 -0.28820163627E+03  0.30753767006E+03  0.80419002446E+02 0.  1.
        -24    1    1    2    0    0  0.63026730424E+02  0.32858037908E+02 -0.10494729151E+04  0.10549467451E+04  0.80419002446E+02 0. -1.
<mgrwt>
<rscale>  0 0.10732770E+03</rscale>
<asrwt>0</asrwt>
<pdfrwt beam="1">  1        1 0.20770446E+00 0.10732770E+03</pdfrwt>
<pdfrwt beam="2">  1       -1 0.19084518E-02 0.10732770E+03</pdfrwt>
<totfact> 0.64115858E+03</totfact>
</mgrwt>
</event>
<event>
 4    1  0.1437859E-001  0.1247103E+03  0.7546771E-02  0.1235523E+00
         -2   -1    0    0    0  501 -0.00000000000E+00  0.00000000000E+00  0.61298267672E+02  0.61298267672E+02  0.00000000000E+00 0.  1.
          2   -1    0    0  501    0  0.00000000000E+00 -0.00000000000E+00 -0.35218744726E+03  0.35218744726E+03  0.00000000000E+00 0. -1.
         24    1    1    2    0    0  0.95162605977E+02 -0.54335002170E+01 -0.36127612166E+02  0.12983784046E+03  0.80419002446E+02 0.  1.
        -24    1    1    2    0    0 -0.95162605977E+02  0.54335002170E+01 -0.25476156742E+03  0.28364787447E+03  0.80419002446E+02 0. -1.
<mgrwt>
<rscale>  0 0.12471032E+03</rscale>
<asrwt>0</asrwt>
<pdfrwt beam="1">  1        2 0.54182685E-01 0.12471034E+03</pdfrwt>
<pdfrwt beam="2">  1       -2 0.94305025E-02 0.12471034E+03</pdfrwt>
<totfact> 0.63592187E+03</totfact>
</mgrwt>
</event>
<event>
 4    1  0.1437859E-001  0.8763133E+02  0.7546771E-02  0.1308691E+00
         -2   -1    0    0    0  501 -0.00000000000E+00  0.00000000000E+00  0.17316113020E+03  0.17316113020E+03  0.00000000000E+00 0.  1.
          2   -1    0    0  501    0  0.00000000000E+00 -0.00000000000E+00 -0.10629915093E+03  0.10629915093E+03  0.00000000000E+00 0. -1.
         24    1    1    2    0    0  0.34050243265E+02  0.72535797768E+01 -0.73241374241E+02  0.11420835495E+03  0.80419002446E+02 0. -1.
        -24    1    1    2    0    0 -0.34050243265E+02 -0.72535797768E+01  0.14010335351E+03  0.16525192618E+03  0.80419002446E+02 0.  1.
<mgrwt>
<rscale>  0 0.87631327E+02</rscale>
<asrwt>0</asrwt>
<pdfrwt beam="1">  1        2 0.16353716E-01 0.87631327E+02</pdfrwt>
<pdfrwt beam="2">  1       -2 0.26640174E-01 0.87631327E+02</pdfrwt>
<totfact> 0.41398701E+03</totfact>
</mgrwt>
</event>
<event>
 4    1  0.1437859E-001  0.1179721E+03  0.7546771E-02  0.1246481E+00
         -2   -1    0    0    0  501 -0.00000000000E+00  0.00000000000E+00  0.20448906000E+03  0.20448906000E+03  0.00000000000E+00 0.  1.
          2   -1    0    0  501    0  0.00000000000E+00 -0.00000000000E+00 -0.70660970197E+02  0.70660970197E+02  0.00000000000E+00 0. -1.
         24    1    1    2    0    0 -0.69308049836E+02  0.51444912105E+02  0.93311883610E+02  0.15041445519E+03  0.80419002446E+02 0. -1.
        -24    1    1    2    0    0  0.69308049836E+02 -0.51444912105E+02  0.40516206196E+02  0.12473557501E+03  0.80419002446E+02 0.  1.
<mgrwt>
<rscale>  0 0.11797205E+03</rscale>
<asrwt>0</asrwt>
<pdfrwt beam="1">  1        2 0.10870919E-01 0.11797206E+03</pdfrwt>
<pdfrwt beam="2">  1       -2 0.31459855E-01 0.11797206E+03</pdfrwt>
<totfact> 0.50920433E+03</totfact>
</mgrwt>
</event>
<event>
 4    1  0.1437859E-001  0.8344450E+02  0.7546771E-02  0.1319551E+00
          1   -1    0    0  501    0  0.00000000000E+00  0.00000000000E+00  0.13587677168E+03  0.13587677168E+03  0.00000000000E+00 0. -1.
         -1   -1    0    0    0  501 -0.00000000000E+00 -0.00000000000E+00 -0.68205446431E+02  0.68205446431E+02  0.00000000000E+00 0.  1.
         24    1    1    2    0    0  0.22264853072E+02  0.21170803614E+00 -0.17048921943E+02  0.85168363824E+02  0.80419002446E+02 0.  1.
        -24    1    1    2    0    0 -0.22264853072E+02 -0.21170803614E+00  0.84720247191E+02  0.11891385429E+03  0.80419002446E+02 0. -1.
<mgrwt>
<rscale>  0 0.83444499E+02</rscale>
<asrwt>0</asrwt>
<pdfrwt beam="1">  1        1 0.20904119E-01 0.83444499E+02</pdfrwt>
<pdfrwt beam="2">  1       -1 0.10493146E-01 0.83444499E+02</pdfrwt>
<totfact> 0.12190520E+04</totfact>
</mgrwt>
</event>
<event>
 4    1  0.1437859E-001  0.8739828E+02  0.7546771E-02  0.1309277E+00
          4   -1    0    0  501    0  0.00000000000E+00  0.00000000000E+00  0.32207810926E+01  0.32207810926E+01  0.00000000000E+00 0. -1.
         -4   -1    0    0    0  501 -0.00000000000E+00 -0.00000000000E+00 -0.24408188352E+04  0.24408188352E+04  0.00000000000E+00 0.  1.
         24    1    1    2    0    0 -0.27592295225E+02 -0.20246200926E+02 -0.10130351601E+04  0.10167982567E+04  0.80419002446E+02 0.  0.
        -24    1    1    2    0    0  0.27592295225E+02  0.20246200926E+02 -0.14245628940E+04  0.14272413595E+04  0.80419002446E+02 0. -1.
<mgrwt>
<rscale>  0 0.87398280E+02</rscale>
<asrwt>0</asrwt>
<pdfrwt beam="1">  1        4 0.49550323E-03 0.87398280E+02</pdfrwt>
<pdfrwt beam="2">  1       -4 0.37551177E+00 0.87398280E+02</pdfrwt>
<totfact> 0.17654854E+02</totfact>
</mgrwt>
</event>
<event>
 4    1  0.1437859E-001  0.1081829E+03  0.7546771E-02  0.1263972E+00
         -2   -1    0    0    0  501 -0.00000000000E+00  0.00000000000E+00  0.24495390489E+02  0.24495390489E+02  0.00000000000E+00 0.  1.
          2   -1    0    0  501    0  0.00000000000E+00 -0.00000000000E+00 -0.53914215381E+03  0.53914215381E+03  0.00000000000E+00 0. -1.
         24    1    1    2    0    0  0.55586919679E+02 -0.46329334465E+02 -0.16225172380E+03  0.19501064254E+03  0.80419002446E+02 0.  1.
        -24    1    1    2    0    0 -0.55586919679E+02  0.46329334465E+02 -0.35239503951E+03  0.36862690176E+03  0.80419002446E+02 0. -1.
<mgrwt>
<rscale>  0 0.10818286E+03</rscale>
<asrwt>0</asrwt>
<pdfrwt beam="1">  1        2 0.82944938E-01 0.10818288E+03</pdfrwt>
<pdfrwt beam="2">  1       -2 0.37685220E-02 0.10818288E+03</pdfrwt>
<totfact> 0.15936974E+04</totfact>
</mgrwt>
</event>
<event>
 4    1  0.1437859E-001  0.1079389E+03  0.7546771E-02  0.1264435E+00
          2   -1    0    0  501    0  0.00000000000E+00  0.00000000000E+00  0.55364335633E+02  0.55364335633E+02  0.00000000000E+00 0. -1.
         -2   -1    0    0    0  501 -0.00000000000E+00 -0.00000000000E+00 -0.25104133209E+03  0.25104133209E+03  0.00000000000E+00 0.  1.
         24    1    1    2    0    0 -0.34406816310E+01  0.71914879745E+02 -0.15945127185E+03  0.19255002536E+03  0.80419002446E+02 0.  0.
        -24    1    1    2    0    0  0.34406816310E+01 -0.71914879745E+02 -0.36225724604E+02  0.11385564236E+03  0.80419002446E+02 0.  0.
<mgrwt>
<rscale>  0 0.10793890E+03</rscale>
<asrwt>0</asrwt>
<pdfrwt beam="1">  1        2 0.85175900E-02 0.10793892E+03</pdfrwt>
<pdfrwt beam="2">  1       -2 0.38621744E-01 0.10793892E+03</pdfrwt>
<totfact> 0.46780385E+03</totfact>
</mgrwt>
</event>
<event>
 4    1  0.1437859E-001  0.8665190E+02  0.7546771E-02  0.1311168E+00
         -1   -1    0    0    0  501 -0.00000000000E+00  0.00000000000E+00  0.16015369039E+02  0.16015369039E+02  0.00000000000E+00 0.  1.
          1   -1    0    0  501    0  0.00000000000E+00 -0.00000000000E+00 -0.61309286061E+03  0.61309286061E+03  0.00000000000E+00 0. -1.
         24    1    1    2    0    0  0.19192450067E+02  0.25941964047E+02 -0.14595674827E+03  0.16974075514E+03  0.80419002446E+02 0.  0.
        -24    1    1    2    0    0 -0.19192450067E+02 -0.25941964047E+02 -0.45112074330E+03  0.45936747450E+03  0.80419002446E+02 0.  0.
<mgrwt>
<rscale>  0 0.86651899E+02</rscale>
<asrwt>0</asrwt>
<pdfrwt beam="1">  1        1 0.94321982E-01 0.86651899E+02</pdfrwt>
<pdfrwt beam="2">  1       -1 0.24639028E-02 0.86651899E+02</pdfrwt>
<totfact> 0.15695941E+04</totfact>
</mgrwt>
</event>
<event>
 4    1  0.1437859E-001  0.1217898E+03  0.7546771E-02  0.1240173E+00
          1   -1    0    0  501    0  0.00000000000E+00  0.00000000000E+00  0.12043223413E+04  0.12043223413E+04  0.00000000000E+00 0. -1.
         -1   -1    0    0    0  501 -0.00000000000E+00 -0.00000000000E+00 -0.15053339731E+02  0.15053339731E+02  0.00000000000E+00 0.  1.
         24    1    1    2    0    0  0.84637490370E+02  0.34670252999E+02  0.33465756528E+03  0.35612979821E+03  0.80419002446E+02 0.  1.
        -24    1    1    2    0    0 -0.84637490370E+02 -0.34670252999E+02  0.85461143626E+03  0.86324588279E+03  0.80419002446E+02 0. -1.
<mgrwt>
<rscale>  0 0.12178977E+03</rscale>
<asrwt>0</asrwt>
<pdfrwt beam="1">  1        1 0.18528028E+00 0.12178977E+03</pdfrwt>
<pdfrwt beam="2">  1       -1 0.23158994E-02 0.12178977E+03</pdfrwt>
<totfact> 0.61071113E+03</totfact>
</mgrwt>
</event>
<event>
 4    1  0.1437859E-001  0.8824063E+02  0.7546771E-02  0.1307169E+00
         -2   -1    0    0    0  501 -0.00000000000E+00  0.00000000000E+00  0.94995154159E+01  0.94995154159E+01  0.00000000000E+00 0.  1.
          2   -1    0    0  501    0  0.00000000000E+00 -0.00000000000E+00 -0.21463755514E+04  0.21463755514E+04  0.00000000000E+00 0. -1.
         24    1    1    2    0    0 -0.76178967578E+00  0.36312699248E+02 -0.19159171914E+04  0.19179481466E+04  0.80419002446E+02 0.  0.
        -24    1    1    2    0    0  0.76178967578E+00 -0.36312699248E+02 -0.22095884455E+03  0.23792692027E+03  0.80419002446E+02 0.  0.
<mgrwt>
<rscale>  0 0.88240628E+02</rscale>
<asrwt>0</asrwt>
<pdfrwt beam="1">  1        2 0.33021194E+00 0.88240628E+02</pdfrwt>
<pdfrwt beam="2">  1       -2 0.14614625E-02 0.88240628E+02</pdfrwt>
<totfact> 0.74583800E+03</totfact>
</mgrwt>
</event>
<event>
 4    1  0.1437859E-001  0.9882768E+02  0.7546771E-02  0.1282781E+00
          2   -1    0    0  501    0  0.00000000000E+00  0.00000000000E+00  0.30466595602E+03  0.30466595602E+03  0.00000000000E+00 0. -1.
         -2   -1    0    0    0  501 -0.00000000000E+00 -0.00000000000E+00 -0.39793069771E+02  0.39793069771E+02  0.00000000000E+00 0.  1.
         24    1    1    2    0    0 -0.50414972678E+02  0.27532267676E+02  0.20837151740E+03  0.23062003480E+03  0.80419002446E+02 0.  0.
        -24    1    1    2    0    0  0.50414972678E+02 -0.27532267676E+02  0.56501368849E+02  0.11383899099E+03  0.80419002446E+02 0. -1.
<mgrwt>
<rscale>  0 0.98827684E+02</rscale>
<asrwt>0</asrwt>
<pdfrwt beam="1">  1        2 0.46871684E-01 0.98827684E+02</pdfrwt>
<pdfrwt beam="2">  1       -2 0.61220109E-02 0.98827684E+02</pdfrwt>
<totfact> 0.14099780E+04</totfact>
</mgrwt>
</event>
<event>
 4    1  0.1437859E-001  0.1088452E+03  0.7546771E-02  0.1262723E+00
          1   -1    0    0  501    0  0.00000000000E+00  0.00000000000E+00  0.28462286297E+03  0.28462286297E+03  0.00000000000E+00 0. -1.
         -1   -1    0    0    0  501 -0.00000000000E+00 -0.00000000000E+00 -0.42856459482E+02  0.42856459482E+02  0.00000000000E+00 0.  1.
         24    1    1    2    0    0  0.66444045870E+02 -0.31068409836E+02  0.14864520617E+03  0.18423536737E+03  0.80419002446E+02 0. -1.
        -24    1    1    2    0    0 -0.66444045870E+02  0.31068409836E+02  0.93121197327E+02  0.14324395508E+03  0.80419002446E+02 0.  1.
<mgrwt>
<rscale>  0 0.10884519E+03</rscale>
<asrwt>0</asrwt>
<pdfrwt beam="1">  1        1 0.43788132E-01 0.10884521E+03</pdfrwt>
<pdfrwt beam="2">  1       -1 0.65933016E-02 0.10884521E+03</pdfrwt>
<totfact> 0.10069864E+04</totfact>
</mgrwt>
</event>
<event>
 4    1  0.1437859E-001  0.1157908E+03  0.7546771E-02  0.1250207E+00
          2   -1    0    0  501    0  0.00000000000E+00  0.00000000000E+00  0.29968109563E+03  0.29968109563E+03  0.00000000000E+00 0. -1.
         -2   -1    0    0    0  501 -0.00000000000E+00 -0.00000000000E+00 -0.88938416701E+02  0.88938416701E+02  0.00000000000E+00 0.  1.
         24    1    1    2    0    0 -0.82819979121E+02 -0.90083442023E+01  0.24235123302E+03  0.26859194945E+03  0.80419002446E+02 0. -1.
        -24    1    1    2    0    0  0.82819979121E+02  0.90083442023E+01 -0.31608554087E+02  0.12002756289E+03  0.80419002446E+02 0.  1.
<mgrwt>
<rscale>  0 0.11579083E+03</rscale>
<asrwt>0</asrwt>
<pdfrwt beam="1">  1        2 0.46104784E-01 0.11579083E+03</pdfrwt>
<pdfrwt beam="2">  1       -2 0.13682833E-01 0.11579083E+03</pdfrwt>
<totfact> 0.41626132E+03</totfact>
</mgrwt>
</event>
<event>
 4    1  0.1437859E-001  0.9420002E+02  0.7546771E-02  0.1292988E+00
          3   -1    0    0  501    0  0.00000000000E+00  0.00000000000E+00  0.14992937084E+03  0.14992937084E+03  0.00000000000E+00 0. -1.
         -3   -1    0    0    0  501 -0.00000000000E+00 -0.00000000000E+00 -0.60169266445E+02  0.60169266445E+02  0.00000000000E+00 0.  1.
         24    1    1    2    0    0 -0.64003172271E+01  0.48636040221E+02  0.31447689611E+02  0.99310631884E+02  0.80419002446E+02 0.  1.
        -24    1    1    2    0    0  0.64003172271E+01 -0.48636040221E+02  0.58312414788E+02  0.11078800541E+03  0.80419002446E+02 0. -1.
<mgrwt>
<rscale>  0 0.94200023E+02</rscale>
<asrwt>0</asrwt>
<pdfrwt beam="1">  1        3 0.23066057E-01 0.94200023E+02</pdfrwt>
<pdfrwt beam="2">  1       -3 0.92568103E-02 0.94200023E+02</pdfrwt>
<totfact> 0.30978849E+03</totfact>
</mgrwt>
</event>
<event>
 4    1  0.1437859E-001  0.1171740E+03  0.7546771E-02  0.1247833E+00
         -1   -1    0    0    0  501 -0.00000000000E+00  0.00000000000E+00  0.14478538963E+04  0.14478538963E+04  0.00000000000E+00 0.  1.
          1   -1    0    0  501    0  0.00000000000E+00 -0.00000000000E+00 -0.17577408384E+02  0.17577408384E+02  0.00000000000E+00 0. -1.
         24    1    1    2    0    0 -0.83467484644E+02 -0.17196372970E+02  0.12123657751E+04  0.12180149937E+04  0.80419002446E+02 0.  1.
        -24    1    1    2    0    0  0.83467484644E+02  0.17196372970E+02  0.21791071280E+03  0.24741631099E+03  0.80419002446E+02 0. -1.
<mgrwt>
<rscale>  0 0.11717403E+03</rscale>
<asrwt>0</asrwt>
<pdfrwt beam="1">  1        1 0.27042178E-02 0.11717403E+03</pdfrwt>
<pdfrwt beam="2">  1       -1 0.22274666E+00 0.11717403E+03</pdfrwt>
<totfact> 0.46336532E+02</totfact>
</mgrwt>
</event>
<event>
 4    1  0.1437859E-001  0.1138914E+03  0.7546771E-02  0.1253529E+00
          2   -1    0    0  501    0  0.00000000000E+00  0.00000000000E+00  0.25585256049E+03  0.25585256049E+03  0.00000000000E+00 0. -1.
         -2   -1    0    0    0  501 -0.00000000000E+00 -0.00000000000E+00 -0.64163691312E+02  0.64163691312E+02  0.00000000000E+00 0.  1.
         24    1    1    2    0    0 -0.36838872206E+02  0.71742047823E+02  0.16914545289E+03  0.20391523758E+03  0.80419002446E+02 0.  1.
        -24    1    1    2    0    0  0.36838872206E+02 -0.71742047823E+02  0.22543416296E+02  0.11610101422E+03  0.80419002446E+02 0. -1.
<mgrwt>
<rscale>  0 0.11389135E+03</rscale>
<asrwt>0</asrwt>
<pdfrwt beam="1">  1        2 0.39361932E-01 0.11389135E+03</pdfrwt>
<pdfrwt beam="2">  1       -2 0.98713372E-02 0.11389135E+03</pdfrwt>
<totfact> 0.82454578E+03</totfact>
</mgrwt>
</event>
<event>
 4    1  0.1437859E-001  0.9570899E+02  0.7546771E-02  0.1289587E+00
         -2   -1    0    0    0  501 -0.00000000000E+00  0.00000000000E+00  0.14913445572E+02  0.14913445572E+02  0.00000000000E+00 0.  1.
          2   -1    0    0  501    0  0.00000000000E+00 -0.00000000000E+00 -0.62310840035E+03  0.62310840035E+03  0.00000000000E+00 0. -1.
         24    1    1    2    0    0  0.44690106909E+02 -0.26377804281E+02 -0.34218782233E+03  0.35532058190E+03  0.80419002446E+02 0.  1.
        -24    1    1    2    0    0 -0.44690106909E+02  0.26377804281E+02 -0.26600713245E+03  0.28270126402E+03  0.80419002446E+02 0.  0.
<mgrwt>
<rscale>  0 0.95708987E+02</rscale>
<asrwt>0</asrwt>
<pdfrwt beam="1">  1        2 0.95862833E-01 0.95708987E+02</pdfrwt>
<pdfrwt beam="2">  1       -2 0.22943762E-02 0.95708987E+02</pdfrwt>
<totfact> 0.27631901E+04</totfact>
</mgrwt>
</event>
<event>
 4    1  0.1437859E-001  0.9257063E+02  0.7546771E-02  0.1296743E+00
         -1   -1    0    0    0  501 -0.00000000000E+00  0.00000000000E+00  0.15187390207E+03  0.15187390207E+03  0.00000000000E+00 0.  1.
          1   -1    0    0  501    0  0.00000000000E+00 -0.00000000000E+00 -0.10481261891E+03  0.10481261891E+03  0.00000000000E+00 0. -1.
         24    1    1    2    0    0 -0.10976974476E+02  0.44515290687E+02  0.11073501188E+03  0.14433143762E+03  0.80419002446E+02 0.  1.
        -24    1    1    2    0    0  0.10976974476E+02 -0.44515290687E+02 -0.63673728723E+02  0.11235508336E+03  0.80419002446E+02 0. -1.
<mgrwt>
<rscale>  0 0.92570627E+02</rscale>
<asrwt>0</asrwt>
<pdfrwt beam="1">  1        1 0.16125018E-01 0.92570627E+02</pdfrwt>
<pdfrwt beam="2">  1       -1 0.23365216E-01 0.92570627E+02</pdfrwt>
<totfact> 0.49084308E+03</totfact>
</mgrwt>
</event>
<event>
 4    1  0.1437859E-001  0.9653696E+02  0.7546771E-02  0.1287752E+00
          1   -1    0    0  501    0  0.00000000000E+00  0.00000000000E+00  0.75990501106E+03  0.75990501106E+03  0.00000000000E+00 0. -1.
         -1   -1    0    0    0  501 -0.00000000000E+00 -0.00000000000E+00 -0.12539913502E+02  0.12539913502E+02  0.00000000000E+00 0.  1.
         24    1    1    2    0    0  0.52589664383E+02 -0.93002717292E+01  0.31638035935E+03  0.33078076666E+03  0.80419002446E+02 0.  0.
        -24    1    1    2    0    0 -0.52589664383E+02  0.93002717292E+01  0.43098473821E+03  0.44166415790E+03  0.80419002446E+02 0. -1.
<mgrwt>
<rscale>  0 0.96536956E+02</rscale>
<asrwt>0</asrwt>
<pdfrwt beam="1">  1        1 0.11690843E+00 0.96536956E+02</pdfrwt>
<pdfrwt beam="2">  1       -1 0.19292181E-02 0.96536956E+02</pdfrwt>
<totfact> 0.16661823E+04</totfact>
</mgrwt>
</event>
<event>
 4    1  0.1437859E-001  0.2014727E+03  0.7546771E-02  0.1148502E+00
         -1   -1    0    0    0  501 -0.00000000000E+00  0.00000000000E+00  0.11706889839E+03  0.11706889839E+03  0.00000000000E+00 0.  1.
          1   -1    0    0  501    0  0.00000000000E+00 -0.00000000000E+00 -0.48113351682E+03  0.48113351682E+03  0.00000000000E+00 0. -1.
         24    1    1    2    0    0  0.17555702293E+03 -0.57478356483E+02 -0.23947036001E+02  0.20289087276E+03  0.80419002446E+02 0.  1.
        -24    1    1    2    0    0 -0.17555702293E+03  0.57478356483E+02 -0.34011758242E+03  0.39531154245E+03  0.80419002446E+02 0. -1.
<mgrwt>
<rscale>  0 0.20147269E+03</rscale>
<asrwt>0</asrwt>
<pdfrwt beam="1">  1        1 0.74020543E-01 0.20147269E+03</pdfrwt>
<pdfrwt beam="2">  1       -1 0.18010599E-01 0.20147269E+03</pdfrwt>
<totfact> 0.11361987E+03</totfact>
</mgrwt>
</event>
<event>
 4    1  0.1437859E-001  0.9544107E+02  0.7546771E-02  0.1290186E+00
          1   -1    0    0  501    0  0.00000000000E+00  0.00000000000E+00  0.78751219998E+02  0.78751219998E+02  0.00000000000E+00 0. -1.
         -1   -1    0    0    0  501 -0.00000000000E+00 -0.00000000000E+00 -0.18045652719E+03  0.18045652719E+03  0.00000000000E+00 0.  1.
         24    1    1    2    0    0 -0.38381632522E+02  0.34185255168E+02 -0.12850966731E+03  0.16007414511E+03  0.80419002446E+02 0.  1.
        -24    1    1    2    0    0  0.38381632522E+02 -0.34185255168E+02  0.26804360115E+02  0.99133602081E+02  0.80419002446E+02 0. -1.
<mgrwt>
<rscale>  0 0.95441067E+02</rscale>
<asrwt>0</asrwt>
<pdfrwt beam="1">  1        1 0.12115572E-01 0.95441067E+02</pdfrwt>
<pdfrwt beam="2">  1       -1 0.27762542E-01 0.95441067E+02</pdfrwt>
<totfact> 0.53632165E+03</totfact>
</mgrwt>
</event>
<event>
 4    1  0.1437859E-001  0.1220833E+03  0.7546771E-02  0.1239699E+00
          2   -1    0    0  501    0  0.00000000000E+00  0.00000000000E+00  0.93367706212E+03  0.93367706212E+03  0.00000000000E+00 0. -1.
         -2   -1    0    0    0  501 -0.00000000000E+00 -0.00000000000E+00 -0.19380954288E+02  0.19380954288E+02  0.00000000000E+00 0.  1.
         24    1    1    2    0    0  0.26339688914E+02 -0.87996211165E+02  0.65726417314E+03  0.66850618668E+03  0.80419002446E+02 0.  1.
        -24    1    1    2    0    0 -0.26339688914E+02  0.87996211165E+02  0.25703193469E+03  0.28455182972E+03  0.80419002446E+02 0. -1.
<mgrwt>
<rscale>  0 0.12208328E+03</rscale>
<asrwt>0</asrwt>
<pdfrwt beam="1">  1        2 0.14364259E+00 0.12208328E+03</pdfrwt>
<pdfrwt beam="2">  1       -2 0.29816860E-02 0.12208328E+03</pdfrwt>
<totfact> 0.11781947E+04</totfact>
</mgrwt>
</event>
<event>
 4    1  0.1437859E-001  0.1180225E+03  0.7546771E-02  0.1246395E+00
          1   -1    0    0  501    0  0.00000000000E+00  0.00000000000E+00  0.11288962632E+03  0.11288962632E+03  0.00000000000E+00 0. -1.
         -1   -1    0    0    0  501 -0.00000000000E+00 -0.00000000000E+00 -0.12427913662E+03  0.12427913662E+03  0.00000000000E+00 0.  1.
         24    1    1    2    0    0  0.17278057947E+02  0.84637766342E+02  0.43431195993E+01  0.11810233452E+03  0.80419002446E+02 0. -1.
        -24    1    1    2    0    0 -0.17278057947E+02 -0.84637766342E+02 -0.15732629897E+02  0.11906642842E+03  0.80419002446E+02 0.  1.
<mgrwt>
<rscale>  0 0.11802246E+03</rscale>
<asrwt>0</asrwt>
<pdfrwt beam="1">  1        1 0.17367635E-01 0.11802248E+03</pdfrwt>
<pdfrwt beam="2">  1       -1 0.19119867E-01 0.11802248E+03</pdfrwt>
<totfact> 0.62677746E+03</totfact>
</mgrwt>
</event>
<event>
 4    1  0.1437859E-001  0.8273492E+02  0.7546771E-02  0.1321465E+00
         -2   -1    0    0    0  501 -0.00000000000E+00  0.00000000000E+00  0.48867998322E+02  0.48867998322E+02  0.00000000000E+00 0.  1.
          2   -1    0    0  501    0  0.00000000000E+00 -0.00000000000E+00 -0.43629343617E+03  0.43629343617E+03  0.00000000000E+00 0. -1.
         24    1    1    2    0    0 -0.93399859852E+01 -0.17047443173E+02 -0.39359520964E+03  0.40219678723E+03  0.80419002446E+02 0. -1.
        -24    1    1    2    0    0  0.93399859852E+01  0.17047443173E+02  0.61697717859E+01  0.82964647261E+02  0.80419002446E+02 0.  1.
<mgrwt>
<rscale>  0 0.82734918E+02</rscale>
<asrwt>0</asrwt>
<pdfrwt beam="1">  1        2 0.67122067E-01 0.82734918E+02</pdfrwt>
<pdfrwt beam="2">  1       -2 0.75181537E-02 0.82734918E+02</pdfrwt>
<totfact> 0.69858321E+03</totfact>
</mgrwt>
</event>
<event>
 4    1  0.1437859E-001  0.4142971E+03  0.7546771E-02  0.1038939E+00
          2   -1    0    0  501    0  0.00000000000E+00  0.00000000000E+00  0.12015362267E+04  0.12015362267E+04  0.00000000000E+00 0. -1.
         -2   -1    0    0    0  501 -0.00000000000E+00 -0.00000000000E+00 -0.16118890577E+03  0.16118890577E+03  0.00000000000E+00 0.  1.
         24    1    1    2    0    0  0.26440373506E+03 -0.30865115467E+03  0.74998498388E+03  0.85680777447E+03  0.80419002446E+02 0. -1.
        -24    1    1    2    0    0 -0.26440373506E+03  0.30865115467E+03  0.29036233704E+03  0.50591735799E+03  0.80419002446E+02 0.  1.
<mgrwt>
<rscale>  0 0.41429710E+03</rscale>
<asrwt>0</asrwt>
<pdfrwt beam="1">  1        2 0.18485172E+00 0.41429710E+03</pdfrwt>
<pdfrwt beam="2">  1       -2 0.24798294E-01 0.41429710E+03</pdfrwt>
<totfact> 0.28482434E+02</totfact>
</mgrwt>
</event>
<event>
 4    1  0.1437859E-001  0.1915506E+03  0.7546771E-02  0.1157070E+00
         -2   -1    0    0    0  501 -0.00000000000E+00  0.00000000000E+00  0.21079475247E+03  0.21079475247E+03  0.00000000000E+00 0.  1.
          2   -1    0    0  501    0  0.00000000000E+00 -0.00000000000E+00 -0.93646140227E+03  0.93646140227E+03  0.00000000000E+00 0. -1.
         24    1    1    2    0    0 -0.15365302973E+03 -0.81333539125E+02 -0.88041201215E+03  0.90100883749E+03  0.80419002446E+02 0. -1.
        -24    1    1    2    0    0  0.15365302973E+03  0.81333539125E+02  0.15474536235E+03  0.24624731725E+03  0.80419002446E+02 0.  1.
<mgrwt>
<rscale>  0 0.19155055E+03</rscale>
<asrwt>0</asrwt>
<pdfrwt beam="1">  1        2 0.14407098E+00 0.19155055E+03</pdfrwt>
<pdfrwt beam="2">  1       -2 0.32429962E-01 0.19155055E+03</pdfrwt>
<totfact> 0.26021678E+02</totfact>
</mgrwt>
</event>
<event>
 4    1  0.1437859E-001  0.1539060E+03  0.7546771E-02  0.1195754E+00
          1   -1    0    0  501    0  0.00000000000E+00  0.00000000000E+00  0.98969506676E+02  0.98969506676E+02  0.00000000000E+00 0. -1.
         -1   -1    0    0    0  501 -0.00000000000E+00 -0.00000000000E+00 -0.25755566900E+03  0.25755566900E+03  0.00000000000E+00 0.  1.
         24    1    1    2    0    0 -0.13056432705E+03 -0.13145392167E+02 -0.12670455528E+03  0.19935171209E+03  0.80419002446E+02 0. -1.
        -24    1    1    2    0    0  0.13056432705E+03  0.13145392167E+02 -0.31881607050E+02  0.15717346358E+03  0.80419002446E+02 0.  1.
<mgrwt>
<rscale>  0 0.15390601E+03</rscale>
<asrwt>0</asrwt>
<pdfrwt beam="1">  1        1 0.15226078E-01 0.15390601E+03</pdfrwt>
<pdfrwt beam="2">  1       -1 0.39623949E-01 0.15390601E+03</pdfrwt>
<totfact> 0.22397048E+03</totfact>
</mgrwt>
</event>
<event>
 4    1  0.1437859E-001  0.9252692E+02  0.7546771E-02  0.1296845E+00
         -1   -1    0    0    0  501 -0.00000000000E+00  0.00000000000E+00  0.34197674471E+02  0.34197674471E+02  0.00000000000E+00 0.  1.
          1   -1    0    0  501    0  0.00000000000E+00 -0.00000000000E+00 -0.37536507385E+03  0.37536507385E+03  0.00000000000E+00 0. -1.
         24    1    1    2    0    0 -0.33605335256E+02  0.31059556872E+02 -0.52401328673E+02  0.10633498875E+03  0.80419002446E+02 0.  1.
        -24    1    1    2    0    0  0.33605335256E+02 -0.31059556872E+02 -0.28876607070E+03  0.30322775957E+03  0.80419002446E+02 0. -1.
<mgrwt>
<rscale>  0 0.92526918E+02</rscale>
<asrwt>0</asrwt>
<pdfrwt beam="1">  1        1 0.57748473E-01 0.92526918E+02</pdfrwt>
<pdfrwt beam="2">  1       -1 0.52611806E-02 0.92526918E+02</pdfrwt>
<totfact> 0.98628877E+03</totfact>
</mgrwt>
</event>
<event>
 4    1  0.1437859E-001  0.1827086E+03  0.7546771E-02  0.1165207E+00
         -1   -1    0    0    0  501 -0.00000000000E+00  0.00000000000E+00  0.27579747740E+03  0.27579747740E+03  0.00000000000E+00 0.  1.
          1   -1    0    0  501    0  0.00000000000E+00 -0.00000000000E+00 -0.17762390564E+03  0.17762390564E+03  0.00000000000E+00 0. -1.
         24    1    1    2    0    0 -0.81915958320E+02 -0.14214423346E+03  0.17704530136E+03  0.25441592328E+03  0.80419002446E+02 0.  1.
        -24    1    1    2    0    0  0.81915958320E+02  0.14214423346E+03 -0.78871729590E+02  0.19900545976E+03  0.80419002446E+02 0. -1.
<mgrwt>
<rscale>  0 0.18270857E+03</rscale>
<asrwt>0</asrwt>
<pdfrwt beam="1">  1        1 0.27326755E-01 0.18270857E+03</pdfrwt>
<pdfrwt beam="2">  1       -1 0.42430381E-01 0.18270857E+03</pdfrwt>
<totfact> 0.94410575E+02</totfact>
</mgrwt>
</event>
<event>
 4    1  0.1437859E-001  0.9168217E+02  0.7546771E-02  0.1298828E+00
         -2   -1    0    0    0  501 -0.00000000000E+00  0.00000000000E+00  0.46481161048E+02  0.46481161048E+02  0.00000000000E+00 0.  1.
          2   -1    0    0  501    0  0.00000000000E+00 -0.00000000000E+00 -0.23898686569E+03  0.23898686569E+03  0.00000000000E+00 0. -1.
         24    1    1    2    0    0 -0.16371480636E+02 -0.40870275372E+02 -0.16665829288E+03  0.19021200627E+03  0.80419002446E+02 0. -1.
        -24    1    1    2    0    0  0.16371480636E+02  0.40870275372E+02 -0.25847411762E+02  0.95256020473E+02  0.80419002446E+02 0.  1.
<mgrwt>
<rscale>  0 0.91682172E+02</rscale>
<asrwt>0</asrwt>
<pdfrwt beam="1">  1        2 0.36767209E-01 0.91682172E+02</pdfrwt>
<pdfrwt beam="2">  1       -2 0.71509480E-02 0.91682172E+02</pdfrwt>
<totfact> 0.14284317E+04</totfact>
</mgrwt>
</event>
<event>
 4    1  0.1437859E-001  0.9885460E+02  0.7546771E-02  0.1282723E+00
          2   -1    0    0  501    0  0.00000000000E+00  0.00000000000E+00  0.94342210848E+03  0.94342210848E+03  0.00000000000E+00 0. -1.
         -2   -1    0    0    0  501 -0.00000000000E+00 -0.00000000000E+00 -0.17121257170E+03  0.17121257170E+03  0.00000000000E+00 0.  1.
         24    1    1    2    0    0  0.28738883210E+02 -0.49790486940E+02  0.92630038327E+03  0.93156032118E+03  0.80419002446E+02 0. -1.
        -24    1    1    2    0    0 -0.28738883210E+02  0.49790486940E+02 -0.15409084649E+03  0.18307435901E+03  0.80419002446E+02 0.  1.
<mgrwt>
<rscale>  0 0.98854600E+02</rscale>
<asrwt>0</asrwt>
<pdfrwt beam="1">  1        2 0.14514186E+00 0.98854600E+02</pdfrwt>
<pdfrwt beam="2">  1       -2 0.26340396E-01 0.98854600E+02</pdfrwt>
<totfact> 0.38061612E+02</totfact>
</mgrwt>
</event>
<event>
 4    1  0.1437859E-001  0.1698917E+03  0.7546771E-02  0.1177961E+00
          4   -1    0    0  501    0  0.00000000000E+00  0.00000000000E+00  0.96411180788E+03  0.96411180788E+03  0.00000000000E+00 0. -1.
         -4   -1    0    0    0  501 -0.00000000000E+00 -0.00000000000E+00 -0.87261563017E+02  0.87261563017E+02  0.00000000000E+00 0.  1.
         24    1    1    2    0    0 -0.39758850494E+02  0.14427476937E+03  0.86449771291E+03  0.88103319282E+03  0.80419002446E+02 0. -1.
        -24    1    1    2    0    0  0.39758850494E+02 -0.14427476937E+03  0.12352531955E+02  0.17034017808E+03  0.80419002446E+02 0.  1.
<mgrwt>
<rscale>  0 0.16989170E+03</rscale>
<asrwt>0</asrwt>
<pdfrwt beam="1">  1        4 0.14832489E+00 0.16989170E+03</pdfrwt>
<pdfrwt beam="2">  1       -4 0.13424857E-01 0.16989170E+03</pdfrwt>
<totfact> 0.26100833E+01</totfact>
</mgrwt>
</event>
<event>
 4    1  0.1437859E-001  0.1320075E+03  0.7546771E-02  0.1224507E+00
          3   -1    0    0  501    0  0.00000000000E+00  0.00000000000E+00  0.54831078614E+02  0.54831078614E+02  0.00000000000E+00 0. -1.
         -3   -1    0    0    0  501 -0.00000000000E+00 -0.00000000000E+00 -0.19537524950E+04  0.19537524950E+04  0.00000000000E+00 0.  1.
         24    1    1    2    0    0 -0.65984312525E+02 -0.81270083928E+02 -0.18684467101E+04  0.18731041297E+04  0.80419002446E+02 0.  1.
        -24    1    1    2    0    0  0.65984312525E+02  0.81270083928E+02 -0.30474706190E+02  0.13547944388E+03  0.80419002446E+02 0. -1.
<mgrwt>
<rscale>  0 0.13200747E+03</rscale>
<asrwt>0</asrwt>
<pdfrwt beam="1">  1        3 0.84355508E-02 0.13200747E+03</pdfrwt>
<pdfrwt beam="2">  1       -3 0.30057730E+00 0.13200747E+03</pdfrwt>
<totfact> 0.10449960E+01</totfact>
</mgrwt>
</event>
<event>
 4    1  0.1437859E-001  0.1734593E+03  0.7546771E-02  0.1174288E+00
         -2   -1    0    0    0  501 -0.00000000000E+00  0.00000000000E+00  0.25485477543E+02  0.25485477543E+02  0.00000000000E+00 0.  1.
          2   -1    0    0  501    0  0.00000000000E+00 -0.00000000000E+00 -0.19215936131E+04  0.19215936131E+04  0.00000000000E+00 0. -1.
         24    1    1    2    0    0  0.98819898109E+02  0.11770950822E+03 -0.15526016604E+04  0.15622611921E+04  0.80419002446E+02 0. -1.
        -24    1    1    2    0    0 -0.98819898109E+02 -0.11770950822E+03 -0.34350647512E+03  0.38481789848E+03  0.80419002446E+02 0.  1.
<mgrwt>
<rscale>  0 0.17345926E+03</rscale>
<asrwt>0</asrwt>
<pdfrwt beam="1">  1        2 0.29562983E+00 0.17345926E+03</pdfrwt>
<pdfrwt beam="2">  1       -2 0.39208421E-02 0.17345926E+03</pdfrwt>
<totfact> 0.23233647E+03</totfact>
</mgrwt>
</event>
<event>
 4    1  0.1437859E-001  0.9592093E+02  0.7546771E-02  0.1289115E+00
          2   -1    0    0  501    0  0.00000000000E+00  0.00000000000E+00  0.22054640924E+03  0.22054640924E+03  0.00000000000E+00 0. -1.
         -2   -1    0    0    0  501 -0.00000000000E+00 -0.00000000000E+00 -0.15365114662E+03  0.15365114662E+03  0.00000000000E+00 0.  1.
         24    1    1    2    0    0  0.10543647031E+02 -0.51209777451E+02  0.19313912493E+03  0.21564681155E+03  0.80419002446E+02 0. -1.
        -24    1    1    2    0    0 -0.10543647031E+02  0.51209777451E+02 -0.12624386230E+03  0.15855074431E+03  0.80419002446E+02 0.  1.
<mgrwt>
<rscale>  0 0.95920935E+02</rscale>
<asrwt>0</asrwt>
<pdfrwt beam="1">  1        2 0.33930217E-01 0.95920935E+02</pdfrwt>
<pdfrwt beam="2">  1       -2 0.23638638E-01 0.95920935E+02</pdfrwt>
<totfact> 0.22971487E+03</totfact>
</mgrwt>
</event>
<event>
 4    1  0.1437859E-001  0.1782907E+03  0.7546771E-02  0.1169468E+00
          1   -1    0    0  501    0  0.00000000000E+00  0.00000000000E+00  0.16302886137E+04  0.16302886137E+04  0.00000000000E+00 0. -1.
         -1   -1    0    0    0  501 -0.00000000000E+00 -0.00000000000E+00 -0.32242177895E+02  0.32242177895E+02  0.00000000000E+00 0.  1.
         24    1    1    2    0    0 -0.35640028125E+02 -0.15508111007E+03  0.27640899405E+03  0.32892173879E+03  0.80419002446E+02 0.  1.
        -24    1    1    2    0    0  0.35640028125E+02  0.15508111007E+03  0.13216374417E+04  0.13336090528E+04  0.80419002446E+02 0. -1.
<mgrwt>
<rscale>  0 0.17829071E+03</rscale>
<asrwt>0</asrwt>
<pdfrwt beam="1">  1        1 0.25081357E+00 0.17829071E+03</pdfrwt>
<pdfrwt beam="2">  1       -1 0.49603363E-02 0.17829071E+03</pdfrwt>
<totfact> 0.10535597E+03</totfact>
</mgrwt>
</event>
<event>
 4    1  0.1437859E-001  0.1314540E+03  0.7546771E-02  0.1225314E+00
         -2   -1    0    0    0  501 -0.00000000000E+00  0.00000000000E+00  0.23245842961E+03  0.23245842961E+03  0.00000000000E+00 0.  1.
          2   -1    0    0  501    0  0.00000000000E+00 -0.00000000000E+00 -0.11975849132E+03  0.11975849132E+03  0.00000000000E+00 0. -1.
         24    1    1    2    0    0 -0.18565000895E+02 -0.10231464121E+03 -0.52107593307E+02  0.14140495853E+03  0.80419002446E+02 0. -1.
        -24    1    1    2    0    0  0.18565000895E+02  0.10231464121E+03  0.16480753160E+03  0.21081196239E+03  0.80419002446E+02 0.  1.
<mgrwt>
<rscale>  0 0.13145403E+03</rscale>
<asrwt>0</asrwt>
<pdfrwt beam="1">  1        2 0.18424383E-01 0.13145403E+03</pdfrwt>
<pdfrwt beam="2">  1       -2 0.35762835E-01 0.13145403E+03</pdfrwt>
<totfact> 0.21801353E+03</totfact>
</mgrwt>
</event>
<event>
 4    1  0.1437859E-001  0.9541472E+02  0.7546771E-02  0.1290245E+00
          2   -1    0    0  501    0  0.00000000000E+00  0.00000000000E+00  0.22360208134E+03  0.22360208134E+03  0.00000000000E+00 0. -1.
         -2   -1    0    0    0  501 -0.00000000000E+00 -0.00000000000E+00 -0.41359716509E+02  0.41359716509E+02  0.00000000000E+00 0.  1.
         24    1    1    2    0    0  0.51297664635E+02  0.23016954125E+01  0.74580983282E+02  0.12110444757E+03  0.80419002446E+02 0. -1.
        -24    1    1    2    0    0 -0.51297664635E+02 -0.23016954125E+01  0.10766138155E+03  0.14385735028E+03  0.80419002446E+02 0.  0.
<mgrwt>
<rscale>  0 0.95414708E+02</rscale>
<asrwt>0</asrwt>
<pdfrwt beam="1">  1        2 0.34400320E-01 0.95414720E+02</pdfrwt>
<pdfrwt beam="2">  1       -2 0.63630334E-02 0.95414720E+02</pdfrwt>
<totfact> 0.18356656E+04</totfact>
</mgrwt>
</event>
<event>
 4    1  0.1437859E-001  0.9413609E+02  0.7546771E-02  0.1293134E+00
          2   -1    0    0  501    0  0.00000000000E+00  0.00000000000E+00  0.16369565376E+03  0.16369565376E+03  0.00000000000E+00 0. -1.
         -2   -1    0    0    0  501 -0.00000000000E+00 -0.00000000000E+00 -0.82932530104E+02  0.82932530104E+02  0.00000000000E+00 0.  1.
         24    1    1    2    0    0  0.43408506406E+02  0.22585164673E+02  0.11304745964E+03  0.14710993229E+03  0.80419002446E+02 0. -1.
        -24    1    1    2    0    0 -0.43408506406E+02 -0.22585164673E+02 -0.32284335989E+02  0.99518251574E+02  0.80419002446E+02 0.  1.
<mgrwt>
<rscale>  0 0.94136093E+02</rscale>
<asrwt>0</asrwt>
<pdfrwt beam="1">  1        2 0.25183947E-01 0.94136093E+02</pdfrwt>
<pdfrwt beam="2">  1       -2 0.12758851E-01 0.94136093E+02</pdfrwt>
<totfact> 0.87417798E+03</totfact>
</mgrwt>
</event>
<event>
 4    1  0.1437859E-001  0.8134107E+02  0.7546771E-02  0.1325288E+00
         -1   -1    0    0    0  501 -0.00000000000E+00  0.00000000000E+00  0.75080676192E+03  0.75080676192E+03  0.00000000000E+00 0.  1.
          1   -1    0    0  501    0  0.00000000000E+00 -0.00000000000E+00 -0.18137647013E+02  0.18137647013E+02  0.00000000000E+00 0. -1.
         24    1    1    2    0    0  0.11750140201E+02  0.33297745414E+01  0.64201496304E+03  0.64714726447E+03  0.80419002446E+02 0.  1.
        -24    1    1    2    0    0 -0.11750140201E+02 -0.33297745414E+01  0.90654151861E+02  0.12179714445E+03  0.80419002446E+02 0. -1.
<mgrwt>
<rscale>  0 0.81341067E+02</rscale>
<asrwt>0</asrwt>
<pdfrwt beam="1">  1        1 0.27904078E-02 0.81341067E+02</pdfrwt>
<pdfrwt beam="2">  1       -1 0.11550871E+00 0.81341067E+02</pdfrwt>
<totfact> 0.25545301E+03</totfact>
</mgrwt>
</event>
<event>
 4    1  0.1437859E-001  0.8631914E+02  0.7546771E-02  0.1312018E+00
          2   -1    0    0  501    0  0.00000000000E+00  0.00000000000E+00  0.66735497084E+03  0.66735497084E+03  0.00000000000E+00 0. -1.
         -2   -1    0    0    0  501 -0.00000000000E+00 -0.00000000000E+00 -0.16757448802E+02  0.16757448802E+02  0.00000000000E+00 0.  1.
         24    1    1    2    0    0  0.15867279060E+02 -0.27055623451E+02  0.52290287907E+03  0.52997963565E+03  0.80419002446E+02 0. -1.
        -24    1    1    2    0    0 -0.15867279060E+02  0.27055623451E+02  0.12769464297E+03  0.15413278399E+03  0.80419002446E+02 0.  1.
<mgrwt>
<rscale>  0 0.86319136E+02</rscale>
<asrwt>0</asrwt>
<pdfrwt beam="1">  1        2 0.10266998E+00 0.86319136E+02</pdfrwt>
<pdfrwt beam="2">  1       -2 0.25780696E-02 0.86319136E+02</pdfrwt>
<totfact> 0.21371403E+04</totfact>
</mgrwt>
</event>
<event>
 4    1  0.1437859E-001  0.1509773E+03  0.7546771E-02  0.1199277E+00
         -1   -1    0    0    0  501 -0.00000000000E+00  0.00000000000E+00  0.41658304774E+03  0.41658304774E+03  0.00000000000E+00 0.  1.
          1   -1    0    0  501    0  0.00000000000E+00 -0.00000000000E+00 -0.18065007169E+03  0.18065007169E+03  0.00000000000E+00 0. -1.
         24    1    1    2    0    0  0.12176275272E+03 -0.38739620629E+02  0.36729092758E+03  0.39711052315E+03  0.80419002446E+02 0.  1.
        -24    1    1    2    0    0 -0.12176275272E+03  0.38739620629E+02 -0.13135795154E+03  0.20012259628E+03  0.80419002446E+02 0. -1.
<mgrwt>
<rscale>  0 0.15097729E+03</rscale>
<asrwt>0</asrwt>
<pdfrwt beam="1">  1        1 0.27792319E-01 0.15097729E+03</pdfrwt>
<pdfrwt beam="2">  1       -1 0.64089699E-01 0.15097729E+03</pdfrwt>
<totfact> 0.42990263E+02</totfact>
</mgrwt>
</event>
<event>
 4    1  0.1437859E-001  0.1138902E+03  0.7546771E-02  0.1253531E+00
         -2   -1    0    0    0  501 -0.00000000000E+00  0.00000000000E+00  0.45779387017E+01  0.45779387017E+01  0.00000000000E+00 0.  1.
          2   -1    0    0  501    0  0.00000000000E+00 -0.00000000000E+00 -0.28856108548E+04  0.28856108548E+04  0.00000000000E+00 0. -1.
         24    1    1    2    0    0  0.75072694775E+02 -0.29459455677E+02 -0.16349587904E+04  0.16389207520E+04  0.80419002446E+02 0.  0.
        -24    1    1    2    0    0 -0.75072694775E+02  0.29459455677E+02 -0.12460741257E+04  0.12512680415E+04  0.80419002446E+02 0.  0.
<mgrwt>
<rscale>  0 0.11389023E+03</rscale>
<asrwt>0</asrwt>
<pdfrwt beam="1">  1        2 0.44394033E+00 0.11389023E+03</pdfrwt>
<pdfrwt beam="2">  1       -2 0.70429795E-03 0.11389023E+03</pdfrwt>
<totfact> 0.85747693E+03</totfact>
</mgrwt>
</event>
<event>
 4    1  0.1437859E-001  0.1086806E+03  0.7546771E-02  0.1263033E+00
         -1   -1    0    0    0  501 -0.00000000000E+00  0.00000000000E+00  0.11384105286E+04  0.11384105286E+04  0.00000000000E+00 0.  1.
          1   -1    0    0  501    0  0.00000000000E+00 -0.00000000000E+00 -0.11378459989E+02  0.11378459989E+02  0.00000000000E+00 0. -1.
         24    1    1    2    0    0 -0.72449576025E+02  0.97632303174E+01  0.73420575617E+03  0.74220588120E+03  0.80419002446E+02 0. -1.
        -24    1    1    2    0    0  0.72449576025E+02 -0.97632303174E+01  0.39282631240E+03  0.40758310736E+03  0.80419002446E+02 0.  1.
<mgrwt>
<rscale>  0 0.10868062E+03</rscale>
<asrwt>0</asrwt>
<pdfrwt beam="1">  1        1 0.17505332E-02 0.10868062E+03</pdfrwt>
<pdfrwt beam="2">  1       -1 0.17513999E+00 0.10868062E+03</pdfrwt>
<totfact> 0.17366950E+03</totfact>
</mgrwt>
</event>
<event>
 4    1  0.1437859E-001  0.8265166E+02  0.7546771E-02  0.1321690E+00
          2   -1    0    0  501    0  0.00000000000E+00  0.00000000000E+00  0.17826307716E+03  0.17826307716E+03  0.00000000000E+00 0. -1.
         -2   -1    0    0    0  501 -0.00000000000E+00 -0.00000000000E+00 -0.40198519736E+02  0.40198519736E+02  0.00000000000E+00 0.  1.
         24    1    1    2    0    0  0.19080512269E+02 -0.12307707110E+00  0.92636079190E+02  0.12414805765E+03  0.80419002446E+02 0. -1.
        -24    1    1    2    0    0 -0.19080512269E+02  0.12307707110E+00  0.45428478239E+02  0.94313539250E+02  0.80419002446E+02 0.  1.
<mgrwt>
<rscale>  0 0.82651661E+02</rscale>
<asrwt>0</asrwt>
<pdfrwt beam="1">  1        2 0.27425088E-01 0.82651661E+02</pdfrwt>
<pdfrwt beam="2">  1       -2 0.61843878E-02 0.82651661E+02</pdfrwt>
<totfact> 0.24013439E+04</totfact>
</mgrwt>
</event>
<event>
 4    1  0.1437859E-001  0.8525209E+02  0.7546771E-02  0.1314775E+00
         -2   -1    0    0    0  501 -0.00000000000E+00  0.00000000000E+00  0.40609298804E+02  0.40609298804E+02  0.00000000000E+00 0.  1.
          2   -1    0    0  501    0  0.00000000000E+00 -0.00000000000E+00 -0.26129695757E+03  0.26129695757E+03  0.00000000000E+00 0. -1.
         24    1    1    2    0    0 -0.12443655117E+02  0.25413667516E+02 -0.25612990654E+02  0.89016516973E+02  0.80419002446E+02 0.  0.
        -24    1    1    2    0    0  0.12443655117E+02 -0.25413667516E+02 -0.19507466811E+03  0.21288973940E+03  0.80419002446E+02 0.  0.
<mgrwt>
<rscale>  0 0.85252078E+02</rscale>
<asrwt>0</asrwt>
<pdfrwt beam="1">  1        2 0.40199531E-01 0.85252089E+02</pdfrwt>
<pdfrwt beam="2">  1       -2 0.62475845E-02 0.85252089E+02</pdfrwt>
<totfact> 0.15829721E+04</totfact>
</mgrwt>
</event>
<event>
 4    1  0.1437859E-001  0.1090755E+03  0.7546771E-02  0.1262292E+00
          2   -1    0    0  501    0  0.00000000000E+00  0.00000000000E+00  0.71559027625E+03  0.71559027625E+03  0.00000000000E+00 0. -1.
         -2   -1    0    0    0  501 -0.00000000000E+00 -0.00000000000E+00 -0.24129955087E+02  0.24129955087E+02  0.00000000000E+00 0.  1.
         24    1    1    2    0    0  0.63534049978E+02  0.37331888902E+02  0.55198399628E+03  0.56265779435E+03  0.80419002446E+02 0. -1.
        -24    1    1    2    0    0 -0.63534049978E+02 -0.37331888902E+02  0.13947632488E+03  0.17706243699E+03  0.80419002446E+02 0.  1.
<mgrwt>
<rscale>  0 0.10907548E+03</rscale>
<asrwt>0</asrwt>
<pdfrwt beam="1">  1        2 0.11009080E+00 0.10907548E+03</pdfrwt>
<pdfrwt beam="2">  1       -2 0.37123013E-02 0.10907548E+03</pdfrwt>
<totfact> 0.11809871E+04</totfact>
</mgrwt>
</event>
<event>
 4    1  0.1437859E-001  0.9284473E+02  0.7546771E-02  0.1296105E+00
         -1   -1    0    0    0  501 -0.00000000000E+00  0.00000000000E+00  0.26046700799E+03  0.26046700799E+03  0.00000000000E+00 0.  1.
          1   -1    0    0  501    0  0.00000000000E+00 -0.00000000000E+00 -0.33117166211E+02  0.33117166211E+02  0.00000000000E+00 0. -1.
         24    1    1    2    0    0  0.10110170795E+02 -0.45284783499E+02  0.11747674136E+03  0.14973619431E+03  0.80419002446E+02 0.  1.
        -24    1    1    2    0    0 -0.10110170795E+02  0.45284783499E+02  0.10987310042E+03  0.14384797989E+03  0.80419002446E+02 0.  0.
<mgrwt>
<rscale>  0 0.92844726E+02</rscale>
<asrwt>0</asrwt>
<pdfrwt beam="1">  1        1 0.50949488E-02 0.92844726E+02</pdfrwt>
<pdfrwt beam="2">  1       -1 0.40071846E-01 0.92844726E+02</pdfrwt>
<totfact> 0.90818021E+03</totfact>
</mgrwt>
</event>
<event>
 4    1  0.1437859E-001  0.1253161E+03  0.7546771E-02  0.1234576E+00
         -2   -1    0    0    0  501 -0.00000000000E+00  0.00000000000E+00  0.15679029712E+02  0.15679029712E+02  0.00000000000E+00 0.  1.
          2   -1    0    0  501    0  0.00000000000E+00 -0.00000000000E+00 -0.19367481389E+04  0.19367481389E+04  0.00000000000E+00 0. -1.
         24    1    1    2    0    0  0.51667010725E+02  0.81039655661E+02 -0.16388760700E+04  0.16436602126E+04  0.80419002446E+02 0. -1.
        -24    1    1    2    0    0 -0.51667010725E+02 -0.81039655661E+02 -0.28219303912E+03  0.30876695592E+03  0.80419002446E+02 0.  1.
<mgrwt>
<rscale>  0 0.12531609E+03</rscale>
<asrwt>0</asrwt>
<pdfrwt beam="1">  1        2 0.29796137E+00 0.12531609E+03</pdfrwt>
<pdfrwt beam="2">  1       -2 0.24121575E-02 0.12531609E+03</pdfrwt>
<totfact> 0.46658206E+03</totfact>
</mgrwt>
</event>
<event>
 4    1  0.1437859E-001  0.1030218E+03  0.7546771E-02  0.1274067E+00
          2   -1    0    0  501    0  0.00000000000E+00  0.00000000000E+00  0.92079733452E+03  0.92079733452E+03  0.00000000000E+00 0. -1.
         -2   -1    0    0    0  501 -0.00000000000E+00 -0.00000000000E+00 -0.15056967566E+02  0.15056967566E+02  0.00000000000E+00 0.  1.
         24    1    1    2    0    0  0.64290687353E+02  0.36037963364E+01  0.22628547864E+03  0.24863349256E+03  0.80419002446E+02 0.  0.
        -24    1    1    2    0    0 -0.64290687353E+02 -0.36037963364E+01  0.67945488832E+03  0.68722080952E+03  0.80419002446E+02 0.  0.
<mgrwt>
<rscale>  0 0.10302183E+03</rscale>
<asrwt>0</asrwt>
<pdfrwt beam="1">  1        2 0.14166108E+00 0.10302185E+03</pdfrwt>
<pdfrwt beam="2">  1       -2 0.23164573E-02 0.10302185E+03</pdfrwt>
<totfact> 0.17120954E+04</totfact>
</mgrwt>
</event>
<event>
 4    1  0.1437859E-001  0.1356366E+03  0.7546771E-02  0.1219324E+00
          2   -1    0    0  501    0  0.00000000000E+00  0.00000000000E+00  0.12928217849E+03  0.12928217849E+03  0.00000000000E+00 0. -1.
         -2   -1    0    0    0  501 -0.00000000000E+00 -0.00000000000E+00 -0.19590638215E+03  0.19590638215E+03  0.00000000000E+00 0.  1.
         24    1    1    2    0    0 -0.66798005949E+02 -0.86418199955E+02  0.51738111597E+02  0.14516930470E+03  0.80419002446E+02 0. -1.
        -24    1    1    2    0    0  0.66798005949E+02  0.86418199955E+02 -0.11836231526E+03  0.18001925594E+03  0.80419002446E+02 0.  1.
<mgrwt>
<rscale>  0 0.13563663E+03</rscale>
<asrwt>0</asrwt>
<pdfrwt beam="1">  1        2 0.19889566E-01 0.13563663E+03</pdfrwt>
<pdfrwt beam="2">  1       -2 0.30139443E-01 0.13563663E+03</pdfrwt>
<totfact> 0.27353794E+03</totfact>
</mgrwt>
</event>
<event>
 4    1  0.1437859E-001  0.8409071E+02  0.7546771E-02  0.1317828E+00
         -1   -1    0    0    0  501 -0.00000000000E+00  0.00000000000E+00  0.78514048073E+01  0.78514048073E+01  0.00000000000E+00 0.  1.
          1   -1    0    0  501    0  0.00000000000E+00 -0.00000000000E+00 -0.90111752562E+03  0.90111752562E+03  0.00000000000E+00 0. -1.
         24    1    1    2    0    0 -0.16115762342E+02  0.18555690942E+02 -0.43611260008E+03  0.44414575014E+03  0.80419002446E+02 0.  1.
        -24    1    1    2    0    0  0.16115762342E+02 -0.18555690942E+02 -0.45715352073E+03  0.46482318029E+03  0.80419002446E+02 0. -1.
<mgrwt>
<rscale>  0 0.84090709E+02</rscale>
<asrwt>0</asrwt>
<pdfrwt beam="1">  1        1 0.13863337E+00 0.84090709E+02</pdfrwt>
<pdfrwt beam="2">  1       -1 0.12079093E-02 0.84090709E+02</pdfrwt>
<totfact> 0.24736145E+04</totfact>
</mgrwt>
</event>
<event>
 4    1  0.1455797E-001  0.9036059E+02  0.7546771E-02  0.1301981E+00
          1   -1    0    0  501    0  0.00000000000E+00  0.00000000000E+00  0.11491013985E+04  0.11491013985E+04  0.00000000000E+00 0. -1.
         -1   -1    0    0    0  501 -0.00000000000E+00 -0.00000000000E+00 -0.24570030772E+02  0.24570030772E+02  0.00000000000E+00 0.  1.
         24    1    1    2    0    0 -0.27946845125E+02  0.30278617947E+02  0.67509649332E+02  0.11279445715E+03  0.80419002446E+02 0.  1.
        -24    1    1    2    0    0  0.27946845125E+02 -0.30278617947E+02  0.10570217184E+04  0.10608769721E+04  0.80419002446E+02 0. -1.
<mgrwt>
<rscale>  0 0.90360593E+02</rscale>
<asrwt>0</asrwt>
<pdfrwt beam="1">  1        1 0.17678479E+00 0.90360593E+02</pdfrwt>
<pdfrwt beam="2">  1       -1 0.37800056E-02 0.90360593E+02</pdfrwt>
<totfact> 0.32425456E+03</totfact>
</mgrwt>
</event>
<event>
 4    1  0.1437859E-001  0.1356138E+03  0.7546771E-02  0.1219356E+00
         -2   -1    0    0    0  501 -0.00000000000E+00  0.00000000000E+00  0.92056455100E+02  0.92056455100E+02  0.00000000000E+00 0.  1.
          2   -1    0    0  501    0  0.00000000000E+00 -0.00000000000E+00 -0.45589527658E+03  0.45589527658E+03  0.00000000000E+00 0. -1.
         24    1    1    2    0    0 -0.49154769472E+02  0.97507401300E+02 -0.38727046290E+03  0.41032854161E+03  0.80419002446E+02 0. -1.
        -24    1    1    2    0    0  0.49154769472E+02 -0.97507401300E+02  0.23431641423E+02  0.13762319007E+03  0.80419002446E+02 0.  1.
<mgrwt>
<rscale>  0 0.13561379E+03</rscale>
<asrwt>0</asrwt>
<pdfrwt beam="1">  1        2 0.70137734E-01 0.13561379E+03</pdfrwt>
<pdfrwt beam="2">  1       -2 0.14162532E-01 0.13561379E+03</pdfrwt>
<totfact> 0.25384503E+03</totfact>
</mgrwt>
</event>
<event>
 4    1  0.1437859E-001  0.1080560E+03  0.7546771E-02  0.1264213E+00
          2   -1    0    0  501    0  0.00000000000E+00  0.00000000000E+00  0.24205962351E+04  0.24205962351E+04  0.00000000000E+00 0. -1.
         -2   -1    0    0    0  501 -0.00000000000E+00 -0.00000000000E+00 -0.54091110140E+02  0.54091110140E+02  0.00000000000E+00 0.  1.
         24    1    1    2    0    0 -0.30163752314E+02 -0.65566985228E+02  0.23641372807E+04  0.23666054127E+04  0.80419002446E+02 0. -1.
        -24    1    1    2    0    0  0.30163752314E+02  0.65566985228E+02  0.23678442900E+01  0.10808193256E+03  0.80419002446E+02 0.  1.
<mgrwt>
<rscale>  0 0.10805599E+03</rscale>
<asrwt>0</asrwt>
<pdfrwt beam="1">  1        2 0.37239934E+00 0.10805599E+03</pdfrwt>
<pdfrwt beam="2">  1       -2 0.83217111E-02 0.10805599E+03</pdfrwt>
<totfact> 0.41630461E+02</totfact>
</mgrwt>
</event>
<event>
 4    1  0.1437859E-001  0.8710933E+02  0.7546771E-02  0.1310007E+00
         -2   -1    0    0    0  501 -0.00000000000E+00  0.00000000000E+00  0.30691407998E+02  0.30691407998E+02  0.00000000000E+00 0.  1.
          2   -1    0    0  501    0  0.00000000000E+00 -0.00000000000E+00 -0.16316482969E+04  0.16316482969E+04  0.00000000000E+00 0. -1.
         24    1    1    2    0    0  0.16526936966E+02  0.29114949592E+02 -0.15660911890E+04  0.15685119216E+04  0.80419002446E+02 0. -1.
        -24    1    1    2    0    0 -0.16526936966E+02 -0.29114949592E+02 -0.34865699884E+02  0.93827783294E+02  0.80419002446E+02 0.  1.
<mgrwt>
<rscale>  0 0.87109333E+02</rscale>
<asrwt>0</asrwt>
<pdfrwt beam="1">  1        2 0.25102286E+00 0.87109333E+02</pdfrwt>
<pdfrwt beam="2">  1       -2 0.47217543E-02 0.87109333E+02</pdfrwt>
<totfact> 0.24734642E+03</totfact>
</mgrwt>
</event>
<event>
 4    1  0.1437859E-001  0.9400229E+02  0.7546771E-02  0.1293439E+00
         -2   -1    0    0    0  501 -0.00000000000E+00  0.00000000000E+00  0.21559173027E+02  0.21559173027E+02  0.00000000000E+00 0.  1.
          2   -1    0    0  501    0  0.00000000000E+00 -0.00000000000E+00 -0.46552018398E+03  0.46552018398E+03  0.00000000000E+00 0. -1.
         24    1    1    2    0    0  0.48066171256E+02  0.76718545977E+01 -0.30618569593E+03  0.32029066567E+03  0.80419002446E+02 0. -1.
        -24    1    1    2    0    0 -0.48066171256E+02 -0.76718545977E+01 -0.13777531503E+03  0.16678869134E+03  0.80419002446E+02 0.  1.
<mgrwt>
<rscale>  0 0.94002288E+02</rscale>
<asrwt>0</asrwt>
<pdfrwt beam="1">  1        2 0.71618480E-01 0.94002288E+02</pdfrwt>
<pdfrwt beam="2">  1       -2 0.33167963E-02 0.94002288E+02</pdfrwt>
<totfact> 0.22246751E+04</totfact>
</mgrwt>
</event>
<event>
 4    1  0.1437859E-001  0.9749203E+02  0.7546771E-02  0.1285660E+00
         -1   -1    0    0    0  501 -0.00000000000E+00  0.00000000000E+00  0.14837989992E+02  0.14837989992E+02  0.00000000000E+00 0.  1.
          1   -1    0    0  501    0  0.00000000000E+00 -0.00000000000E+00 -0.76342653774E+03  0.76342653774E+03  0.00000000000E+00 0. -1.
         24    1    1    2    0    0  0.84732536498E+01 -0.54458092349E+02 -0.21818750410E+03  0.23897799637E+03  0.80419002446E+02 0.  1.
        -24    1    1    2    0    0 -0.84732536498E+01  0.54458092349E+02 -0.53040104365E+03  0.53928653136E+03  0.80419002446E+02 0. -1.
<mgrwt>
<rscale>  0 0.97492029E+02</rscale>
<asrwt>0</asrwt>
<pdfrwt beam="1">  1        1 0.11745025E+00 0.97492029E+02</pdfrwt>
<pdfrwt beam="2">  1       -1 0.22827674E-02 0.97492029E+02</pdfrwt>
<totfact> 0.13019077E+04</totfact>
</mgrwt>
</event>
<event>
 4    1  0.1437859E-001  0.1217075E+03  0.7546771E-02  0.1240306E+00
         -4   -1    0    0    0  501 -0.00000000000E+00  0.00000000000E+00  0.19929675563E+03  0.19929675563E+03  0.00000000000E+00 0.  1.
          4   -1    0    0  501    0  0.00000000000E+00 -0.00000000000E+00 -0.12654594023E+03  0.12654594023E+03  0.00000000000E+00 0. -1.
         24    1    1    2    0    0  0.80021797862E+02 -0.44068362999E+02 -0.68283541131E+02  0.13955417118E+03  0.80419002446E+02 0. -1.
        -24    1    1    2    0    0 -0.80021797862E+02  0.44068362999E+02  0.14103435653E+03  0.18628852468E+03  0.80419002446E+02 0.  1.
<mgrwt>
<rscale>  0 0.12170754E+03</rscale>
<asrwt>0</asrwt>
<pdfrwt beam="1">  1        4 0.19468606E-01 0.12170754E+03</pdfrwt>
<pdfrwt beam="2">  1       -4 0.30661039E-01 0.12170754E+03</pdfrwt>
<totfact> 0.39294369E+02</totfact>
</mgrwt>
</event>
<event>
 4    1  0.1437859E-001  0.9352962E+02  0.7546771E-02  0.1294523E+00
         -1   -1    0    0    0  501 -0.00000000000E+00  0.00000000000E+00  0.57887381109E+01  0.57887381109E+01  0.00000000000E+00 0.  1.
          1   -1    0    0  501    0  0.00000000000E+00 -0.00000000000E+00 -0.15147098506E+04  0.15147098506E+04  0.00000000000E+00 0. -1.
         24    1    1    2    0    0  0.47755184812E+02  0.12477819640E+00 -0.71772790169E+03  0.72379633189E+03  0.80419002446E+02 0. -1.
        -24    1    1    2    0    0 -0.47755184812E+02 -0.12477819640E+00 -0.79119321076E+03  0.79670225678E+03  0.80419002446E+02 0.  1.
<mgrwt>
<rscale>  0 0.93529617E+02</rscale>
<asrwt>0</asrwt>
<pdfrwt beam="1">  1        1 0.23303232E+00 0.93529617E+02</pdfrwt>
<pdfrwt beam="2">  1       -1 0.89057497E-03 0.93529617E+02</pdfrwt>
<totfact> 0.14699467E+04</totfact>
</mgrwt>
</event>
<event>
 4    1  0.1437859E-001  0.1178855E+03  0.7546771E-02  0.1246627E+00
         -1   -1    0    0    0  501 -0.00000000000E+00  0.00000000000E+00  0.27785712577E+02  0.27785712577E+02  0.00000000000E+00 0.  1.
          1   -1    0    0  501    0  0.00000000000E+00 -0.00000000000E+00 -0.62175709079E+03  0.62175709079E+03  0.00000000000E+00 0. -1.
         24    1    1    2    0    0  0.83571394193E+02 -0.21109301267E+02 -0.15335454049E+03  0.19342856969E+03  0.80419002446E+02 0.  1.
        -24    1    1    2    0    0 -0.83571394193E+02  0.21109301267E+02 -0.44061683772E+03  0.45611423368E+03  0.80419002446E+02 0. -1.
<mgrwt>
<rscale>  0 0.11788552E+03</rscale>
<asrwt>0</asrwt>
<pdfrwt beam="1">  1        1 0.95654927E-01 0.11788552E+03</pdfrwt>
<pdfrwt beam="2">  1       -1 0.42747255E-02 0.11788552E+03</pdfrwt>
<totfact> 0.71005763E+03</totfact>
</mgrwt>
</event>
<event>
 4    1  0.1437859E-001  0.1156525E+03  0.7546771E-02  0.1250446E+00
         -1   -1    0    0    0  501 -0.00000000000E+00  0.00000000000E+00  0.49356290798E+02  0.49356290798E+02  0.00000000000E+00 0.  1.
          1   -1    0    0  501    0  0.00000000000E+00 -0.00000000000E+00 -0.37333651973E+03  0.37333651973E+03  0.00000000000E+00 0. -1.
         24    1    1    2    0    0  0.77611639883E+02  0.29744286363E+02 -0.51337397089E+02  0.12653471267E+03  0.80419002446E+02 0.  1.
        -24    1    1    2    0    0 -0.77611639883E+02 -0.29744286363E+02 -0.27264283184E+03  0.29615809785E+03  0.80419002446E+02 0. -1.
<mgrwt>
<rscale>  0 0.11565252E+03</rscale>
<asrwt>0</asrwt>
<pdfrwt beam="1">  1        1 0.57436386E-01 0.11565252E+03</pdfrwt>
<pdfrwt beam="2">  1       -1 0.75932757E-02 0.11565252E+03</pdfrwt>
<totfact> 0.58594260E+03</totfact>
</mgrwt>
</event>
<event>
 4    1  0.1437859E-001  0.9443535E+02  0.7546771E-02  0.1292453E+00
         -2   -1    0    0    0  501 -0.00000000000E+00  0.00000000000E+00  0.79459383729E+01  0.79459383729E+01  0.00000000000E+00 0.  1.
          2   -1    0    0  501    0  0.00000000000E+00 -0.00000000000E+00 -0.11318191643E+04  0.11318191643E+04  0.00000000000E+00 0. -1.
         24    1    1    2    0    0 -0.46755527338E+02  0.16270821144E+02 -0.61409323149E+03  0.62131194410E+03  0.80419002446E+02 0.  1.
        -24    1    1    2    0    0  0.46755527338E+02 -0.16270821144E+02 -0.50977999440E+03  0.51845315854E+03  0.80419002446E+02 0.  0.
<mgrwt>
<rscale>  0 0.94435348E+02</rscale>
<asrwt>0</asrwt>
<pdfrwt beam="1">  1        2 0.17412589E+00 0.94435348E+02</pdfrwt>
<pdfrwt beam="2">  1       -2 0.12224530E-02 0.94435348E+02</pdfrwt>
<totfact> 0.32013193E+04</totfact>
</mgrwt>
</event>
<event>
 4    1  0.5675772E-001  0.9698311E+02  0.7546771E-02  0.1286771E+00
          1   -1    0    0  501    0  0.00000000000E+00  0.00000000000E+00  0.93071448601E+03  0.93071448601E+03  0.00000000000E+00 0. -1.
         -1   -1    0    0    0  501 -0.00000000000E+00 -0.00000000000E+00 -0.54410924333E+03  0.54410924333E+03  0.00000000000E+00 0.  1.
         24    1    1    2    0    0  0.23140772606E+02  0.49020533831E+02 -0.53722905151E+03  0.54591279325E+03  0.80419002446E+02 0.  1.
        -24    1    1    2    0    0 -0.23140772606E+02 -0.49020533831E+02  0.92383429419E+03  0.92891093608E+03  0.80419002446E+02 0. -1.
<mgrwt>
<rscale>  0 0.96983112E+02</rscale>
<asrwt>0</asrwt>
<pdfrwt beam="1">  1        1 0.14318684E+00 0.96983112E+02</pdfrwt>
<pdfrwt beam="2">  1       -1 0.83709115E-01 0.96983112E+02</pdfrwt>
<totfact> 0.29905193E+01</totfact>
</mgrwt>
</event>
<event>
 4    1  0.1437859E-001  0.9333649E+02  0.7546771E-02  0.1294967E+00
         -4   -1    0    0    0  501 -0.00000000000E+00  0.00000000000E+00  0.38074077135E+03  0.38074077135E+03  0.00000000000E+00 0.  1.
          4   -1    0    0  501    0  0.00000000000E+00 -0.00000000000E+00 -0.35267284945E+02  0.35267284945E+02  0.00000000000E+00 0. -1.
         24    1    1    2    0    0  0.20951557889E+02  0.42491361808E+02  0.49466671639E+02  0.10563451691E+03  0.80419002446E+02 0.  1.
        -24    1    1    2    0    0 -0.20951557889E+02 -0.42491361808E+02  0.29600681477E+03  0.31037353938E+03  0.80419002446E+02 0.  0.
<mgrwt>
<rscale>  0 0.93336486E+02</rscale>
<asrwt>0</asrwt>
<pdfrwt beam="1">  1        4 0.54257364E-02 0.93336486E+02</pdfrwt>
<pdfrwt beam="2">  1       -4 0.58575500E-01 0.93336486E+02</pdfrwt>
<totfact> 0.88744738E+02</totfact>
</mgrwt>
</event>
<event>
 4    1  0.1437859E-001  0.8591599E+02  0.7546771E-02  0.1313054E+00
         -2   -1    0    0    0  501 -0.00000000000E+00  0.00000000000E+00  0.27332322207E+02  0.27332322207E+02  0.00000000000E+00 0.  1.
          2   -1    0    0  501    0  0.00000000000E+00 -0.00000000000E+00 -0.27843892649E+03  0.27843892649E+03  0.00000000000E+00 0. -1.
         24    1    1    2    0    0  0.28373709107E+02 -0.10453424595E+02 -0.15206363547E+03  0.17465653907E+03  0.80419002446E+02 0. -1.
        -24    1    1    2    0    0 -0.28373709107E+02  0.10453424595E+02 -0.99042968814E+02  0.13111470963E+03  0.80419002446E+02 0.  0.
<mgrwt>
<rscale>  0 0.85915990E+02</rscale>
<asrwt>0</asrwt>
<pdfrwt beam="1">  1        2 0.42836759E-01 0.85915990E+02</pdfrwt>
<pdfrwt beam="2">  1       -2 0.42049726E-02 0.85915990E+02</pdfrwt>
<totfact> 0.26695286E+04</totfact>
</mgrwt>
</event>
<event>
 4    1  0.1437859E-001  0.8736338E+02  0.7546771E-02  0.1309365E+00
          2   -1    0    0  501    0  0.00000000000E+00  0.00000000000E+00  0.10446799919E+04  0.10446799919E+04  0.00000000000E+00 0. -1.
         -2   -1    0    0    0  501 -0.00000000000E+00 -0.00000000000E+00 -0.78991274686E+01  0.78991274686E+01  0.00000000000E+00 0.  1.
         24    1    1    2    0    0  0.12599926644E+02  0.31723589333E+02  0.66261338107E+03  0.66834785329E+03  0.80419002446E+02 0. -1.
        -24    1    1    2    0    0 -0.12599926644E+02 -0.31723589333E+02  0.37416748334E+03  0.38423126605E+03  0.80419002446E+02 0.  1.
<mgrwt>
<rscale>  0 0.87363380E+02</rscale>
<asrwt>0</asrwt>
<pdfrwt beam="1">  1        2 0.16071989E+00 0.87363380E+02</pdfrwt>
<pdfrwt beam="2">  1       -2 0.12152512E-02 0.87363380E+02</pdfrwt>
<totfact> 0.35881029E+04</totfact>
</mgrwt>
</event>
<event>
 4    1  0.1437859E-001  0.1021926E+03  0.7546771E-02  0.1275752E+00
          2   -1    0    0  501    0  0.00000000000E+00  0.00000000000E+00  0.87579618285E+01  0.87579618285E+01  0.00000000000E+00 0. -1.
         -2   -1    0    0    0  501 -0.00000000000E+00 -0.00000000000E+00 -0.14876439483E+04  0.14876439483E+04  0.00000000000E+00 0.  1.
         24    1    1    2    0    0 -0.13109225477E+02 -0.61678621728E+02 -0.40614565553E+03  0.41880498282E+03  0.80419002446E+02 0. -1.
        -24    1    1    2    0    0  0.13109225477E+02  0.61678621728E+02 -0.10727403309E+04  0.10775969273E+04  0.80419002446E+02 0.  1.
<mgrwt>
<rscale>  0 0.10219256E+03</rscale>
<asrwt>0</asrwt>
<pdfrwt beam="1">  1        2 0.13473772E-02 0.10219256E+03</pdfrwt>
<pdfrwt beam="2">  1       -2 0.22886856E+00 0.10219256E+03</pdfrwt>
<totfact> 0.86919030E+02</totfact>
</mgrwt>
</event>
<event>
 4    1  0.1437859E-001  0.9269045E+02  0.7546771E-02  0.1296464E+00
         -2   -1    0    0    0  501 -0.00000000000E+00  0.00000000000E+00  0.53462934608E+02  0.53462934608E+02  0.00000000000E+00 0.  1.
          2   -1    0    0  501    0  0.00000000000E+00 -0.00000000000E+00 -0.16356043947E+03  0.16356043947E+03  0.00000000000E+00 0. -1.
         24    1    1    2    0    0 -0.12844434810E+02 -0.44264261352E+02 -0.69397561095E+02  0.11579093997E+03  0.80419002446E+02 0. -1.
        -24    1    1    2    0    0  0.12844434810E+02  0.44264261352E+02 -0.40699943767E+02  0.10123243411E+03  0.80419002446E+02 0.  1.
<mgrwt>
<rscale>  0 0.92690454E+02</rscale>
<asrwt>0</asrwt>
<pdfrwt beam="1">  1        2 0.25163144E-01 0.92690454E+02</pdfrwt>
<pdfrwt beam="2">  1       -2 0.82250670E-02 0.92690454E+02</pdfrwt>
<totfact> 0.17332108E+04</totfact>
</mgrwt>
</event>
<event>
 4    1  0.1437859E-001  0.8671944E+02  0.7546771E-02  0.1310996E+00
          2   -1    0    0  501    0  0.00000000000E+00  0.00000000000E+00  0.79869535925E+02  0.79869535925E+02  0.00000000000E+00 0. -1.
         -2   -1    0    0    0  501 -0.00000000000E+00 -0.00000000000E+00 -0.10474367208E+03  0.10474367208E+03  0.00000000000E+00 0.  1.
         24    1    1    2    0    0  0.17447172894E+02 -0.27361305262E+02  0.16909172733E+02  0.88352594442E+02  0.80419002446E+02 0. -1.
        -24    1    1    2    0    0 -0.17447172894E+02  0.27361305262E+02 -0.41783308888E+02  0.96260613564E+02  0.80419002446E+02 0.  1.
<mgrwt>
<rscale>  0 0.86719437E+02</rscale>
<asrwt>0</asrwt>
<pdfrwt beam="1">  1        2 0.12287621E-01 0.86719437E+02</pdfrwt>
<pdfrwt beam="2">  1       -2 0.16114411E-01 0.86719437E+02</pdfrwt>
<totfact> 0.13444853E+04</totfact>
</mgrwt>
</event>
<event>
 4    1  0.1437859E-001  0.1129332E+03  0.7546771E-02  0.1255233E+00
         -2   -1    0    0    0  501 -0.00000000000E+00  0.00000000000E+00  0.86433012705E+01  0.86433012705E+01  0.00000000000E+00 0.  1.
          2   -1    0    0  501    0  0.00000000000E+00 -0.00000000000E+00 -0.15522072362E+04  0.15522072362E+04  0.00000000000E+00 0. -1.
         24    1    1    2    0    0 -0.78943206074E+02  0.73928305741E+01 -0.94517930073E+03  0.95190220623E+03  0.80419002446E+02 0.  1.
        -24    1    1    2    0    0  0.78943206074E+02 -0.73928305741E+01 -0.59838463421E+03  0.60894833126E+03  0.80419002446E+02 0. -1.
<mgrwt>
<rscale>  0 0.11293316E+03</rscale>
<asrwt>0</asrwt>
<pdfrwt beam="1">  1        2 0.23880126E+00 0.11293316E+03</pdfrwt>
<pdfrwt beam="2">  1       -2 0.13297379E-02 0.11293316E+03</pdfrwt>
<totfact> 0.17233543E+04</totfact>
</mgrwt>
</event>
<event>
 4    1  0.1437859E-001  0.9666442E+02  0.7546771E-02  0.1287471E+00
         -2   -1    0    0    0  501 -0.00000000000E+00  0.00000000000E+00  0.26100394999E+02  0.26100394999E+02  0.00000000000E+00 0.  1.
          2   -1    0    0  501    0  0.00000000000E+00 -0.00000000000E+00 -0.99090496197E+03  0.99090496197E+03  0.00000000000E+00 0. -1.
         24    1    1    2    0    0  0.13818718413E+02 -0.51825058497E+02 -0.88879470159E+03  0.89403581092E+03  0.80419002446E+02 0. -1.
        -24    1    1    2    0    0 -0.13818718413E+02  0.51825058497E+02 -0.76009865375E+02  0.12296954605E+03  0.80419002446E+02 0.  1.
<mgrwt>
<rscale>  0 0.96664418E+02</rscale>
<asrwt>0</asrwt>
<pdfrwt beam="1">  1        2 0.15244690E+00 0.96664418E+02</pdfrwt>
<pdfrwt beam="2">  1       -2 0.40154458E-02 0.96664418E+02</pdfrwt>
<totfact> 0.69320172E+03</totfact>
</mgrwt>
</event>
<event>
 4    1  0.1437859E-001  0.8148755E+02  0.7546771E-02  0.1324882E+00
         -1   -1    0    0    0  501 -0.00000000000E+00  0.00000000000E+00  0.34112766744E+03  0.34112766744E+03  0.00000000000E+00 0.  1.
          1   -1    0    0  501    0  0.00000000000E+00 -0.00000000000E+00 -0.31518790232E+02  0.31518790232E+02  0.00000000000E+00 0. -1.
         24    1    1    2    0    0  0.12988503352E+02 -0.20746841878E+01  0.27002632797E+03  0.28205396520E+03  0.80419002446E+02 0.  0.
        -24    1    1    2    0    0 -0.12988503352E+02  0.20746841878E+01  0.39582549238E+02  0.90592492472E+02  0.80419002446E+02 0. -1.
<mgrwt>
<rscale>  0 0.81487554E+02</rscale>
<asrwt>0</asrwt>
<pdfrwt beam="1">  1        1 0.48490449E-02 0.81487554E+02</pdfrwt>
<pdfrwt beam="2">  1       -1 0.52481177E-01 0.81487554E+02</pdfrwt>
<totfact> 0.59407777E+03</totfact>
</mgrwt>
</event>
<event>
 4    1  0.1437859E-001  0.1291152E+03  0.7546771E-02  0.1228775E+00
          2   -1    0    0  501    0  0.00000000000E+00  0.00000000000E+00  0.16386713247E+04  0.16386713247E+04  0.00000000000E+00 0. -1.
         -2   -1    0    0    0  501 -0.00000000000E+00 -0.00000000000E+00 -0.12229854497E+02  0.12229854497E+02  0.00000000000E+00 0.  1.
         24    1    1    2    0    0  0.10132711520E+02  0.10050298676E+03  0.11517122351E+04  0.11589270084E+04  0.80419002446E+02 0. -1.
        -24    1    1    2    0    0 -0.10132711520E+02 -0.10050298676E+03  0.47472923510E+03  0.49197417087E+03  0.80419002446E+02 0.  1.
<mgrwt>
<rscale>  0 0.12911521E+03</rscale>
<asrwt>0</asrwt>
<pdfrwt beam="1">  1        2 0.25210311E+00 0.12911521E+03</pdfrwt>
<pdfrwt beam="2">  1       -2 0.18815174E-02 0.12911521E+03</pdfrwt>
<totfact> 0.95044359E+03</totfact>
</mgrwt>
</event>
<event>
 4    1  0.1437859E-001  0.1673470E+03  0.7546771E-02  0.1180643E+00
         -2   -1    0    0    0  501 -0.00000000000E+00  0.00000000000E+00  0.14565281134E+03  0.14565281134E+03  0.00000000000E+00 0.  1.
          2   -1    0    0  501    0  0.00000000000E+00 -0.00000000000E+00 -0.19478920979E+03  0.19478920979E+03  0.00000000000E+00 0. -1.
         24    1    1    2    0    0  0.99972267683E+01 -0.14641672370E+03 -0.43917033456E+02  0.17301365063E+03  0.80419002446E+02 0.  1.
        -24    1    1    2    0    0 -0.99972267683E+01  0.14641672370E+03 -0.52193649965E+01  0.16742837050E+03  0.80419002446E+02 0. -1.
<mgrwt>
<rscale>  0 0.16734700E+03</rscale>
<asrwt>0</asrwt>
<pdfrwt beam="1">  1        2 0.29967571E-01 0.16734700E+03</pdfrwt>
<pdfrwt beam="2">  1       -2 0.22408125E-01 0.16734700E+03</pdfrwt>
<totfact> 0.29552941E+03</totfact>
</mgrwt>
</event>
<event>
 4    1  0.1437859E-001  0.1288371E+03  0.7546771E-02  0.1229192E+00
         -2   -1    0    0    0  501 -0.00000000000E+00  0.00000000000E+00  0.74058883112E+02  0.74058883112E+02  0.00000000000E+00 0.  1.
          2   -1    0    0  501    0  0.00000000000E+00 -0.00000000000E+00 -0.24590473023E+03  0.24590473023E+03  0.00000000000E+00 0. -1.
         24    1    1    2    0    0 -0.10062773866E+03  0.24174534806E+01 -0.13352640567E+03  0.18554865355E+03  0.80419002446E+02 0. -1.
        -24    1    1    2    0    0  0.10062773866E+03 -0.24174534806E+01 -0.38319441442E+02  0.13441495979E+03  0.80419002446E+02 0.  1.
<mgrwt>
<rscale>  0 0.12883711E+03</rscale>
<asrwt>0</asrwt>
<pdfrwt beam="1">  1        2 0.37831498E-01 0.12883711E+03</pdfrwt>
<pdfrwt beam="2">  1       -2 0.11393674E-01 0.12883711E+03</pdfrwt>
<totfact> 0.69228334E+03</totfact>
</mgrwt>
</event>
<event>
 4    1  0.1489980E-001  0.8130979E+02  0.7546771E-02  0.1325375E+00
          1   -1    0    0  501    0  0.00000000000E+00  0.00000000000E+00  0.18489321905E+04  0.18489321905E+04  0.00000000000E+00 0. -1.
         -1   -1    0    0    0  501 -0.00000000000E+00 -0.00000000000E+00 -0.11520580737E+02  0.11520580737E+02  0.00000000000E+00 0.  1.
         24    1    1    2    0    0 -0.10531065809E+02  0.57586369427E+01  0.14621315564E+03  0.16730083109E+03  0.80419002446E+02 0.  1.
        -24    1    1    2    0    0  0.10531065809E+02 -0.57586369427E+01  0.16911984542E+04  0.16931519402E+04  0.80419002446E+02 0. -1.
<mgrwt>
<rscale>  0 0.81309785E+02</rscale>
<asrwt>0</asrwt>
<pdfrwt beam="1">  1        1 0.28445087E+00 0.81309785E+02</pdfrwt>
<pdfrwt beam="2">  1       -1 0.17723985E-02 0.81309785E+02</pdfrwt>
<totfact> 0.34015695E+03</totfact>
</mgrwt>
</event>
<event>
 4    1  0.1437859E-001  0.8487670E+02  0.7546771E-02  0.1315755E+00
          3   -1    0    0  501    0  0.00000000000E+00  0.00000000000E+00  0.31692527580E+03  0.31692527580E+03  0.00000000000E+00 0. -1.
         -3   -1    0    0    0  501 -0.00000000000E+00 -0.00000000000E+00 -0.27877000370E+02  0.27877000370E+02  0.00000000000E+00 0.  1.
         24    1    1    2    0    0 -0.64945125145E+01 -0.26356403347E+02  0.70453083451E+02  0.11030726002E+03  0.80419002446E+02 0.  1.
        -24    1    1    2    0    0  0.64945125145E+01  0.26356403347E+02  0.21859519198E+03  0.23449501616E+03  0.80419002446E+02 0.  1.
<mgrwt>
<rscale>  0 0.84876703E+02</rscale>
<asrwt>0</asrwt>
<pdfrwt beam="1">  1        3 0.48757732E-01 0.84876703E+02</pdfrwt>
<pdfrwt beam="2">  1       -3 0.42887695E-02 0.84876703E+02</pdfrwt>
<totfact> 0.25502537E+03</totfact>
</mgrwt>
</event>
<event>
 4    1  0.1437859E-001  0.8781425E+02  0.7546771E-02  0.1308233E+00
         -2   -1    0    0    0  501 -0.00000000000E+00  0.00000000000E+00  0.32275345084E+02  0.32275345084E+02  0.00000000000E+00 0.  1.
          2   -1    0    0  501    0  0.00000000000E+00 -0.00000000000E+00 -0.23914354471E+03  0.23914354471E+03  0.00000000000E+00 0. -1.
         24    1    1    2    0    0  0.84968657199E+01  0.34233410462E+02 -0.99317715028E+02  0.13257204680E+03  0.80419002446E+02 0.  1.
        -24    1    1    2    0    0 -0.84968657199E+01 -0.34233410462E+02 -0.10755048460E+03  0.13884684300E+03  0.80419002446E+02 0. -1.
<mgrwt>
<rscale>  0 0.87814241E+02</rscale>
<asrwt>0</asrwt>
<pdfrwt beam="1">  1        2 0.36791313E-01 0.87814252E+02</pdfrwt>
<pdfrwt beam="2">  1       -2 0.49654379E-02 0.87814252E+02</pdfrwt>
<totfact> 0.24552795E+04</totfact>
</mgrwt>
</event>
<event>
 4    1  0.1437859E-001  0.9033977E+02  0.7546771E-02  0.1302031E+00
         -1   -1    0    0    0  501 -0.00000000000E+00  0.00000000000E+00  0.12267417514E+03  0.12267417514E+03  0.00000000000E+00 0.  1.
          1   -1    0    0  501    0  0.00000000000E+00 -0.00000000000E+00 -0.13804145032E+03  0.13804145032E+03  0.00000000000E+00 0. -1.
         24    1    1    2    0    0 -0.89948311861E+01  0.40164051905E+02  0.86142969877E+02  0.12482742194E+03  0.80419002446E+02 0.  1.
        -24    1    1    2    0    0  0.89948311861E+01 -0.40164051905E+02 -0.10151024505E+03  0.13588820353E+03  0.80419002446E+02 0. -1.
<mgrwt>
<rscale>  0 0.90339770E+02</rscale>
<asrwt>0</asrwt>
<pdfrwt beam="1">  1        1 0.21237146E-01 0.90339770E+02</pdfrwt>
<pdfrwt beam="2">  1       -1 0.18872950E-01 0.90339770E+02</pdfrwt>
<totfact> 0.48672773E+03</totfact>
</mgrwt>
</event>
<event>
 4    1  0.1437859E-001  0.1176435E+03  0.7546771E-02  0.1247036E+00
         -2   -1    0    0    0  501 -0.00000000000E+00  0.00000000000E+00  0.88600822214E+03  0.88600822214E+03  0.00000000000E+00 0.  1.
          2   -1    0    0  501    0  0.00000000000E+00 -0.00000000000E+00 -0.20771019238E+02  0.20771019238E+02  0.00000000000E+00 0. -1.
         24    1    1    2    0    0 -0.97467676353E+01  0.85309896911E+02  0.20685012690E+03  0.23796421778E+03  0.80419002446E+02 0. -1.
        -24    1    1    2    0    0  0.97467676353E+01 -0.85309896911E+02  0.65838707600E+03  0.66881502360E+03  0.80419002446E+02 0.  1.
<mgrwt>
<rscale>  0 0.11764350E+03</rscale>
<asrwt>0</asrwt>
<pdfrwt beam="1">  1        2 0.31955421E-02 0.11764350E+03</pdfrwt>
<pdfrwt beam="2">  1       -2 0.13630893E+00 0.11764350E+03</pdfrwt>
<totfact> 0.11157515E+03</totfact>
</mgrwt>
</event>
<event>
 4    1  0.1437859E-001  0.1193431E+03  0.7546771E-02  0.1244185E+00
          1   -1    0    0  501    0  0.00000000000E+00  0.00000000000E+00  0.14349953623E+04  0.14349953623E+04  0.00000000000E+00 0. -1.
         -1   -1    0    0    0  501 -0.00000000000E+00 -0.00000000000E+00 -0.10923913769E+02  0.10923913769E+02  0.00000000000E+00 0.  1.
         24    1    1    2    0    0  0.53288263992E+02  0.70256051460E+02  0.49344967901E+03  0.50767642600E+03  0.80419002446E+02 0.  1.
        -24    1    1    2    0    0 -0.53288263992E+02 -0.70256051460E+02  0.93062176955E+03  0.93824285010E+03  0.80419002446E+02 0. -1.
<mgrwt>
<rscale>  0 0.11934307E+03</rscale>
<asrwt>0</asrwt>
<pdfrwt beam="1">  1        1 0.22076837E+00 0.11934307E+03</pdfrwt>
<pdfrwt beam="2">  1       -1 0.16806033E-02 0.11934307E+03</pdfrwt>
<totfact> 0.68014143E+03</totfact>
</mgrwt>
</event>
<event>
 4    1  0.1437859E-001  0.8622957E+02  0.7546771E-02  0.1312248E+00
         -2   -1    0    0    0  501 -0.00000000000E+00  0.00000000000E+00  0.50026285320E+03  0.50026285320E+03  0.00000000000E+00 0.  1.
          2   -1    0    0  501    0  0.00000000000E+00 -0.00000000000E+00 -0.47025539978E+02  0.47025539978E+02  0.00000000000E+00 0. -1.
         24    1    1    2    0    0 -0.22705236308E+01  0.31034948214E+02  0.31439704168E+00  0.86230146052E+02  0.80419002446E+02 0. -1.
        -24    1    1    2    0    0  0.22705236308E+01 -0.31034948214E+02  0.45292291618E+03  0.46105824713E+03  0.80419002446E+02 0.  1.
<mgrwt>
<rscale>  0 0.86229573E+02</rscale>
<asrwt>0</asrwt>
<pdfrwt beam="1">  1        2 0.72346988E-02 0.86229573E+02</pdfrwt>
<pdfrwt beam="2">  1       -2 0.76963512E-01 0.86229573E+02</pdfrwt>
<totfact> 0.14176094E+03</totfact>
</mgrwt>
</event>
<event>
 4    1  0.1437859E-001  0.8849048E+02  0.7546771E-02  0.1306549E+00
          1   -1    0    0  501    0  0.00000000000E+00  0.00000000000E+00  0.32294126033E+03  0.32294126033E+03  0.00000000000E+00 0. -1.
         -1   -1    0    0    0  501 -0.00000000000E+00 -0.00000000000E+00 -0.24642803409E+02  0.24642803409E+02  0.00000000000E+00 0.  1.
         24    1    1    2    0    0  0.34276912170E+02  0.13727428475E+02  0.12714173623E+03  0.15490508722E+03  0.80419002446E+02 0.  1.
        -24    1    1    2    0    0 -0.34276912170E+02 -0.13727428475E+02  0.17115672070E+03  0.19267897653E+03  0.80419002446E+02 0. -1.
<mgrwt>
<rscale>  0 0.88490479E+02</rscale>
<asrwt>0</asrwt>
<pdfrwt beam="1">  1        1 0.49683268E-01 0.88490479E+02</pdfrwt>
<pdfrwt beam="2">  1       -1 0.37912007E-02 0.88490479E+02</pdfrwt>
<totfact> 0.19050744E+04</totfact>
</mgrwt>
</event>
<event>
 4    1  0.1437859E-001  0.1508322E+03  0.7546771E-02  0.1199454E+00
          2   -1    0    0  501    0  0.00000000000E+00  0.00000000000E+00  0.40132597657E+04  0.40132597657E+04  0.00000000000E+00 0. -1.
         -2   -1    0    0    0  501 -0.00000000000E+00 -0.00000000000E+00 -0.57235950801E+01  0.57235950801E+01  0.00000000000E+00 0.  1.
         24    1    1    2    0    0 -0.27444772640E+02  0.12461912809E+03  0.22003894981E+04  0.22055530603E+04  0.80419002446E+02 0. -1.
        -24    1    1    2    0    0  0.27444772640E+02 -0.12461912809E+03  0.18071466725E+04  0.18134303004E+04  0.80419002446E+02 0.  1.
<mgrwt>
<rscale>  0 0.15083222E+03</rscale>
<asrwt>0</asrwt>
<pdfrwt beam="1">  1        2 0.61742233E+00 0.15083222E+03</pdfrwt>
<pdfrwt beam="2">  1       -2 0.88055630E-03 0.15083222E+03</pdfrwt>
<totfact> 0.11616301E+03</totfact>
</mgrwt>
</event>
<event>
 4    1  0.1437859E-001  0.9855826E+02  0.7546771E-02  0.1283357E+00
         -1   -1    0    0    0  501 -0.00000000000E+00  0.00000000000E+00  0.25816560136E+03  0.25816560136E+03  0.00000000000E+00 0.  1.
          1   -1    0    0  501    0  0.00000000000E+00 -0.00000000000E+00 -0.50854393619E+03  0.50854393619E+03  0.00000000000E+00 0. -1.
         24    1    1    2    0    0 -0.22150327706E+02  0.52496454203E+02  0.24371134689E+03  0.26288581415E+03  0.80419002446E+02 0.  1.
        -24    1    1    2    0    0  0.22150327706E+02 -0.52496454203E+02 -0.49408968172E+03  0.50382372340E+03  0.80419002446E+02 0. -1.
<mgrwt>
<rscale>  0 0.98558260E+02</rscale>
<asrwt>0</asrwt>
<pdfrwt beam="1">  1        1 0.78237528E-01 0.98558260E+02</pdfrwt>
<pdfrwt beam="2">  1       -1 0.39717785E-01 0.98558260E+02</pdfrwt>
<totfact> 0.28487441E+02</totfact>
</mgrwt>
</event>
<event>
 4    1  0.1437859E-001  0.8097631E+02  0.7546771E-02  0.1326303E+00
         -2   -1    0    0    0  501 -0.00000000000E+00  0.00000000000E+00  0.60340656158E+01  0.60340656158E+01  0.00000000000E+00 0.  1.
          2   -1    0    0  501    0  0.00000000000E+00 -0.00000000000E+00 -0.12841839499E+04  0.12841839499E+04  0.00000000000E+00 0. -1.
         24    1    1    2    0    0 -0.90968880948E+01 -0.26821376590E+01 -0.89206041224E+03  0.89572816316E+03  0.80419002446E+02 0. -1.
        -24    1    1    2    0    0  0.90968880948E+01  0.26821376590E+01 -0.38608947207E+03  0.39448985238E+03  0.80419002446E+02 0.  0.
<mgrwt>
<rscale>  0 0.80976313E+02</rscale>
<asrwt>0</asrwt>
<pdfrwt beam="1">  1        2 0.19756677E+00 0.80976313E+02</pdfrwt>
<pdfrwt beam="2">  1       -2 0.92831774E-03 0.80976313E+02</pdfrwt>
<totfact> 0.38517507E+04</totfact>
</mgrwt>
</event>
<event>
 4    1  0.1437859E-001  0.1027582E+03  0.7546771E-02  0.1274601E+00
          2   -1    0    0  501    0  0.00000000000E+00  0.00000000000E+00  0.10414134789E+03  0.10414134789E+03  0.00000000000E+00 0. -1.
         -2   -1    0    0    0  501 -0.00000000000E+00 -0.00000000000E+00 -0.13206971596E+03  0.13206971596E+03  0.00000000000E+00 0.  1.
         24    1    1    2    0    0  0.14841967550E+02 -0.62223297248E+02  0.42956573644E+02  0.11137551748E+03  0.80419002446E+02 0. -1.
        -24    1    1    2    0    0 -0.14841967550E+02  0.62223297248E+02 -0.70884941718E+02  0.12483554637E+03  0.80419002446E+02 0.  0.
<mgrwt>
<rscale>  0 0.10275816E+03</rscale>
<asrwt>0</asrwt>
<pdfrwt beam="1">  1        2 0.16021746E-01 0.10275816E+03</pdfrwt>
<pdfrwt beam="2">  1       -2 0.20318418E-01 0.10275816E+03</pdfrwt>
<totfact> 0.68262877E+03</totfact>
</mgrwt>
</event>
<event>
 4    1  0.1437859E-001  0.1043901E+03  0.7546771E-02  0.1271326E+00
         -1   -1    0    0    0  501 -0.00000000000E+00  0.00000000000E+00  0.86745354096E+02  0.86745354096E+02  0.00000000000E+00 0.  1.
          1   -1    0    0  501    0  0.00000000000E+00 -0.00000000000E+00 -0.37567265020E+03  0.37567265020E+03  0.00000000000E+00 0. -1.
         24    1    1    2    0    0  0.60294556379E+02 -0.28189538521E+02  0.44166973286E+02  0.11334911157E+03  0.80419002446E+02 0.  1.
        -24    1    1    2    0    0 -0.60294556379E+02  0.28189538521E+02 -0.33309426939E+03  0.34906889272E+03  0.80419002446E+02 0. -1.
<mgrwt>
<rscale>  0 0.10439013E+03</rscale>
<asrwt>0</asrwt>
<pdfrwt beam="1">  1        1 0.57795791E-01 0.10439013E+03</pdfrwt>
<pdfrwt beam="2">  1       -1 0.13345439E-01 0.10439013E+03</pdfrwt>
<totfact> 0.24552628E+03</totfact>
</mgrwt>
</event>
<event>
 4    1  0.1437859E-001  0.8454816E+02  0.7546771E-02  0.1316618E+00
          2   -1    0    0  501    0  0.00000000000E+00  0.00000000000E+00  0.35525496719E+02  0.35525496719E+02  0.00000000000E+00 0. -1.
         -2   -1    0    0    0  501 -0.00000000000E+00 -0.00000000000E+00 -0.43208457451E+03  0.43208457451E+03  0.00000000000E+00 0.  1.
         24    1    1    2    0    0  0.48685274872E+01  0.25641224519E+02 -0.27376635992E+02  0.88869967409E+02  0.80419002446E+02 0. -1.
        -24    1    1    2    0    0 -0.48685274872E+01 -0.25641224519E+02 -0.36918244180E+03  0.37874010382E+03  0.80419002446E+02 0.  1.
<mgrwt>
<rscale>  0 0.84548157E+02</rscale>
<asrwt>0</asrwt>
<pdfrwt beam="1">  1        2 0.54654610E-02 0.84548157E+02</pdfrwt>
<pdfrwt beam="2">  1       -2 0.66474551E-01 0.84548157E+02</pdfrwt>
<totfact> 0.27515076E+03</totfact>
</mgrwt>
</event>
<event>
 4    1  0.1437859E-001  0.8076717E+02  0.7546771E-02  0.1326888E+00
          2   -1    0    0  501    0  0.00000000000E+00  0.00000000000E+00  0.60431933339E+03  0.60431933339E+03  0.00000000000E+00 0. -1.
         -2   -1    0    0    0  501 -0.00000000000E+00 -0.00000000000E+00 -0.21551852296E+02  0.21551852296E+02  0.00000000000E+00 0.  1.
         24    1    1    2    0    0  0.24771712181E+01  0.70698485181E+01  0.51247166434E+03  0.51879720685E+03  0.80419002446E+02 0.  0.
        -24    1    1    2    0    0 -0.24771712181E+01 -0.70698485181E+01  0.70295816758E+02  0.10707397883E+03  0.80419002446E+02 0.  1.
<mgrwt>
<rscale>  0 0.80767166E+02</rscale>
<asrwt>0</asrwt>
<pdfrwt beam="1">  1        2 0.92972192E-01 0.80767166E+02</pdfrwt>
<pdfrwt beam="2">  1       -2 0.33156700E-02 0.80767166E+02</pdfrwt>
<totfact> 0.16496488E+04</totfact>
</mgrwt>
</event>
<event>
 4    1  0.1437859E-001  0.1149382E+03  0.7546771E-02  0.1251689E+00
          2   -1    0    0  501    0  0.00000000000E+00  0.00000000000E+00  0.24258559967E+04  0.24258559967E+04  0.00000000000E+00 0. -1.
         -2   -1    0    0    0  501 -0.00000000000E+00 -0.00000000000E+00 -0.23256457945E+02  0.23256457945E+02  0.00000000000E+00 0.  1.
         24    1    1    2    0    0  0.26558423812E+02  0.77706027117E+02  0.22729340461E+04  0.22758383006E+04  0.80419002446E+02 0. -1.
        -24    1    1    2    0    0 -0.26558423812E+02 -0.77706027117E+02  0.12966549265E+03  0.17327415406E+03  0.80419002446E+02 0.  1.
<mgrwt>
<rscale>  0 0.11493821E+03</rscale>
<asrwt>0</asrwt>
<pdfrwt beam="1">  1        2 0.37320841E+00 0.11493821E+03</pdfrwt>
<pdfrwt beam="2">  1       -2 0.35779185E-02 0.11493821E+03</pdfrwt>
<totfact> 0.14667676E+03</totfact>
</mgrwt>
</event>
<event>
 4    1  0.1437859E-001  0.1229998E+03  0.7546771E-02  0.1238229E+00
         -2   -1    0    0    0  501 -0.00000000000E+00  0.00000000000E+00  0.12900551558E+02  0.12900551558E+02  0.00000000000E+00 0.  1.
          2   -1    0    0  501    0  0.00000000000E+00 -0.00000000000E+00 -0.13366195719E+04  0.13366195719E+04  0.00000000000E+00 0. -1.
         24    1    1    2    0    0  0.85447011077E+02 -0.36885289307E+02 -0.42558650943E+03  0.44300429934E+03  0.80419002446E+02 0. -1.
        -24    1    1    2    0    0 -0.85447011077E+02  0.36885289307E+02 -0.89813251095E+03  0.90651582415E+03  0.80419002446E+02 0.  1.
<mgrwt>
<rscale>  0 0.12299974E+03</rscale>
<asrwt>0</asrwt>
<pdfrwt beam="1">  1        2 0.20563364E+00 0.12299976E+03</pdfrwt>
<pdfrwt beam="2">  1       -2 0.19847016E-02 0.12299976E+03</pdfrwt>
<totfact> 0.12608728E+04</totfact>
</mgrwt>
</event>
<event>
 4    1  0.1437859E-001  0.1288916E+03  0.7546771E-02  0.1229110E+00
          2   -1    0    0  501    0  0.00000000000E+00  0.00000000000E+00  0.57998211590E+03  0.57998211590E+03  0.00000000000E+00 0. -1.
         -2   -1    0    0    0  501 -0.00000000000E+00 -0.00000000000E+00 -0.49861245811E+02  0.49861245811E+02  0.00000000000E+00 0.  1.
         24    1    1    2    0    0  0.99155872685E+02 -0.17718676658E+02  0.47049081807E+03  0.48782646959E+03  0.80419002446E+02 0. -1.
        -24    1    1    2    0    0 -0.99155872685E+02  0.17718676658E+02  0.59630052024E+02  0.14201689213E+03  0.80419002446E+02 0.  1.
<mgrwt>
<rscale>  0 0.12889164E+03</rscale>
<asrwt>0</asrwt>
<pdfrwt beam="1">  1        2 0.89228013E-01 0.12889164E+03</pdfrwt>
<pdfrwt beam="2">  1       -2 0.76709613E-02 0.12889164E+03</pdfrwt>
<totfact> 0.51087696E+03</totfact>
</mgrwt>
</event>
<event>
 4    1  0.1437859E-001  0.9728338E+02  0.7546771E-02  0.1286115E+00
          2   -1    0    0  501    0  0.00000000000E+00  0.00000000000E+00  0.36062551607E+04  0.36062551607E+04  0.00000000000E+00 0. -1.
         -2   -1    0    0    0  501 -0.00000000000E+00 -0.00000000000E+00 -0.92558896121E+01  0.92558896121E+01  0.00000000000E+00 0.  1.
         24    1    1    2    0    0  0.42412788070E+01 -0.54578862707E+02  0.33286636055E+04  0.33300849021E+04  0.80419002446E+02 0. -1.
        -24    1    1    2    0    0 -0.42412788070E+01  0.54578862707E+02  0.26833566563E+03  0.28542614825E+03  0.80419002446E+02 0.  1.
<mgrwt>
<rscale>  0 0.97283383E+02</rscale>
<asrwt>0</asrwt>
<pdfrwt beam="1">  1        2 0.55480737E+00 0.97283383E+02</pdfrwt>
<pdfrwt beam="2">  1       -2 0.14239859E-02 0.97283383E+02</pdfrwt>
<totfact> 0.11576057E+03</totfact>
</mgrwt>
</event>
<event>
 4    1  0.1437859E-001  0.1589263E+03  0.7546771E-02  0.1189914E+00
          1   -1    0    0  501    0  0.00000000000E+00  0.00000000000E+00  0.41575970074E+03  0.41575970074E+03  0.00000000000E+00 0. -1.
         -1   -1    0    0    0  501 -0.00000000000E+00 -0.00000000000E+00 -0.11198956998E+03  0.11198956998E+03  0.00000000000E+00 0.  1.
         24    1    1    2    0    0 -0.28280456425E+02  0.13412893055E+03 -0.26603286628E+02  0.16113753454E+03  0.80419002446E+02 0.  1.
        -24    1    1    2    0    0  0.28280456425E+02 -0.13412893055E+03  0.33037341739E+03  0.36661173617E+03  0.80419002446E+02 0. -1.
<mgrwt>
<rscale>  0 0.15892630E+03</rscale>
<asrwt>0</asrwt>
<pdfrwt beam="1">  1        1 0.63963030E-01 0.15892630E+03</pdfrwt>
<pdfrwt beam="2">  1       -1 0.17229165E-01 0.15892630E+03</pdfrwt>
<totfact> 0.14678195E+03</totfact>
</mgrwt>
</event>
<event>
 4    1  0.1437859E-001  0.9659022E+02  0.7546771E-02  0.1287634E+00
         -2   -1    0    0    0  501 -0.00000000000E+00  0.00000000000E+00  0.25170023984E+02  0.25170023984E+02  0.00000000000E+00 0.  1.
          2   -1    0    0  501    0  0.00000000000E+00 -0.00000000000E+00 -0.51900819806E+03  0.51900819806E+03  0.00000000000E+00 0. -1.
         24    1    1    2    0    0 -0.52845330323E+02  0.83561261369E+01 -0.39238342871E+03  0.40409704882E+03  0.80419002446E+02 0.  0.
        -24    1    1    2    0    0  0.52845330323E+02 -0.83561261369E+01 -0.10145474536E+03  0.14008117322E+03  0.80419002446E+02 0. -1.
<mgrwt>
<rscale>  0 0.96590216E+02</rscale>
<asrwt>0</asrwt>
<pdfrwt beam="1">  1        2 0.79847405E-01 0.96590216E+02</pdfrwt>
<pdfrwt beam="2">  1       -2 0.38723119E-02 0.96590216E+02</pdfrwt>
<totfact> 0.15805196E+04</totfact>
</mgrwt>
</event>
<event>
 4    1  0.1437859E-001  0.9236659E+02  0.7546771E-02  0.1297220E+00
         -3   -1    0    0    0  501 -0.00000000000E+00  0.00000000000E+00  0.37100547957E+01  0.37100547957E+01  0.00000000000E+00 0.  1.
          3   -1    0    0  501    0  0.00000000000E+00 -0.00000000000E+00 -0.24795516077E+04  0.24795516077E+04  0.00000000000E+00 0. -1.
         24    1    1    2    0    0 -0.45351832708E+02 -0.27527618726E+01 -0.15724262051E+04  0.15751367410E+04  0.80419002446E+02 0.  0.
        -24    1    1    2    0    0  0.45351832708E+02  0.27527618726E+01 -0.90341534785E+03  0.90812492153E+03  0.80419002446E+02 0. -1.
<mgrwt>
<rscale>  0 0.92366577E+02</rscale>
<asrwt>0</asrwt>
<pdfrwt beam="1">  1        3 0.38147023E+00 0.92366588E+02</pdfrwt>
<pdfrwt beam="2">  1       -3 0.57077653E-03 0.92366588E+02</pdfrwt>
<totfact> 0.24783870E+02</totfact>
</mgrwt>
</event>
<event>
 4    1  0.1437859E-001  0.8090439E+02  0.7546771E-02  0.1326504E+00
         -1   -1    0    0    0  501 -0.00000000000E+00  0.00000000000E+00  0.24269909905E+03  0.24269909905E+03  0.00000000000E+00 0.  1.
          1   -1    0    0  501    0  0.00000000000E+00 -0.00000000000E+00 -0.37366682224E+02  0.37366682224E+02  0.00000000000E+00 0. -1.
         24    1    1    2    0    0 -0.49126051883E+01  0.73600201580E+01  0.17653170767E+03  0.19418795883E+03  0.80419002446E+02 0.  0.
        -24    1    1    2    0    0  0.49126051883E+01 -0.73600201580E+01  0.28800709161E+02  0.85877822451E+02  0.80419002446E+02 0. -1.
<mgrwt>
<rscale>  0 0.80904385E+02</rscale>
<asrwt>0</asrwt>
<pdfrwt beam="1">  1        1 0.57487205E-02 0.80904385E+02</pdfrwt>
<pdfrwt beam="2">  1       -1 0.37338322E-01 0.80904385E+02</pdfrwt>
<totfact> 0.86030618E+03</totfact>
</mgrwt>
</event>
<event>
 4    1  0.1437859E-001  0.9419033E+02  0.7546771E-02  0.1293010E+00
         -1   -1    0    0    0  501 -0.00000000000E+00  0.00000000000E+00  0.11464025405E+02  0.11464025405E+02  0.00000000000E+00 0.  1.
          1   -1    0    0  501    0  0.00000000000E+00 -0.00000000000E+00 -0.77611115878E+03  0.77611115878E+03  0.00000000000E+00 0. -1.
         24    1    1    2    0    0 -0.46171464554E+02  0.16516485166E+02 -0.40342311256E+03  0.41427288365E+03  0.80419002446E+02 0. -1.
        -24    1    1    2    0    0  0.46171464554E+02 -0.16516485166E+02 -0.36122402081E+03  0.37330230054E+03  0.80419002446E+02 0.  1.
<mgrwt>
<rscale>  0 0.94190321E+02</rscale>
<asrwt>0</asrwt>
<pdfrwt beam="1">  1        1 0.11940170E+00 0.94190333E+02</pdfrwt>
<pdfrwt beam="2">  1       -1 0.17636965E-02 0.94190333E+02</pdfrwt>
<totfact> 0.18322079E+04</totfact>
</mgrwt>
</event>
<event>
 4    1  0.1437859E-001  0.9463921E+02  0.7546771E-02  0.1291991E+00
          4   -1    0    0  501    0  0.00000000000E+00  0.00000000000E+00  0.89477425614E+02  0.89477425614E+02  0.00000000000E+00 0. -1.
         -4   -1    0    0    0  501 -0.00000000000E+00 -0.00000000000E+00 -0.33424134993E+03  0.33424134993E+03  0.00000000000E+00 0.  1.
         24    1    1    2    0    0 -0.42641779130E+02  0.25904510837E+02  0.54938076316E+02  0.10942930683E+03  0.80419002446E+02 0. -1.
        -24    1    1    2    0    0  0.42641779130E+02 -0.25904510837E+02 -0.29970200063E+03  0.31428946872E+03  0.80419002446E+02 0.  1.
<mgrwt>
<rscale>  0 0.94639215E+02</rscale>
<asrwt>0</asrwt>
<pdfrwt beam="1">  1        4 0.13765758E-01 0.94639215E+02</pdfrwt>
<pdfrwt beam="2">  1       -4 0.51421747E-01 0.94639215E+02</pdfrwt>
<totfact> 0.24906879E+02</totfact>
</mgrwt>
</event>
<event>
 4    1  0.1437859E-001  0.8675605E+02  0.7546771E-02  0.1310903E+00
          1   -1    0    0  501    0  0.00000000000E+00  0.00000000000E+00  0.24199284235E+03  0.24199284235E+03  0.00000000000E+00 0. -1.
         -1   -1    0    0    0  501 -0.00000000000E+00 -0.00000000000E+00 -0.58554999752E+02  0.58554999752E+02  0.00000000000E+00 0.  1.
         24    1    1    2    0    0 -0.24660441913E+02  0.21242854547E+02 -0.11175445642E+02  0.87472868961E+02  0.80419002446E+02 0.  1.
        -24    1    1    2    0    0  0.24660441913E+02 -0.21242854547E+02  0.19461328824E+03  0.21307497314E+03  0.80419002446E+02 0. -1.
<mgrwt>
<rscale>  0 0.86756050E+02</rscale>
<asrwt>0</asrwt>
<pdfrwt beam="1">  1        1 0.37229668E-01 0.86756050E+02</pdfrwt>
<pdfrwt beam="2">  1       -1 0.90084616E-02 0.86756050E+02</pdfrwt>
<totfact> 0.75634070E+03</totfact>
</mgrwt>
</event>
<event>
 4    1  0.1437859E-001  0.8969495E+02  0.7546771E-02  0.1303592E+00
          4   -1    0    0  501    0  0.00000000000E+00  0.00000000000E+00  0.21057874948E+03  0.21057874948E+03  0.00000000000E+00 0. -1.
         -4   -1    0    0    0  501 -0.00000000000E+00 -0.00000000000E+00 -0.38395105967E+02  0.38395105967E+02  0.00000000000E+00 0.  1.
         24    1    1    2    0    0 -0.17280827428E+02 -0.35767887513E+02  0.94848827065E+02  0.13054303782E+03  0.80419002446E+02 0.  0.
        -24    1    1    2    0    0  0.17280827428E+02  0.35767887513E+02  0.77334816445E+02  0.11843081762E+03  0.80419002446E+02 0.  1.
<mgrwt>
<rscale>  0 0.89694954E+02</rscale>
<asrwt>0</asrwt>
<pdfrwt beam="1">  1        4 0.32396730E-01 0.89694954E+02</pdfrwt>
<pdfrwt beam="2">  1       -4 0.59069395E-02 0.89694954E+02</pdfrwt>
<totfact> 0.24738395E+03</totfact>
</mgrwt>
</event>
<event>
 4    1  0.1437859E-001  0.1317578E+03  0.7546771E-02  0.1224871E+00
          1   -1    0    0  501    0  0.00000000000E+00  0.00000000000E+00  0.20190662011E+02  0.20190662011E+02  0.00000000000E+00 0. -1.
         -1   -1    0    0    0  501 -0.00000000000E+00 -0.00000000000E+00 -0.88856457243E+03  0.88856457243E+03  0.00000000000E+00 0.  1.
         24    1    1    2    0    0  0.10371577576E+03 -0.11659075591E+02 -0.51592678540E+03  0.53248526743E+03  0.80419002446E+02 0.  1.
        -24    1    1    2    0    0 -0.10371577576E+03  0.11659075591E+02 -0.35244712502E+03  0.37626996701E+03  0.80419002446E+02 0. -1.
<mgrwt>
<rscale>  0 0.13175778E+03</rscale>
<asrwt>0</asrwt>
<pdfrwt beam="1">  1        1 0.31062556E-02 0.13175778E+03</pdfrwt>
<pdfrwt beam="2">  1       -1 0.13670224E+00 0.13175778E+03</pdfrwt>
<totfact> 0.15172353E+03</totfact>
</mgrwt>
</event>
<event>
 4    1  0.1437859E-001  0.8744894E+02  0.7546771E-02  0.1309150E+00
         -1   -1    0    0    0  501 -0.00000000000E+00  0.00000000000E+00  0.17249055326E+03  0.17249055326E+03  0.00000000000E+00 0.  1.
          1   -1    0    0  501    0  0.00000000000E+00 -0.00000000000E+00 -0.18195071048E+03  0.18195071048E+03  0.00000000000E+00 0. -1.
         24    1    1    2    0    0  0.32945532743E+02 -0.97310775023E+01  0.14939449041E+03  0.17310699499E+03  0.80419002446E+02 0.  1.
        -24    1    1    2    0    0 -0.32945532743E+02  0.97310775023E+01 -0.15885464762E+03  0.18133426875E+03  0.80419002446E+02 0. -1.
<mgrwt>
<rscale>  0 0.87448945E+02</rscale>
<asrwt>0</asrwt>
<pdfrwt beam="1">  1        1 0.27992417E-01 0.87448945E+02</pdfrwt>
<pdfrwt beam="2">  1       -1 0.26537008E-01 0.87448945E+02</pdfrwt>
<totfact> 0.19951148E+03</totfact>
</mgrwt>
</event>
<event>
 4    1  0.1437859E-001  0.9719786E+02  0.7546771E-02  0.1286301E+00
         -1   -1    0    0    0  501 -0.00000000000E+00  0.00000000000E+00  0.27357671085E+04  0.27357671085E+04  0.00000000000E+00 0.  1.
          1   -1    0    0  501    0  0.00000000000E+00 -0.00000000000E+00 -0.45349461147E+01  0.45349461147E+01  0.00000000000E+00 0. -1.
         24    1    1    2    0    0 -0.37872747917E+02 -0.39317459537E+02  0.20347684837E+04  0.20370886593E+04  0.80419002446E+02 0.  1.
        -24    1    1    2    0    0  0.37872747917E+02  0.39317459537E+02  0.69646367865E+03  0.70321339528E+03  0.80419002446E+02 0. -1.
<mgrwt>
<rscale>  0 0.97197858E+02</rscale>
<asrwt>0</asrwt>
<pdfrwt beam="1">  1        1 0.69768620E-03 0.97197858E+02</pdfrwt>
<pdfrwt beam="2">  1       -1 0.42088593E+00 0.97197858E+02</pdfrwt>
<totfact> 0.17357248E+02</totfact>
</mgrwt>
</event>
<event>
 4    1  0.1437859E-001  0.1013260E+03  0.7546771E-02  0.1277532E+00
         -2   -1    0    0    0  501 -0.00000000000E+00  0.00000000000E+00  0.75287213600E+02  0.75287213600E+02  0.00000000000E+00 0.  1.
          2   -1    0    0  501    0  0.00000000000E+00 -0.00000000000E+00 -0.32478645776E+03  0.32478645776E+03  0.00000000000E+00 0. -1.
         24    1    1    2    0    0  0.61036761282E+02 -0.86168774277E+01 -0.27710924688E+03  0.29505336376E+03  0.80419002446E+02 0. -1.
        -24    1    1    2    0    0 -0.61036761282E+02  0.86168774277E+01  0.27610002719E+02  0.10502030760E+03  0.80419002446E+02 0.  1.
<mgrwt>
<rscale>  0 0.10132597E+03</rscale>
<asrwt>0</asrwt>
<pdfrwt beam="1">  1        2 0.49967147E-01 0.10132597E+03</pdfrwt>
<pdfrwt beam="2">  1       -2 0.11582648E-01 0.10132597E+03</pdfrwt>
<totfact> 0.49499158E+03</totfact>
</mgrwt>
</event>
<event>
 4    1  0.1437859E-001  0.8908472E+02  0.7546771E-02  0.1305083E+00
          2   -1    0    0  501    0  0.00000000000E+00  0.00000000000E+00  0.19502930678E+02  0.19502930678E+02  0.00000000000E+00 0. -1.
         -2   -1    0    0    0  501 -0.00000000000E+00 -0.00000000000E+00 -0.43603664531E+03  0.43603664531E+03  0.00000000000E+00 0.  1.
         24    1    1    2    0    0  0.37271653119E+01 -0.38144200365E+02 -0.14940656334E+03  0.17394944353E+03  0.80419002446E+02 0.  0.
        -24    1    1    2    0    0 -0.37271653119E+01  0.38144200365E+02 -0.26712715130E+03  0.28159013246E+03  0.80419002446E+02 0. -1.
<mgrwt>
<rscale>  0 0.89084722E+02</rscale>
<asrwt>0</asrwt>
<pdfrwt beam="1">  1        2 0.30004512E-02 0.89084722E+02</pdfrwt>
<pdfrwt beam="2">  1       -2 0.67082555E-01 0.89084722E+02</pdfrwt>
<totfact> 0.59313254E+03</totfact>
</mgrwt>
</event>
<event>
 4    1  0.1437859E-001  0.1089757E+03  0.7546771E-02  0.1262479E+00
         -2   -1    0    0    0  501 -0.00000000000E+00  0.00000000000E+00  0.96093797330E+02  0.96093797330E+02  0.00000000000E+00 0.  1.
          2   -1    0    0  501    0  0.00000000000E+00 -0.00000000000E+00 -0.13408197619E+03  0.13408197619E+03  0.00000000000E+00 0. -1.
         24    1    1    2    0    0 -0.61257068725E+02  0.40694749109E+02 -0.51196337362E+02  0.12040254145E+03  0.80419002446E+02 0. -1.
        -24    1    1    2    0    0  0.61257068725E+02 -0.40694749109E+02  0.13208158502E+02  0.10977323207E+03  0.80419002446E+02 0.  1.
<mgrwt>
<rscale>  0 0.10897572E+03</rscale>
<asrwt>0</asrwt>
<pdfrwt beam="1">  1        2 0.20627996E-01 0.10897572E+03</pdfrwt>
<pdfrwt beam="2">  1       -2 0.14783661E-01 0.10897572E+03</pdfrwt>
<totfact> 0.87074325E+03</totfact>
</mgrwt>
</event>
<event>
 4    1  0.4099523E-001  0.8504616E+02  0.7546771E-02  0.1315312E+00
         -1   -1    0    0    0  501 -0.00000000000E+00  0.00000000000E+00  0.24018864531E+03  0.24018864531E+03  0.00000000000E+00 0.  1.
          1   -1    0    0  501    0  0.00000000000E+00 -0.00000000000E+00 -0.71907175831E+03  0.71907175831E+03  0.00000000000E+00 0. -1.
         24    1    1    2    0    0 -0.27476316437E+02 -0.32689382679E+01  0.23003829060E+03  0.24525591740E+03  0.80419002446E+02 0.  1.
        -24    1    1    2    0    0  0.27476316437E+02  0.32689382679E+01 -0.70892140359E+03  0.71400448622E+03  0.80419002446E+02 0. -1.
<mgrwt>
<rscale>  0 0.85046163E+02</rscale>
<asrwt>0</asrwt>
<pdfrwt beam="1">  1        1 0.11062643E+00 0.85046163E+02</pdfrwt>
<pdfrwt beam="2">  1       -1 0.36952099E-01 0.85046163E+02</pdfrwt>
<totfact> 0.20306370E+02</totfact>
</mgrwt>
</event>
<event>
 4    1  0.1437859E-001  0.8440865E+02  0.7546771E-02  0.1316986E+00
         -2   -1    0    0    0  501 -0.00000000000E+00  0.00000000000E+00  0.24252821144E+03  0.24252821144E+03  0.00000000000E+00 0.  1.
          2   -1    0    0  501    0  0.00000000000E+00 -0.00000000000E+00 -0.18917155669E+03  0.18917155669E+03  0.00000000000E+00 0. -1.
         24    1    1    2    0    0 -0.15373646212E+02 -0.20524519220E+02 -0.17170469464E+03  0.19133040271E+03  0.80419002446E+02 0. -1.
        -24    1    1    2    0    0  0.15373646212E+02  0.20524519220E+02  0.22506134939E+03  0.24036936541E+03  0.80419002446E+02 0.  1.
<mgrwt>
<rscale>  0 0.84408654E+02</rscale>
<asrwt>0</asrwt>
<pdfrwt beam="1">  1        2 0.29103316E-01 0.84408654E+02</pdfrwt>
<pdfrwt beam="2">  1       -2 0.37312033E-01 0.84408654E+02</pdfrwt>
<totfact> 0.11934634E+03</totfact>
</mgrwt>
</event>
<event>
 4    1  0.1437859E-001  0.1307567E+03  0.7546771E-02  0.1226337E+00
         -2   -1    0    0    0  501 -0.00000000000E+00  0.00000000000E+00  0.23470831580E+02  0.23470831580E+02  0.00000000000E+00 0.  1.
          2   -1    0    0  501    0  0.00000000000E+00 -0.00000000000E+00 -0.11632674387E+04  0.11632674387E+04  0.00000000000E+00 0. -1.
         24    1    1    2    0    0  0.95845291906E+02 -0.37996935642E+02 -0.93267481329E+03  0.94179594945E+03  0.80419002446E+02 0. -1.
        -24    1    1    2    0    0 -0.95845291906E+02  0.37996935642E+02 -0.20712179381E+03  0.24494232081E+03  0.80419002446E+02 0.  1.
<mgrwt>
<rscale>  0 0.13075666E+03</rscale>
<asrwt>0</asrwt>
<pdfrwt beam="1">  1        2 0.17896419E+00 0.13075666E+03</pdfrwt>
<pdfrwt beam="2">  1       -2 0.36108977E-02 0.13075666E+03</pdfrwt>
<totfact> 0.65512064E+03</totfact>
</mgrwt>
</event>
<event>
 4    1  0.1437859E-001  0.8119222E+02  0.7546771E-02  0.1325702E+00
         -1   -1    0    0    0  501 -0.00000000000E+00  0.00000000000E+00  0.26231532434E+01  0.26231532434E+01  0.00000000000E+00 0.  1.
          1   -1    0    0  501    0  0.00000000000E+00 -0.00000000000E+00 -0.25923632029E+04  0.25923632029E+04  0.00000000000E+00 0. -1.
         24    1    1    2    0    0  0.11154086650E+02  0.73784833638E+00 -0.15217878223E+04  0.15239522139E+04  0.80419002446E+02 0.  0.
        -24    1    1    2    0    0 -0.11154086650E+02 -0.73784833638E+00 -0.10679522273E+04  0.10710341422E+04  0.80419002446E+02 0.  0.
<mgrwt>
<rscale>  0 0.81192214E+02</rscale>
<asrwt>0</asrwt>
<pdfrwt beam="1">  1        1 0.39882658E+00 0.81192225E+02</pdfrwt>
<pdfrwt beam="2">  1       -1 0.40356054E-03 0.81192225E+02</pdfrwt>
<totfact> 0.92152049E+03</totfact>
</mgrwt>
</event>
<event>
 4    1  0.1437859E-001  0.8447917E+02  0.7546771E-02  0.1316800E+00
          1   -1    0    0  501    0  0.00000000000E+00  0.00000000000E+00  0.35977435418E+02  0.35977435418E+02  0.00000000000E+00 0. -1.
         -1   -1    0    0    0  501 -0.00000000000E+00 -0.00000000000E+00 -0.22002506448E+03  0.22002506448E+03  0.00000000000E+00 0.  1.
         24    1    1    2    0    0  0.10170941248E+02  0.23792073448E+02 -0.51864109949E+02  0.99129272468E+02  0.80419002446E+02 0. -1.
        -24    1    1    2    0    0 -0.10170941248E+02 -0.23792073448E+02 -0.13218351911E+03  0.15687322743E+03  0.80419002446E+02 0.  1.
<mgrwt>
<rscale>  0 0.84479160E+02</rscale>
<asrwt>0</asrwt>
<pdfrwt beam="1">  1        1 0.55349901E-02 0.84479171E+02</pdfrwt>
<pdfrwt beam="2">  1       -1 0.33850010E-01 0.84479171E+02</pdfrwt>
<totfact> 0.10737827E+04</totfact>
</mgrwt>
</event>
<event>
 4    1  0.1437859E-001  0.8620002E+02  0.7546771E-02  0.1312324E+00
          3   -1    0    0  501    0  0.00000000000E+00  0.00000000000E+00  0.15797020292E+03  0.15797020292E+03  0.00000000000E+00 0. -1.
         -3   -1    0    0    0  501 -0.00000000000E+00 -0.00000000000E+00 -0.18723948348E+03  0.18723948348E+03  0.00000000000E+00 0.  1.
         24    1    1    2    0    0  0.30869824659E+02  0.32063591269E+01 -0.16399389230E+03  0.18526856042E+03  0.80419002446E+02 0.  1.
        -24    1    1    2    0    0 -0.30869824659E+02 -0.32063591269E+01  0.13472461175E+03  0.15994112598E+03  0.80419002446E+02 0. -1.
<mgrwt>
<rscale>  0 0.86200016E+02</rscale>
<asrwt>0</asrwt>
<pdfrwt beam="1">  1        3 0.24303108E-01 0.86200016E+02</pdfrwt>
<pdfrwt beam="2">  1       -3 0.28806074E-01 0.86200016E+02</pdfrwt>
<totfact> 0.39696929E+02</totfact>
</mgrwt>
</event>
<event>
 4    1  0.1437859E-001  0.1719933E+03  0.7546771E-02  0.1175785E+00
          2   -1    0    0  501    0  0.00000000000E+00  0.00000000000E+00  0.12818712645E+04  0.12818712645E+04  0.00000000000E+00 0. -1.
         -2   -1    0    0    0  501 -0.00000000000E+00 -0.00000000000E+00 -0.56784915650E+02  0.56784915650E+02  0.00000000000E+00 0.  1.
         24    1    1    2    0    0  0.12257973982E+03  0.89937069155E+02  0.11282332825E+04  0.11412677270E+04  0.80419002446E+02 0. -1.
        -24    1    1    2    0    0 -0.12257973982E+03 -0.89937069155E+02  0.96853066375E+02  0.19738845316E+03  0.80419002446E+02 0.  1.
<mgrwt>
<rscale>  0 0.17199327E+03</rscale>
<asrwt>0</asrwt>
<pdfrwt beam="1">  1        2 0.19721094E+00 0.17199327E+03</pdfrwt>
<pdfrwt beam="2">  1       -2 0.87361419E-02 0.17199327E+03</pdfrwt>
<totfact> 0.14828246E+03</totfact>
</mgrwt>
</event>
<event>
 4    1  0.1437859E-001  0.8530318E+02  0.7546771E-02  0.1314642E+00
          2   -1    0    0  501    0  0.00000000000E+00  0.00000000000E+00  0.16860589061E+03  0.16860589061E+03  0.00000000000E+00 0. -1.
         -2   -1    0    0    0  501 -0.00000000000E+00 -0.00000000000E+00 -0.11056769201E+03  0.11056769201E+03  0.00000000000E+00 0.  1.
         24    1    1    2    0    0 -0.28447585372E+02  0.38962174315E+00  0.13801057250E+03  0.16224534198E+03  0.80419002446E+02 0.  0.
        -24    1    1    2    0    0  0.28447585372E+02 -0.38962174315E+00 -0.79972373902E+02  0.11692824065E+03  0.80419002446E+02 0.  0.
<mgrwt>
<rscale>  0 0.85303182E+02</rscale>
<asrwt>0</asrwt>
<pdfrwt beam="1">  1        2 0.25939368E-01 0.85303182E+02</pdfrwt>
<pdfrwt beam="2">  1       -2 0.17010414E-01 0.85303182E+02</pdfrwt>
<totfact> 0.52786170E+03</totfact>
</mgrwt>
</event>
<event>
 4    1  0.1437859E-001  0.8080174E+02  0.7546771E-02  0.1326791E+00
          3   -1    0    0  501    0  0.00000000000E+00  0.00000000000E+00  0.18964886535E+02  0.18964886535E+02  0.00000000000E+00 0. -1.
         -3   -1    0    0    0  501 -0.00000000000E+00 -0.00000000000E+00 -0.12425960308E+04  0.12425960308E+04  0.00000000000E+00 0.  1.
         24    1    1    2    0    0 -0.19305845219E+01 -0.76143525388E+01 -0.11481451785E+04  0.11509849141E+04  0.80419002446E+02 0.  1.
        -24    1    1    2    0    0  0.19305845219E+01  0.76143525388E+01 -0.75485965798E+02  0.11057600331E+03  0.80419002446E+02 0.  0.
<mgrwt>
<rscale>  0 0.80801742E+02</rscale>
<asrwt>0</asrwt>
<pdfrwt beam="1">  1        3 0.29176745E-02 0.80801742E+02</pdfrwt>
<pdfrwt beam="2">  1       -3 0.19116865E+00 0.80801742E+02</pdfrwt>
<totfact> 0.21142886E+02</totfact>
</mgrwt>
</event>
<event>
 4    1  0.1437859E-001  0.8557099E+02  0.7546771E-02  0.1313946E+00
         -1   -1    0    0    0  501 -0.00000000000E+00  0.00000000000E+00  0.31997258077E+03  0.31997258077E+03  0.00000000000E+00 0.  1.
          1   -1    0    0  501    0  0.00000000000E+00 -0.00000000000E+00 -0.22917599342E+02  0.22917599342E+02  0.00000000000E+00 0. -1.
         24    1    1    2    0    0  0.13763142385E+02 -0.25802209436E+02  0.15504870604E+03  0.17709459421E+03  0.80419002446E+02 0. -1.
        -24    1    1    2    0    0 -0.13763142385E+02  0.25802209436E+02  0.14200627538E+03  0.16579558589E+03  0.80419002446E+02 0.  1.
<mgrwt>
<rscale>  0 0.85570988E+02</rscale>
<asrwt>0</asrwt>
<pdfrwt beam="1">  1        1 0.35257847E-02 0.85570988E+02</pdfrwt>
<pdfrwt beam="2">  1       -1 0.49226548E-01 0.85570988E+02</pdfrwt>
<totfact> 0.10319743E+04</totfact>
</mgrwt>
</event>
<event>
 4    1  0.1437859E-001  0.8400831E+02  0.7546771E-02  0.1318046E+00
         -1   -1    0    0    0  501 -0.00000000000E+00  0.00000000000E+00  0.48013480281E+02  0.48013480281E+02  0.00000000000E+00 0.  1.
          1   -1    0    0  501    0  0.00000000000E+00 -0.00000000000E+00 -0.24974547377E+03  0.24974547377E+03  0.00000000000E+00 0. -1.
         24    1    1    2    0    0  0.24229294020E+02  0.17668472914E+01 -0.53682489995E+01  0.84179656033E+02  0.80419002446E+02 0.  1.
        -24    1    1    2    0    0 -0.24229294020E+02 -0.17668472914E+01 -0.19636374449E+03  0.21357929802E+03  0.80419002446E+02 0. -1.
<mgrwt>
<rscale>  0 0.84008311E+02</rscale>
<asrwt>0</asrwt>
<pdfrwt beam="1">  1        1 0.38422380E-01 0.84008311E+02</pdfrwt>
<pdfrwt beam="2">  1       -1 0.73866894E-02 0.84008311E+02</pdfrwt>
<totfact> 0.97577919E+03</totfact>
</mgrwt>
</event>
<event>
 4    1  0.1437859E-001  0.1157929E+03  0.7546771E-02  0.1250203E+00
         -1   -1    0    0    0  501 -0.00000000000E+00  0.00000000000E+00  0.86016927993E+02  0.86016927993E+02  0.00000000000E+00 0.  1.
          1   -1    0    0  501    0  0.00000000000E+00 -0.00000000000E+00 -0.53251357342E+03  0.53251357342E+03  0.00000000000E+00 0. -1.
         24    1    1    2    0    0 -0.82806410938E+02  0.91590433474E+01  0.36843918754E+02  0.12151329175E+03  0.80419002446E+02 0.  1.
        -24    1    1    2    0    0  0.82806410938E+02 -0.91590433474E+01 -0.48334056418E+03  0.49701720966E+03  0.80419002446E+02 0. -1.
<mgrwt>
<rscale>  0 0.11579294E+03</rscale>
<asrwt>0</asrwt>
<pdfrwt beam="1">  1        1 0.81925166E-01 0.11579294E+03</pdfrwt>
<pdfrwt beam="2">  1       -1 0.13233373E-01 0.11579294E+03</pdfrwt>
<totfact> 0.16014308E+03</totfact>
</mgrwt>
</event>
<event>
 4    1  0.1437859E-001  0.8362818E+02  0.7546771E-02  0.1319059E+00
          2   -1    0    0  501    0  0.00000000000E+00  0.00000000000E+00  0.15893478484E+04  0.15893478484E+04  0.00000000000E+00 0. -1.
         -2   -1    0    0    0  501 -0.00000000000E+00 -0.00000000000E+00 -0.53433799960E+01  0.53433799960E+01  0.00000000000E+00 0.  1.
         24    1    1    2    0    0  0.22151739078E+02 -0.59797474084E+01  0.11269702579E+04  0.11300688630E+04  0.80419002446E+02 0.  1.
        -24    1    1    2    0    0 -0.22151739078E+02  0.59797474084E+01  0.45703421054E+03  0.46462236546E+03  0.80419002446E+02 0.  0.
<mgrwt>
<rscale>  0 0.83628182E+02</rscale>
<asrwt>0</asrwt>
<pdfrwt beam="1">  1        2 0.24451468E+00 0.83628182E+02</pdfrwt>
<pdfrwt beam="2">  1       -2 0.82205973E-03 0.83628182E+02</pdfrwt>
<totfact> 0.31950429E+04</totfact>
</mgrwt>
</event>
<event>
 4    1  0.1437859E-001  0.1092000E+03  0.7546771E-02  0.1262058E+00
         -3   -1    0    0    0  501 -0.00000000000E+00  0.00000000000E+00  0.64212190252E+03  0.64212190252E+03  0.00000000000E+00 0.  1.
          3   -1    0    0  501    0  0.00000000000E+00 -0.00000000000E+00 -0.26207120393E+02  0.26207120393E+02  0.00000000000E+00 0. -1.
         24    1    1    2    0    0  0.19882708852E+02 -0.71148514810E+02  0.48834045719E+03  0.50040089064E+03  0.80419002446E+02 0.  1.
        -24    1    1    2    0    0 -0.19882708852E+02  0.71148514810E+02  0.12757432494E+03  0.16792813227E+03  0.80419002446E+02 0. -1.
<mgrwt>
<rscale>  0 0.10920004E+03</rscale>
<asrwt>0</asrwt>
<pdfrwt beam="1">  1        3 0.40318651E-02 0.10920004E+03</pdfrwt>
<pdfrwt beam="2">  1       -3 0.98787973E-01 0.10920004E+03</pdfrwt>
<totfact> 0.66769882E+02</totfact>
</mgrwt>
</event>
<event>
 4    1  0.1437859E-001  0.8383467E+02  0.7546771E-02  0.1318508E+00
          1   -1    0    0  501    0  0.00000000000E+00  0.00000000000E+00  0.49125309847E+03  0.49125309847E+03  0.00000000000E+00 0. -1.
         -1   -1    0    0    0  501 -0.00000000000E+00 -0.00000000000E+00 -0.17343977946E+02  0.17343977946E+02  0.00000000000E+00 0.  1.
         24    1    1    2    0    0 -0.21692125491E+02  0.95125359172E+01  0.13053886716E+03  0.15514073753E+03  0.80419002446E+02 0.  0.
        -24    1    1    2    0    0  0.21692125491E+02 -0.95125359172E+01  0.34337025336E+03  0.35345633888E+03  0.80419002446E+02 0.  0.
<mgrwt>
<rscale>  0 0.83834674E+02</rscale>
<asrwt>0</asrwt>
<pdfrwt beam="1">  1        1 0.75577389E-01 0.83834674E+02</pdfrwt>
<pdfrwt beam="2">  1       -1 0.26683047E-02 0.83834674E+02</pdfrwt>
<totfact> 0.18650119E+04</totfact>
</mgrwt>
</event>
<event>
 4    1  0.1437859E-001  0.8699828E+02  0.7546771E-02  0.1310288E+00
          1   -1    0    0  501    0  0.00000000000E+00  0.00000000000E+00  0.10979544438E+04  0.10979544438E+04  0.00000000000E+00 0. -1.
         -1   -1    0    0    0  501 -0.00000000000E+00 -0.00000000000E+00 -0.86309921917E+01  0.86309921917E+01  0.00000000000E+00 0.  1.
         24    1    1    2    0    0 -0.12507640747E+02  0.30741563442E+02  0.29641043792E+03  0.30891398230E+03  0.80419002446E+02 0.  1.
        -24    1    1    2    0    0  0.12507640747E+02 -0.30741563442E+02  0.79291301374E+03  0.79767145374E+03  0.80419002446E+02 0. -1.
<mgrwt>
<rscale>  0 0.86998280E+02</rscale>
<asrwt>0</asrwt>
<pdfrwt beam="1">  1        1 0.16891596E+00 0.86998280E+02</pdfrwt>
<pdfrwt beam="2">  1       -1 0.13278458E-02 0.86998280E+02</pdfrwt>
<totfact> 0.15663977E+04</totfact>
</mgrwt>
</event>
<event>
 4    1  0.1437859E-001  0.1730336E+03  0.7546771E-02  0.1174721E+00
         -1   -1    0    0    0  501 -0.00000000000E+00  0.00000000000E+00  0.41106202148E+02  0.41106202148E+02  0.00000000000E+00 0.  1.
          1   -1    0    0  501    0  0.00000000000E+00 -0.00000000000E+00 -0.13832433349E+04  0.13832433349E+04  0.00000000000E+00 0. -1.
         24    1    1    2    0    0  0.11629642302E+03  0.99742484258E+02 -0.18104717996E+03  0.25043705496E+03  0.80419002446E+02 0.  1.
        -24    1    1    2    0    0 -0.11629642302E+03 -0.99742484258E+02 -0.11610899528E+04  0.11739124821E+04  0.80419002446E+02 0. -1.
<mgrwt>
<rscale>  0 0.17303363E+03</rscale>
<asrwt>0</asrwt>
<pdfrwt beam="1">  1        1 0.21280665E+00 0.17303363E+03</pdfrwt>
<pdfrwt beam="2">  1       -1 0.63240315E-02 0.17303363E+03</pdfrwt>
<totfact> 0.10635804E+03</totfact>
</mgrwt>
</event>
<event>
 4    1  0.1437859E-001  0.8051806E+02  0.7546771E-02  0.1327588E+00
         -2   -1    0    0    0  501 -0.00000000000E+00  0.00000000000E+00  0.22306238568E+02  0.22306238568E+02  0.00000000000E+00 0.  1.
          2   -1    0    0  501    0  0.00000000000E+00 -0.00000000000E+00 -0.32932072592E+03  0.32932072592E+03  0.00000000000E+00 0. -1.
         24    1    1    2    0    0 -0.29922063408E+01 -0.26435956144E+01 -0.21375927055E+03  0.22842106645E+03  0.80419002446E+02 0.  0.
        -24    1    1    2    0    0  0.29922063408E+01  0.26435956144E+01 -0.93255216801E+02  0.12320589804E+03  0.80419002446E+02 0.  1.
<mgrwt>
<rscale>  0 0.80518059E+02</rscale>
<asrwt>0</asrwt>
<pdfrwt beam="1">  1        2 0.50664727E-01 0.80518059E+02</pdfrwt>
<pdfrwt beam="2">  1       -2 0.34317290E-02 0.80518059E+02</pdfrwt>
<totfact> 0.29946113E+04</totfact>
</mgrwt>
</event>
<event>
 4    1  0.1437859E-001  0.1222873E+03  0.7546771E-02  0.1239371E+00
         -2   -1    0    0    0  501 -0.00000000000E+00  0.00000000000E+00  0.92119655841E+02  0.92119655841E+02  0.00000000000E+00 0.  1.
          2   -1    0    0  501    0  0.00000000000E+00 -0.00000000000E+00 -0.26176492011E+03  0.26176492011E+03  0.00000000000E+00 0. -1.
         24    1    1    2    0    0 -0.67315121310E+02 -0.62893915519E+02 -0.19387518620E+03  0.22921992484E+03  0.80419002446E+02 0. -1.
        -24    1    1    2    0    0  0.67315121310E+02  0.62893915519E+02  0.24229921927E+02  0.12466465111E+03  0.80419002446E+02 0.  1.
<mgrwt>
<rscale>  0 0.12228731E+03</rscale>
<asrwt>0</asrwt>
<pdfrwt beam="1">  1        2 0.40271525E-01 0.12228731E+03</pdfrwt>
<pdfrwt beam="2">  1       -2 0.14172255E-01 0.12228731E+03</pdfrwt>
<totfact> 0.45507490E+03</totfact>
</mgrwt>
</event>
<event>
 4    1  0.1437859E-001  0.9198754E+02  0.7546771E-02  0.1298109E+00
         -2   -1    0    0    0  501 -0.00000000000E+00  0.00000000000E+00  0.11703827713E+02  0.11703827713E+02  0.00000000000E+00 0.  1.
          2   -1    0    0  501    0  0.00000000000E+00 -0.00000000000E+00 -0.19221758189E+04  0.19221758189E+04  0.00000000000E+00 0. -1.
         24    1    1    2    0    0 -0.72380679951E+01  0.44069290954E+02 -0.17189782001E+04  0.17214377015E+04  0.80419002446E+02 0. -1.
        -24    1    1    2    0    0  0.72380679951E+01 -0.44069290954E+02 -0.19149379113E+03  0.21244194508E+03  0.80419002446E+02 0.  1.
<mgrwt>
<rscale>  0 0.91987543E+02</rscale>
<asrwt>0</asrwt>
<pdfrwt beam="1">  1        2 0.29571931E+00 0.91987543E+02</pdfrwt>
<pdfrwt beam="2">  1       -2 0.18005892E-02 0.91987543E+02</pdfrwt>
<totfact> 0.71877660E+03</totfact>
</mgrwt>
</event>
<event>
 4    1  0.1437859E-001  0.1029893E+03  0.7546771E-02  0.1274133E+00
         -2   -1    0    0    0  501 -0.00000000000E+00  0.00000000000E+00  0.16857591586E+02  0.16857591586E+02  0.00000000000E+00 0.  1.
          2   -1    0    0  501    0  0.00000000000E+00 -0.00000000000E+00 -0.62930482488E+03  0.62930482488E+03  0.00000000000E+00 0. -1.
         24    1    1    2    0    0  0.21976238309E+02 -0.60470033174E+02 -0.31039423575E+03  0.32703421458E+03  0.80419002446E+02 0. -1.
        -24    1    1    2    0    0 -0.21976238309E+02  0.60470033174E+02 -0.30205299754E+03  0.31912820189E+03  0.80419002446E+02 0.  1.
<mgrwt>
<rscale>  0 0.10298930E+03</rscale>
<asrwt>0</asrwt>
<pdfrwt beam="1">  1        2 0.96816124E-01 0.10298930E+03</pdfrwt>
<pdfrwt beam="2">  1       -2 0.25934757E-02 0.10298930E+03</pdfrwt>
<totfact> 0.23047621E+04</totfact>
</mgrwt>
</event>
<event>
 4    1  0.1437859E-001  0.8300477E+02  0.7546771E-02  0.1320734E+00
          2   -1    0    0  501    0  0.00000000000E+00  0.00000000000E+00  0.36500524063E+03  0.36500524063E+03  0.00000000000E+00 0. -1.
         -2   -1    0    0    0  501 -0.00000000000E+00 -0.00000000000E+00 -0.25894621916E+02  0.25894621916E+02  0.00000000000E+00 0.  1.
         24    1    1    2    0    0  0.18120359745E+02  0.97070926737E+01  0.27131147124E+03  0.28372470013E+03  0.80419002446E+02 0. -1.
        -24    1    1    2    0    0 -0.18120359745E+02 -0.97070926737E+01  0.67799147477E+02  0.10717516241E+03  0.80419002446E+02 0.  1.
<mgrwt>
<rscale>  0 0.83004765E+02</rscale>
<asrwt>0</asrwt>
<pdfrwt beam="1">  1        2 0.56154649E-01 0.83004765E+02</pdfrwt>
<pdfrwt beam="2">  1       -2 0.39837882E-02 0.83004765E+02</pdfrwt>
<totfact> 0.21706940E+04</totfact>
</mgrwt>
</event>
<event>
 4    1  0.1437859E-001  0.1186819E+03  0.7546771E-02  0.1245287E+00
          3   -1    0    0  501    0  0.00000000000E+00  0.00000000000E+00  0.89248819822E+02  0.89248819822E+02  0.00000000000E+00 0. -1.
         -3   -1    0    0    0  501 -0.00000000000E+00 -0.00000000000E+00 -0.16389017275E+03  0.16389017275E+03  0.00000000000E+00 0.  1.
         24    1    1    2    0    0  0.81772288517E+02  0.30519916321E+02 -0.12965171963E+02  0.11938795626E+03  0.80419002446E+02 0.  0.
        -24    1    1    2    0    0 -0.81772288517E+02 -0.30519916321E+02 -0.61676180964E+02  0.13375103631E+03  0.80419002446E+02 0.  0.
<mgrwt>
<rscale>  0 0.11868189E+03</rscale>
<asrwt>0</asrwt>
<pdfrwt beam="1">  1        3 0.13730588E-01 0.11868191E+03</pdfrwt>
<pdfrwt beam="2">  1       -3 0.25213872E-01 0.11868191E+03</pdfrwt>
<totfact> 0.14356191E+03</totfact>
</mgrwt>
</event>
<event>
 4    1  0.1437859E-001  0.9102229E+02  0.7546771E-02  0.1300395E+00
          1   -1    0    0  501    0  0.00000000000E+00  0.00000000000E+00  0.23591934589E+03  0.23591934589E+03  0.00000000000E+00 0. -1.
         -1   -1    0    0    0  501 -0.00000000000E+00 -0.00000000000E+00 -0.58812460603E+02  0.58812460603E+02  0.00000000000E+00 0.  1.
         24    1    1    2    0    0 -0.41060514779E+02 -0.11483708712E+02 -0.49837055426E+01  0.91158623920E+02  0.80419002446E+02 0.  1.
        -24    1    1    2    0    0  0.41060514779E+02  0.11483708712E+02  0.18209059083E+03  0.20357318258E+03  0.80419002446E+02 0. -1.
<mgrwt>
<rscale>  0 0.91022291E+02</rscale>
<asrwt>0</asrwt>
<pdfrwt beam="1">  1        1 0.36295283E-01 0.91022291E+02</pdfrwt>
<pdfrwt beam="2">  1       -1 0.90480710E-02 0.91022291E+02</pdfrwt>
<totfact> 0.77817463E+03</totfact>
</mgrwt>
</event>
<event>
 4    1  0.1437859E-001  0.8953193E+02  0.7546771E-02  0.1303989E+00
         -2   -1    0    0    0  501 -0.00000000000E+00  0.00000000000E+00  0.21792644857E+02  0.21792644857E+02  0.00000000000E+00 0.  1.
          2   -1    0    0  501    0  0.00000000000E+00 -0.00000000000E+00 -0.69808367313E+03  0.69808367313E+03  0.00000000000E+00 0. -1.
         24    1    1    2    0    0  0.37385218852E+02  0.12292139807E+02 -0.58571585920E+03  0.59251922750E+03  0.80419002446E+02 0. -1.
        -24    1    1    2    0    0 -0.37385218852E+02 -0.12292139807E+02 -0.90575169076E+02  0.12735709049E+03  0.80419002446E+02 0.  1.
<mgrwt>
<rscale>  0 0.89531934E+02</rscale>
<asrwt>0</asrwt>
<pdfrwt beam="1">  1        2 0.10739749E+00 0.89531934E+02</pdfrwt>
<pdfrwt beam="2">  1       -2 0.33527145E-02 0.89531934E+02</pdfrwt>
<totfact> 0.13900696E+04</totfact>
</mgrwt>
</event>
<event>
 4    1  0.1437859E-001  0.8286466E+02  0.7546771E-02  0.1321113E+00
         -2   -1    0    0    0  501 -0.00000000000E+00  0.00000000000E+00  0.24920409708E+02  0.24920409708E+02  0.00000000000E+00 0.  1.
          2   -1    0    0  501    0  0.00000000000E+00 -0.00000000000E+00 -0.37678771961E+03  0.37678771961E+03  0.00000000000E+00 0. -1.
         24    1    1    2    0    0 -0.86051167046E+01  0.18035633563E+02 -0.71815433372E+02  0.10965402198E+03  0.80419002446E+02 0.  1.
        -24    1    1    2    0    0  0.86051167046E+01 -0.18035633563E+02 -0.28005187653E+03  0.29205410734E+03  0.80419002446E+02 0.  0.
<mgrwt>
<rscale>  0 0.82864647E+02</rscale>
<asrwt>0</asrwt>
<pdfrwt beam="1">  1        2 0.57967342E-01 0.82864658E+02</pdfrwt>
<pdfrwt beam="2">  1       -2 0.38339091E-02 0.82864658E+02</pdfrwt>
<totfact> 0.22207203E+04</totfact>
</mgrwt>
</event>
<event>
 4    1  0.1437859E-001  0.1188486E+03  0.7546771E-02  0.1245009E+00
          1   -1    0    0  501    0  0.00000000000E+00  0.00000000000E+00  0.81698111996E+03  0.81698111996E+03  0.00000000000E+00 0. -1.
         -1   -1    0    0    0  501 -0.00000000000E+00 -0.00000000000E+00 -0.18703587512E+02  0.18703587512E+02  0.00000000000E+00 0.  1.
         24    1    1    2    0    0 -0.85736743129E+02 -0.17521087052E+02  0.28423718207E+03  0.30808402951E+03  0.80419002446E+02 0.  1.
        -24    1    1    2    0    0  0.85736743129E+02  0.17521087052E+02  0.51404035038E+03  0.52760067796E+03  0.80419002446E+02 0. -1.
<mgrwt>
<rscale>  0 0.11884862E+03</rscale>
<asrwt>0</asrwt>
<pdfrwt beam="1">  1        1 0.12568938E+00 0.11884862E+03</pdfrwt>
<pdfrwt beam="2">  1       -1 0.28774756E-02 0.11884862E+03</pdfrwt>
<totfact> 0.85499657E+03</totfact>
</mgrwt>
</event>
<event>
 4    1  0.1437859E-001  0.8610258E+02  0.7546771E-02  0.1312574E+00
          1   -1    0    0  501    0  0.00000000000E+00  0.00000000000E+00  0.91257179252E+01  0.91257179252E+01  0.00000000000E+00 0. -1.
         -1   -1    0    0    0  501 -0.00000000000E+00 -0.00000000000E+00 -0.92489235722E+03  0.92489235722E+03  0.00000000000E+00 0.  1.
         24    1    1    2    0    0 -0.14331224558E+02 -0.27222306031E+02 -0.62075965201E+03  0.62670264038E+03  0.80419002446E+02 0. -1.
        -24    1    1    2    0    0  0.14331224558E+02  0.27222306031E+02 -0.29500698729E+03  0.30731543477E+03  0.80419002446E+02 0.  0.
<mgrwt>
<rscale>  0 0.86102578E+02</rscale>
<asrwt>0</asrwt>
<pdfrwt beam="1">  1        1 0.14039561E-02 0.86102578E+02</pdfrwt>
<pdfrwt beam="2">  1       -1 0.14229118E+00 0.86102578E+02</pdfrwt>
<totfact> 0.40088623E+03</totfact>
</mgrwt>
</event>
<event>
 4    1  0.1437859E-001  0.8471308E+02  0.7546771E-02  0.1316185E+00
          2   -1    0    0  501    0  0.00000000000E+00  0.00000000000E+00  0.38119356230E+02  0.38119356230E+02  0.00000000000E+00 0. -1.
         -2   -1    0    0    0  501 -0.00000000000E+00 -0.00000000000E+00 -0.18852556185E+03  0.18852556185E+03  0.00000000000E+00 0.  1.
         24    1    1    2    0    0 -0.20471780883E+02 -0.17029154966E+02 -0.79466378681E+02  0.11615165615E+03  0.80419002446E+02 0. -1.
        -24    1    1    2    0    0  0.20471780883E+02  0.17029154966E+02 -0.70939826937E+02  0.11049326193E+03  0.80419002446E+02 0.  1.
<mgrwt>
<rscale>  0 0.84713067E+02</rscale>
<asrwt>0</asrwt>
<pdfrwt beam="1">  1        2 0.58645163E-02 0.84713077E+02</pdfrwt>
<pdfrwt beam="2">  1       -2 0.29003933E-01 0.84713077E+02</pdfrwt>
<totfact> 0.12301600E+04</totfact>
</mgrwt>
</event>
<event>
 4    1  0.1437859E-001  0.9492037E+02  0.7546771E-02  0.1291356E+00
         -1   -1    0    0    0  501 -0.00000000000E+00  0.00000000000E+00  0.13310983954E+02  0.13310983954E+02  0.00000000000E+00 0.  1.
          1   -1    0    0  501    0  0.00000000000E+00 -0.00000000000E+00 -0.70289650360E+03  0.70289650360E+03  0.00000000000E+00 0. -1.
         24    1    1    2    0    0 -0.49814847310E+02 -0.78193376022E+01 -0.27589162262E+03  0.29176371337E+03  0.80419002446E+02 0. -1.
        -24    1    1    2    0    0  0.49814847310E+02  0.78193376022E+01 -0.41369389703E+03  0.42444377419E+03  0.80419002446E+02 0.  1.
<mgrwt>
<rscale>  0 0.94920372E+02</rscale>
<asrwt>0</asrwt>
<pdfrwt beam="1">  1        1 0.10813792E+00 0.94920372E+02</pdfrwt>
<pdfrwt beam="2">  1       -1 0.20478437E-02 0.94920372E+02</pdfrwt>
<totfact> 0.17082323E+04</totfact>
</mgrwt>
</event>
<event>
 4    1  0.1437859E-001  0.8772505E+02  0.7546771E-02  0.1308456E+00
         -3   -1    0    0    0  501 -0.00000000000E+00  0.00000000000E+00  0.43721568086E+02  0.43721568086E+02  0.00000000000E+00 0.  1.
          3   -1    0    0  501    0  0.00000000000E+00 -0.00000000000E+00 -0.31318620444E+03  0.31318620444E+03  0.00000000000E+00 0. -1.
         24    1    1    2    0    0  0.13691164441E+02 -0.32264852088E+02 -0.16630934345E+02  0.89287583658E+02  0.80419002446E+02 0.  1.
        -24    1    1    2    0    0 -0.13691164441E+02  0.32264852088E+02 -0.25283370200E+03  0.26762018886E+03  0.80419002446E+02 0. -1.
<mgrwt>
<rscale>  0 0.87725051E+02</rscale>
<asrwt>0</asrwt>
<pdfrwt beam="1">  1        3 0.48182493E-01 0.87725051E+02</pdfrwt>
<pdfrwt beam="2">  1       -3 0.67263950E-02 0.87725051E+02</pdfrwt>
<totfact> 0.12956836E+03</totfact>
</mgrwt>
</event>
<event>
 4    1  0.1437859E-001  0.9654400E+02  0.7546771E-02  0.1287736E+00
         -2   -1    0    0    0  501 -0.00000000000E+00  0.00000000000E+00  0.10658109406E+03  0.10658109406E+03  0.00000000000E+00 0.  1.
          2   -1    0    0  501    0  0.00000000000E+00 -0.00000000000E+00 -0.15492496026E+03  0.15492496026E+03  0.00000000000E+00 0. -1.
         24    1    1    2    0    0  0.29992179725E+00 -0.53417586851E+02 -0.11046094490E+03  0.14670502663E+03  0.80419002446E+02 0. -1.
        -24    1    1    2    0    0 -0.29992179725E+00  0.53417586851E+02  0.62117078692E+02  0.11480102769E+03  0.80419002446E+02 0.  1.
<mgrwt>
<rscale>  0 0.96544003E+02</rscale>
<asrwt>0</asrwt>
<pdfrwt beam="1">  1        2 0.23834609E-01 0.96544003E+02</pdfrwt>
<pdfrwt beam="2">  1       -2 0.16397091E-01 0.96544003E+02</pdfrwt>
<totfact> 0.62060476E+03</totfact>
</mgrwt>
</event>
<event>
 4    1  0.1437859E-001  0.9202851E+02  0.7546771E-02  0.1298012E+00
          2   -1    0    0  501    0  0.00000000000E+00  0.00000000000E+00  0.26362847640E+03  0.26362847640E+03  0.00000000000E+00 0. -1.
         -2   -1    0    0    0  501 -0.00000000000E+00 -0.00000000000E+00 -0.38822875879E+02  0.38822875879E+02  0.00000000000E+00 0.  1.
         24    1    1    2    0    0  0.44391185841E+02 -0.56083792021E+01  0.17521265554E+03  0.19791089387E+03  0.80419002446E+02 0. -1.
        -24    1    1    2    0    0 -0.44391185841E+02  0.56083792021E+01  0.49592944982E+02  0.10454045841E+03  0.80419002446E+02 0.  1.
<mgrwt>
<rscale>  0 0.92028513E+02</rscale>
<asrwt>0</asrwt>
<pdfrwt beam="1">  1        2 0.40558226E-01 0.92028513E+02</pdfrwt>
<pdfrwt beam="2">  1       -2 0.59727503E-02 0.92028513E+02</pdfrwt>
<totfact> 0.16910807E+04</totfact>
</mgrwt>
</event>
<event>
 4    1  0.1437859E-001  0.8199496E+02  0.7546771E-02  0.1323483E+00
         -1   -1    0    0    0  501 -0.00000000000E+00  0.00000000000E+00  0.43386997666E+02  0.43386997666E+02  0.00000000000E+00 0.  1.
          1   -1    0    0  501    0  0.00000000000E+00 -0.00000000000E+00 -0.17729913666E+03  0.17729913666E+03  0.00000000000E+00 0. -1.
         24    1    1    2    0    0 -0.12373996605E+02  0.10141110750E+02 -0.27787131186E+02  0.86575392192E+02  0.80419002446E+02 0.  1.
        -24    1    1    2    0    0  0.12373996605E+02 -0.10141110750E+02 -0.10612500781E+03  0.13411074213E+03  0.80419002446E+02 0. -1.
<mgrwt>
<rscale>  0 0.81994962E+02</rscale>
<asrwt>0</asrwt>
<pdfrwt beam="1">  1        1 0.27276790E-01 0.81994962E+02</pdfrwt>
<pdfrwt beam="2">  1       -1 0.66749228E-02 0.81994962E+02</pdfrwt>
<totfact> 0.17186454E+04</totfact>
</mgrwt>
</event>
<event>
 4    1  0.1437859E-001  0.2523002E+03  0.7546771E-02  0.1111860E+00
          1   -1    0    0  501    0  0.00000000000E+00  0.00000000000E+00  0.33282360850E+03  0.33282360850E+03  0.00000000000E+00 0. -1.
         -1   -1    0    0    0  501 -0.00000000000E+00 -0.00000000000E+00 -0.27348634221E+03  0.27348634221E+03  0.00000000000E+00 0.  1.
         24    1    1    2    0    0  0.17982555469E+03 -0.15764176266E+03 -0.13656010546E+03  0.28688679616E+03  0.80419002446E+02 0.  1.
        -24    1    1    2    0    0 -0.17982555469E+03  0.15764176266E+03  0.19589737174E+03  0.31942315455E+03  0.80419002446E+02 0. -1.
<mgrwt>
<rscale>  0 0.25230016E+03</rscale>
<asrwt>0</asrwt>
<pdfrwt beam="1">  1        1 0.51203632E-01 0.25230016E+03</pdfrwt>
<pdfrwt beam="2">  1       -1 0.42074822E-01 0.25230016E+03</pdfrwt>
<totfact> 0.43549170E+02</totfact>
</mgrwt>
</event>
<event>
 4    1  0.1437859E-001  0.1122000E+03  0.7546771E-02  0.1256549E+00
          2   -1    0    0  501    0  0.00000000000E+00  0.00000000000E+00  0.17668507284E+04  0.17668507284E+04  0.00000000000E+00 0. -1.
         -2   -1    0    0    0  501 -0.00000000000E+00 -0.00000000000E+00 -0.10077676297E+02  0.10077676297E+02  0.00000000000E+00 0.  1.
         24    1    1    2    0    0 -0.64172397766E+02  0.44760752951E+02  0.13592995760E+04  0.13639223493E+04  0.80419002446E+02 0.  1.
        -24    1    1    2    0    0  0.64172397766E+02 -0.44760752951E+02  0.39747347612E+03  0.41300605542E+03  0.80419002446E+02 0. -1.
<mgrwt>
<rscale>  0 0.11219999E+03</rscale>
<asrwt>0</asrwt>
<pdfrwt beam="1">  1        2 0.27182294E+00 0.11219999E+03</pdfrwt>
<pdfrwt beam="2">  1       -2 0.15504131E-02 0.11219999E+03</pdfrwt>
<totfact> 0.10747587E+04</totfact>
</mgrwt>
</event>
<event>
 4    1  0.2532678E-001  0.8792986E+02  0.7546771E-02  0.1307944E+00
          1   -1    0    0  501    0  0.00000000000E+00  0.00000000000E+00  0.11634046454E+04  0.11634046454E+04  0.00000000000E+00 0. -1.
         -1   -1    0    0    0  501 -0.00000000000E+00 -0.00000000000E+00 -0.10342159955E+03  0.10342159955E+03  0.00000000000E+00 0.  1.
         24    1    1    2    0    0  0.31823467123E+02  0.15865396564E+02 -0.82732627145E+02  0.12073254498E+03  0.80419002446E+02 0.  1.
        -24    1    1    2    0    0 -0.31823467123E+02 -0.15865396564E+02  0.11427156730E+04  0.11460937000E+04  0.80419002446E+02 0. -1.
<mgrwt>
<rscale>  0 0.87929857E+02</rscale>
<asrwt>0</asrwt>
<pdfrwt beam="1">  1        1 0.17898532E+00 0.87929857E+02</pdfrwt>
<pdfrwt beam="2">  1       -1 0.15911016E-01 0.87929857E+02</pdfrwt>
<totfact> 0.37047340E+02</totfact>
</mgrwt>
</event>
<event>
 4    1  0.1437859E-001  0.1042126E+03  0.7546771E-02  0.1271679E+00
         -1   -1    0    0    0  501 -0.00000000000E+00  0.00000000000E+00  0.73174988353E+02  0.73174988353E+02  0.00000000000E+00 0.  1.
          1   -1    0    0  501    0  0.00000000000E+00 -0.00000000000E+00 -0.19566908371E+03  0.19566908371E+03  0.00000000000E+00 0. -1.
         24    1    1    2    0    0  0.56912214295E+02 -0.33971307264E+02  0.48115031861E+01  0.10432361368E+03  0.80419002446E+02 0.  1.
        -24    1    1    2    0    0 -0.56912214295E+02  0.33971307264E+02 -0.12730559854E+03  0.16452045839E+03  0.80419002446E+02 0. -1.
<mgrwt>
<rscale>  0 0.10421260E+03</rscale>
<asrwt>0</asrwt>
<pdfrwt beam="1">  1        1 0.30102936E-01 0.10421260E+03</pdfrwt>
<pdfrwt beam="2">  1       -1 0.11257691E-01 0.10421260E+03</pdfrwt>
<totfact> 0.71081021E+03</totfact>
</mgrwt>
</event>
<event>
 4    1  0.1437859E-001  0.1002257E+03  0.7546771E-02  0.1279822E+00
         -3   -1    0    0    0  501 -0.00000000000E+00  0.00000000000E+00  0.17161180848E+03  0.17161180848E+03  0.00000000000E+00 0.  1.
          3   -1    0    0  501    0  0.00000000000E+00 -0.00000000000E+00 -0.62617351950E+02  0.62617351950E+02  0.00000000000E+00 0. -1.
         24    1    1    2    0    0 -0.14432414193E+02  0.58048924923E+02  0.84402835043E+02  0.13103063299E+03  0.80419002446E+02 0.  0.
        -24    1    1    2    0    0  0.14432414193E+02 -0.58048924923E+02  0.24591621487E+02  0.10319852744E+03  0.80419002446E+02 0.  1.
<mgrwt>
<rscale>  0 0.10022569E+03</rscale>
<asrwt>0</asrwt>
<pdfrwt beam="1">  1        3 0.96334388E-02 0.10022569E+03</pdfrwt>
<pdfrwt beam="2">  1       -3 0.26401817E-01 0.10022569E+03</pdfrwt>
<totfact> 0.23078752E+03</totfact>
</mgrwt>
</event>
<event>
 4    1  0.1437859E-001  0.1360168E+03  0.7546771E-02  0.1218791E+00
          1   -1    0    0  501    0  0.00000000000E+00  0.00000000000E+00  0.11789955954E+03  0.11789955954E+03  0.00000000000E+00 0. -1.
         -1   -1    0    0    0  501 -0.00000000000E+00 -0.00000000000E+00 -0.15869949533E+03  0.15869949533E+03  0.00000000000E+00 0.  1.
         24    1    1    2    0    0 -0.74366282723E+01  0.10944422259E+03 -0.35053128012E+02  0.14046095200E+03  0.80419002446E+02 0.  1.
        -24    1    1    2    0    0  0.74366282723E+01 -0.10944422259E+03 -0.57468077747E+01  0.13613810287E+03  0.80419002446E+02 0. -1.
<mgrwt>
<rscale>  0 0.13601675E+03</rscale>
<asrwt>0</asrwt>
<pdfrwt beam="1">  1        1 0.18138394E-01 0.13601675E+03</pdfrwt>
<pdfrwt beam="2">  1       -1 0.24415307E-01 0.13601675E+03</pdfrwt>
<totfact> 0.40322357E+03</totfact>
</mgrwt>
</event>
<event>
 4    1  0.1437859E-001  0.1246263E+03  0.7546771E-02  0.1235654E+00
          1   -1    0    0  501    0  0.00000000000E+00  0.00000000000E+00  0.15400379735E+03  0.15400379735E+03  0.00000000000E+00 0. -1.
         -1   -1    0    0    0  501 -0.00000000000E+00 -0.00000000000E+00 -0.10248832204E+03  0.10248832204E+03  0.00000000000E+00 0.  1.
         24    1    1    2    0    0 -0.95121237281E+02 -0.40559441124E+01  0.41958412438E+02  0.13149990416E+03  0.80419002446E+02 0.  1.
        -24    1    1    2    0    0  0.95121237281E+02  0.40559441124E+01  0.95570628669E+01  0.12499221524E+03  0.80419002446E+02 0. -1.
<mgrwt>
<rscale>  0 0.12462632E+03</rscale>
<asrwt>0</asrwt>
<pdfrwt beam="1">  1        1 0.23692892E-01 0.12462634E+03</pdfrwt>
<pdfrwt beam="2">  1       -1 0.15767434E-01 0.12462634E+03</pdfrwt>
<totfact> 0.57594334E+03</totfact>
</mgrwt>
</event>
<event>
 4    1  0.1437859E-001  0.1388726E+03  0.7546771E-02  0.1214854E+00
         -1   -1    0    0    0  501 -0.00000000000E+00  0.00000000000E+00  0.41565102130E+02  0.41565102130E+02  0.00000000000E+00 0.  1.
          1   -1    0    0  501    0  0.00000000000E+00 -0.00000000000E+00 -0.94994930559E+03  0.94994930559E+03  0.00000000000E+00 0. -1.
         24    1    1    2    0    0 -0.10243374539E+03 -0.48225691823E+02 -0.99606764812E+02  0.17090088677E+03  0.80419002446E+02 0.  1.
        -24    1    1    2    0    0  0.10243374539E+03  0.48225691823E+02 -0.80877743865E+03  0.82061352095E+03  0.80419002446E+02 0. -1.
<mgrwt>
<rscale>  0 0.13887262E+03</rscale>
<asrwt>0</asrwt>
<pdfrwt beam="1">  1        1 0.14614603E+00 0.13887262E+03</pdfrwt>
<pdfrwt beam="2">  1       -1 0.63946318E-02 0.13887262E+03</pdfrwt>
<totfact> 0.20975311E+03</totfact>
</mgrwt>
</event>
<event>
 4    1  0.1437859E-001  0.8941365E+02  0.7546771E-02  0.1304278E+00
         -1   -1    0    0    0  501 -0.00000000000E+00  0.00000000000E+00  0.27102752195E+02  0.27102752195E+02  0.00000000000E+00 0.  1.
          1   -1    0    0  501    0  0.00000000000E+00 -0.00000000000E+00 -0.59286153593E+03  0.59286153593E+03  0.00000000000E+00 0. -1.
         24    1    1    2    0    0 -0.37233861812E+02  0.11883765773E+02 -0.63153612679E+02  0.10946770804E+03  0.80419002446E+02 0.  1.
        -24    1    1    2    0    0  0.37233861812E+02 -0.11883765773E+02 -0.50260517105E+03  0.51049658008E+03  0.80419002446E+02 0. -1.
<mgrwt>
<rscale>  0 0.89413647E+02</rscale>
<asrwt>0</asrwt>
<pdfrwt beam="1">  1        1 0.91209468E-01 0.89413647E+02</pdfrwt>
<pdfrwt beam="2">  1       -1 0.41696541E-02 0.89413647E+02</pdfrwt>
<totfact> 0.77094102E+03</totfact>
</mgrwt>
</event>
<event>
 4    1  0.1437859E-001  0.9678095E+02  0.7546771E-02  0.1287215E+00
          2   -1    0    0  501    0  0.00000000000E+00  0.00000000000E+00  0.48073377617E+03  0.48073377617E+03  0.00000000000E+00 0. -1.
         -2   -1    0    0    0  501 -0.00000000000E+00 -0.00000000000E+00 -0.19418535244E+03  0.19418535244E+03  0.00000000000E+00 0.  1.
         24    1    1    2    0    0  0.38018154889E+02  0.38130773536E+02  0.46335662244E+03  0.47335600926E+03  0.80419002446E+02 0. -1.
        -24    1    1    2    0    0 -0.38018154889E+02 -0.38130773536E+02 -0.17680819871E+03  0.20156311934E+03  0.80419002446E+02 0.  1.
<mgrwt>
<rscale>  0 0.96780948E+02</rscale>
<asrwt>0</asrwt>
<pdfrwt beam="1">  1        2 0.73959042E-01 0.96780948E+02</pdfrwt>
<pdfrwt beam="2">  1       -2 0.29874670E-01 0.96780948E+02</pdfrwt>
<totfact> 0.67081746E+02</totfact>
</mgrwt>
</event>
<event>
 4    1  0.1437859E-001  0.1082924E+03  0.7546771E-02  0.1263765E+00
          2   -1    0    0  501    0  0.00000000000E+00  0.00000000000E+00  0.17589841117E+03  0.17589841117E+03  0.00000000000E+00 0. -1.
         -2   -1    0    0    0  501 -0.00000000000E+00 -0.00000000000E+00 -0.83431936751E+02  0.83431936751E+02  0.00000000000E+00 0.  1.
         24    1    1    2    0    0  0.53784441328E+02  0.48654576729E+02  0.10435137743E+03  0.15038769860E+03  0.80419002446E+02 0. -1.
        -24    1    1    2    0    0 -0.53784441328E+02 -0.48654576729E+02 -0.11884903012E+02  0.10894264931E+03  0.80419002446E+02 0.  1.
<mgrwt>
<rscale>  0 0.10829243E+03</rscale>
<asrwt>0</asrwt>
<pdfrwt beam="1">  1        2 0.27061294E-01 0.10829243E+03</pdfrwt>
<pdfrwt beam="2">  1       -2 0.12835683E-01 0.10829243E+03</pdfrwt>
<totfact> 0.81006205E+03</totfact>
</mgrwt>
</event>
<event>
 4    1  0.1437859E-001  0.8103138E+02  0.7546771E-02  0.1326150E+00
         -2   -1    0    0    0  501 -0.00000000000E+00  0.00000000000E+00  0.23642655380E+03  0.23642655380E+03  0.00000000000E+00 0.  1.
          2   -1    0    0  501    0  0.00000000000E+00 -0.00000000000E+00 -0.72677876416E+02  0.72677876416E+02  0.00000000000E+00 0. -1.
         24    1    1    2    0    0  0.98414690831E+01 -0.14189098955E+01 -0.39611253979E+02  0.90194984424E+02  0.80419002446E+02 0. -1.
        -24    1    1    2    0    0 -0.98414690831E+01  0.14189098955E+01  0.20335993136E+03  0.21890944579E+03  0.80419002446E+02 0.  1.
<mgrwt>
<rscale>  0 0.81031375E+02</rscale>
<asrwt>0</asrwt>
<pdfrwt beam="1">  1        2 0.11181212E-01 0.81031375E+02</pdfrwt>
<pdfrwt beam="2">  1       -2 0.36373316E-01 0.81031375E+02</pdfrwt>
<totfact> 0.36734361E+03</totfact>
</mgrwt>
</event>
<event>
 4    1  0.1437859E-001  0.8261824E+02  0.7546771E-02  0.1321781E+00
         -1   -1    0    0    0  501 -0.00000000000E+00  0.00000000000E+00  0.19405160540E+03  0.19405160540E+03  0.00000000000E+00 0.  1.
          1   -1    0    0  501    0  0.00000000000E+00 -0.00000000000E+00 -0.64434852438E+02  0.64434852438E+02  0.00000000000E+00 0. -1.
         24    1    1    2    0    0 -0.17425894350E+02 -0.74091435653E+01  0.15190135486E+03  0.17291557121E+03  0.80419002446E+02 0.  0.
        -24    1    1    2    0    0  0.17425894350E+02  0.74091435653E+01 -0.22284601903E+02  0.85570886630E+02  0.80419002446E+02 0. -1.
<mgrwt>
<rscale>  0 0.82618237E+02</rscale>
<asrwt>0</asrwt>
<pdfrwt beam="1">  1        1 0.99130543E-02 0.82618237E+02</pdfrwt>
<pdfrwt beam="2">  1       -1 0.29854093E-01 0.82618237E+02</pdfrwt>
<totfact> 0.61049557E+03</totfact>
</mgrwt>
</event>
<event>
 4    1  0.1437859E-001  0.8248821E+02  0.7546771E-02  0.1322135E+00
         -2   -1    0    0    0  501 -0.00000000000E+00  0.00000000000E+00  0.78099816942E+02  0.78099816942E+02  0.00000000000E+00 0.  1.
          2   -1    0    0  501    0  0.00000000000E+00 -0.00000000000E+00 -0.17051676057E+03  0.17051676057E+03  0.00000000000E+00 0. -1.
         24    1    1    2    0    0  0.18347909305E+01 -0.18268066170E+02 -0.13314110880E+03  0.15662330448E+03  0.80419002446E+02 0. -1.
        -24    1    1    2    0    0 -0.18347909305E+01  0.18268066170E+02  0.40724165173E+02  0.91993273030E+02  0.80419002446E+02 0.  1.
<mgrwt>
<rscale>  0 0.82488209E+02</rscale>
<asrwt>0</asrwt>
<pdfrwt beam="1">  1        2 0.26233348E-01 0.82488209E+02</pdfrwt>
<pdfrwt beam="2">  1       -2 0.12015356E-01 0.82488209E+02</pdfrwt>
<totfact> 0.90897549E+03</totfact>
</mgrwt>
</event>
<event>
 4    1  0.1437859E-001  0.8413198E+02  0.7546771E-02  0.1317718E+00
         -2   -1    0    0    0  501 -0.00000000000E+00  0.00000000000E+00  0.32157408970E+02  0.32157408970E+02  0.00000000000E+00 0.  1.
          2   -1    0    0  501    0  0.00000000000E+00 -0.00000000000E+00 -0.45178544203E+03  0.45178544203E+03  0.00000000000E+00 0. -1.
         24    1    1    2    0    0  0.22685426095E+02 -0.98156184054E+01 -0.38308956389E+03  0.39221907761E+03  0.80419002446E+02 0. -1.
        -24    1    1    2    0    0 -0.22685426095E+02  0.98156184054E+01 -0.36538469169E+02  0.91723773393E+02  0.80419002446E+02 0.  1.
<mgrwt>
<rscale>  0 0.84131985E+02</rscale>
<asrwt>0</asrwt>
<pdfrwt beam="1">  1        2 0.69505451E-01 0.84131985E+02</pdfrwt>
<pdfrwt beam="2">  1       -2 0.49472938E-02 0.84131985E+02</pdfrwt>
<totfact> 0.12622277E+04</totfact>
</mgrwt>
</event>
<event>
 4    1  0.1437859E-001  0.1089291E+03  0.7546771E-02  0.1262566E+00
         -1   -1    0    0    0  501 -0.00000000000E+00  0.00000000000E+00  0.24384732985E+03  0.24384732985E+03  0.00000000000E+00 0.  1.
          1   -1    0    0  501    0  0.00000000000E+00 -0.00000000000E+00 -0.20889447357E+03  0.20889447357E+03  0.00000000000E+00 0. -1.
         24    1    1    2    0    0  0.69552345480E+02  0.23681313377E+02  0.21573658599E+03  0.24167710660E+03  0.80419002446E+02 0.  1.
        -24    1    1    2    0    0 -0.69552345480E+02 -0.23681313377E+02 -0.18078372971E+03  0.21106469682E+03  0.80419002446E+02 0. -1.
<mgrwt>
<rscale>  0 0.10892910E+03</rscale>
<asrwt>0</asrwt>
<pdfrwt beam="1">  1        1 0.32137611E-01 0.10892910E+03</pdfrwt>
<pdfrwt beam="2">  1       -1 0.37514974E-01 0.10892910E+03</pdfrwt>
<totfact> 0.94875497E+02</totfact>
</mgrwt>
</event>
<event>
 4    1  0.1437859E-001  0.9812389E+02  0.7546771E-02  0.1284291E+00
          2   -1    0    0  501    0  0.00000000000E+00  0.00000000000E+00  0.78269825967E+03  0.78269825967E+03  0.00000000000E+00 0. -1.
         -2   -1    0    0    0  501 -0.00000000000E+00 -0.00000000000E+00 -0.19582720756E+02  0.19582720756E+02  0.00000000000E+00 0.  1.
         24    1    1    2    0    0 -0.56166946681E+02  0.25212192807E+01  0.62616232004E+03  0.63380403078E+03  0.80419002446E+02 0. -1.
        -24    1    1    2    0    0  0.56166946681E+02 -0.25212192807E+01  0.13695321887E+03  0.16847694964E+03  0.80419002446E+02 0.  1.
<mgrwt>
<rscale>  0 0.98123893E+02</rscale>
<asrwt>0</asrwt>
<pdfrwt beam="1">  1        2 0.12041509E+00 0.98123893E+02</pdfrwt>
<pdfrwt beam="2">  1       -2 0.30127269E-02 0.98123893E+02</pdfrwt>
<totfact> 0.14285159E+04</totfact>
</mgrwt>
</event>
<event>
 4    1  0.1437859E-001  0.8823856E+02  0.7546771E-02  0.1307174E+00
         -3   -1    0    0    0  501 -0.00000000000E+00  0.00000000000E+00  0.98137477000E+03  0.98137477000E+03  0.00000000000E+00 0.  1.
          3   -1    0    0  501    0  0.00000000000E+00 -0.00000000000E+00 -0.83641870686E+01  0.83641870686E+01  0.00000000000E+00 0. -1.
         24    1    1    2    0    0 -0.36203223263E+02  0.28554722328E+01  0.59875941135E+03  0.60522630126E+03  0.80419002446E+02 0.  1.
        -24    1    1    2    0    0  0.36203223263E+02 -0.28554722328E+01  0.37425117158E+03  0.38451265581E+03  0.80419002446E+02 0.  0.
<mgrwt>
<rscale>  0 0.88238558E+02</rscale>
<asrwt>0</asrwt>
<pdfrwt beam="1">  1        3 0.12867988E-02 0.88238558E+02</pdfrwt>
<pdfrwt beam="2">  1       -3 0.15098064E+00 0.88238558E+02</pdfrwt>
<totfact> 0.13453793E+03</totfact>
</mgrwt>
</event>
<event>
 4    1  0.1437859E-001  0.1020270E+03  0.7546771E-02  0.1276090E+00
         -1   -1    0    0    0  501 -0.00000000000E+00  0.00000000000E+00  0.10297126503E+03  0.10297126503E+03  0.00000000000E+00 0.  1.
          1   -1    0    0  501    0  0.00000000000E+00 -0.00000000000E+00 -0.10298044552E+03  0.10298044552E+03  0.00000000000E+00 0. -1.
         24    1    1    2    0    0  0.17853454259E+02  0.60195916981E+02  0.13942328590E+02  0.10297523358E+03  0.80419002446E+02 0.  0.
        -24    1    1    2    0    0 -0.17853454259E+02 -0.60195916981E+02 -0.13951509077E+02  0.10297647697E+03  0.80419002446E+02 0. -1.
<mgrwt>
<rscale>  0 0.10202701E+03</rscale>
<asrwt>0</asrwt>
<pdfrwt beam="1">  1        1 0.15843145E-01 0.10202701E+03</pdfrwt>
<pdfrwt beam="2">  1       -1 0.15841733E-01 0.10202701E+03</pdfrwt>
<totfact> 0.93720326E+03</totfact>
</mgrwt>
</event>
<event>
 4    1  0.1437859E-001  0.1004364E+03  0.7546771E-02  0.1279381E+00
         -3   -1    0    0    0  501 -0.00000000000E+00  0.00000000000E+00  0.13063169148E+02  0.13063169148E+02  0.00000000000E+00 0.  1.
          3   -1    0    0  501    0  0.00000000000E+00 -0.00000000000E+00 -0.13404483346E+04  0.13404483346E+04  0.00000000000E+00 0. -1.
         24    1    1    2    0    0  0.37550264241E+02  0.47013083944E+02 -0.22306326103E+03  0.24463173707E+03  0.80419002446E+02 0.  1.
        -24    1    1    2    0    0 -0.37550264241E+02 -0.47013083944E+02 -0.11043219044E+04  0.11088797667E+04  0.80419002446E+02 0. -1.
<mgrwt>
<rscale>  0 0.10043639E+03</rscale>
<asrwt>0</asrwt>
<pdfrwt beam="1">  1        3 0.20622269E+00 0.10043639E+03</pdfrwt>
<pdfrwt beam="2">  1       -3 0.20097196E-02 0.10043639E+03</pdfrwt>
<totfact> 0.31506039E+02</totfact>
</mgrwt>
</event>
<event>
 4    1  0.1437859E-001  0.1147101E+03  0.7546771E-02  0.1252088E+00
          2   -1    0    0  501    0  0.00000000000E+00  0.00000000000E+00  0.38081137102E+03  0.38081137102E+03  0.00000000000E+00 0. -1.
         -2   -1    0    0    0  501 -0.00000000000E+00 -0.00000000000E+00 -0.36398646654E+02  0.36398646654E+02  0.00000000000E+00 0.  1.
         24    1    1    2    0    0  0.41382110984E+02  0.70560042069E+02  0.21917224053E+03  0.24737600049E+03  0.80419002446E+02 0. -1.
        -24    1    1    2    0    0 -0.41382110984E+02 -0.70560042069E+02  0.12524048384E+03  0.16983401718E+03  0.80419002446E+02 0.  1.
<mgrwt>
<rscale>  0 0.11471013E+03</rscale>
<asrwt>0</asrwt>
<pdfrwt beam="1">  1        2 0.58586362E-01 0.11471013E+03</pdfrwt>
<pdfrwt beam="2">  1       -2 0.55997920E-02 0.11471013E+03</pdfrwt>
<totfact> 0.12917467E+04</totfact>
</mgrwt>
</event>
<event>
 4    1  0.1437859E-001  0.1761762E+03  0.7546771E-02  0.1171556E+00
          1   -1    0    0  501    0  0.00000000000E+00  0.00000000000E+00  0.83385236273E+02  0.83385236273E+02  0.00000000000E+00 0. -1.
         -1   -1    0    0    0  501 -0.00000000000E+00 -0.00000000000E+00 -0.48660078186E+03  0.48660078186E+03  0.00000000000E+00 0.  1.
         24    1    1    2    0    0  0.11182958181E+03  0.10984071044E+03 -0.33977823837E+03  0.38273659907E+03  0.80419002446E+02 0.  1.
        -24    1    1    2    0    0 -0.11182958181E+03 -0.10984071044E+03 -0.63437307209E+02  0.18724941906E+03  0.80419002446E+02 0. -1.
<mgrwt>
<rscale>  0 0.17617620E+03</rscale>
<asrwt>0</asrwt>
<pdfrwt beam="1">  1        1 0.12828498E-01 0.17617620E+03</pdfrwt>
<pdfrwt beam="2">  1       -1 0.74861657E-01 0.17617620E+03</pdfrwt>
<totfact> 0.85360216E+02</totfact>
</mgrwt>
</event>
<event>
 4    1  0.1437859E-001  0.1022355E+03  0.7546771E-02  0.1275664E+00
          1   -1    0    0  501    0  0.00000000000E+00  0.00000000000E+00  0.14657655964E+03  0.14657655964E+03  0.00000000000E+00 0. -1.
         -1   -1    0    0    0  501 -0.00000000000E+00 -0.00000000000E+00 -0.72134150366E+02  0.72134150366E+02  0.00000000000E+00 0.  1.
         24    1    1    2    0    0 -0.63378491803E+01 -0.62806892469E+02  0.25518573443E+02  0.10537213872E+03  0.80419002446E+02 0.  1.
        -24    1    1    2    0    0  0.63378491803E+01  0.62806892469E+02  0.48923835829E+02  0.11333857128E+03  0.80419002446E+02 0. -1.
<mgrwt>
<rscale>  0 0.10223546E+03</rscale>
<asrwt>0</asrwt>
<pdfrwt beam="1">  1        1 0.22550240E-01 0.10223546E+03</pdfrwt>
<pdfrwt beam="2">  1       -1 0.11097562E-01 0.10223546E+03</pdfrwt>
<totfact> 0.10383708E+04</totfact>
</mgrwt>
</event>
<event>
 4    1  0.1437859E-001  0.8302566E+02  0.7546771E-02  0.1320678E+00
          4   -1    0    0  501    0  0.00000000000E+00  0.00000000000E+00  0.93731756164E+01  0.93731756164E+01  0.00000000000E+00 0. -1.
         -4   -1    0    0    0  501 -0.00000000000E+00 -0.00000000000E+00 -0.79025313593E+03  0.79025313593E+03  0.00000000000E+00 0.  1.
         24    1    1    2    0    0  0.17829982352E+02  0.10398877124E+02 -0.28512780496E+03  0.29696990762E+03  0.80419002446E+02 0.  0.
        -24    1    1    2    0    0 -0.17829982352E+02 -0.10398877124E+02 -0.49575215536E+03  0.50265640393E+03  0.80419002446E+02 0. -1.
<mgrwt>
<rscale>  0 0.83025664E+02</rscale>
<asrwt>0</asrwt>
<pdfrwt beam="1">  1        4 0.14420270E-02 0.83025664E+02</pdfrwt>
<pdfrwt beam="2">  1       -4 0.12157740E+00 0.83025664E+02</pdfrwt>
<totfact> 0.13317783E+03</totfact>
</mgrwt>
</event>
<event>
 4    1  0.1437859E-001  0.8468914E+02  0.7546771E-02  0.1316247E+00
          1   -1    0    0  501    0  0.00000000000E+00  0.00000000000E+00  0.16212685694E+03  0.16212685694E+03  0.00000000000E+00 0. -1.
         -1   -1    0    0    0  501 -0.00000000000E+00 -0.00000000000E+00 -0.44285748327E+02  0.44285748327E+02  0.00000000000E+00 0.  1.
         24    1    1    2    0    0 -0.78868925941E+01 -0.25354120563E+02  0.55549816512E+02  0.10128194594E+03  0.80419002446E+02 0. -1.
        -24    1    1    2    0    0  0.78868925941E+01  0.25354120563E+02  0.62291292097E+02  0.10513065932E+03  0.80419002446E+02 0.  1.
<mgrwt>
<rscale>  0 0.84689140E+02</rscale>
<asrwt>0</asrwt>
<pdfrwt beam="1">  1        1 0.24942593E-01 0.84689140E+02</pdfrwt>
<pdfrwt beam="2">  1       -1 0.68131921E-02 0.84689140E+02</pdfrwt>
<totfact> 0.18685567E+04</totfact>
</mgrwt>
</event>
<event>
 4    1  0.1437859E-001  0.1046117E+03  0.7546771E-02  0.1270886E+00
         -1   -1    0    0    0  501 -0.00000000000E+00  0.00000000000E+00  0.65468815632E+01  0.65468815632E+01  0.00000000000E+00 0.  1.
          1   -1    0    0  501    0  0.00000000000E+00 -0.00000000000E+00 -0.19857031874E+04  0.19857031874E+04  0.00000000000E+00 0. -1.
         24    1    1    2    0    0 -0.26903440060E+02 -0.61258507014E+02 -0.59338327451E+03  0.60253408716E+03  0.80419002446E+02 0.  0.
        -24    1    1    2    0    0  0.26903440060E+02  0.61258507014E+02 -0.13857730313E+04  0.13897159818E+04  0.80419002446E+02 0.  1.
<mgrwt>
<rscale>  0 0.10461174E+03</rscale>
<asrwt>0</asrwt>
<pdfrwt beam="1">  1        1 0.30549292E+00 0.10461174E+03</pdfrwt>
<pdfrwt beam="2">  1       -1 0.10072121E-02 0.10461174E+03</pdfrwt>
<totfact> 0.62670302E+03</totfact>
</mgrwt>
</event>
<event>
 4    1  0.1437859E-001  0.1514471E+03  0.7546771E-02  0.1198706E+00
          2   -1    0    0  501    0  0.00000000000E+00  0.00000000000E+00  0.11182901760E+04  0.11182901760E+04  0.00000000000E+00 0. -1.
         -2   -1    0    0    0  501 -0.00000000000E+00 -0.00000000000E+00 -0.88239911386E+02  0.88239911386E+02  0.00000000000E+00 0.  1.
         24    1    1    2    0    0 -0.41283834507E+02 -0.12150985286E+03  0.10435502634E+04  0.10544825117E+04  0.80419002446E+02 0. -1.
        -24    1    1    2    0    0  0.41283834507E+02  0.12150985286E+03 -0.13499998815E+02  0.15204757563E+03  0.80419002446E+02 0.  1.
<mgrwt>
<rscale>  0 0.15144707E+03</rscale>
<asrwt>0</asrwt>
<pdfrwt beam="1">  1        2 0.17204463E+00 0.15144707E+03</pdfrwt>
<pdfrwt beam="2">  1       -2 0.13575372E-01 0.15144707E+03</pdfrwt>
<totfact> 0.90851280E+02</totfact>
</mgrwt>
</event>
<event>
 4    1  0.1437859E-001  0.1248925E+03  0.7546771E-02  0.1235237E+00
         -1   -1    0    0    0  501 -0.00000000000E+00  0.00000000000E+00  0.13225816376E+02  0.13225816376E+02  0.00000000000E+00 0.  1.
          1   -1    0    0  501    0  0.00000000000E+00 -0.00000000000E+00 -0.14603754702E+04  0.14603754702E+04  0.00000000000E+00 0. -1.
         24    1    1    2    0    0  0.77907079278E+02  0.55330020145E+02 -0.40037241628E+03  0.41939982332E+03  0.80419002446E+02 0.  1.
        -24    1    1    2    0    0 -0.77907079278E+02 -0.55330020145E+02 -0.10467772375E+04  0.10542014632E+04  0.80419002446E+02 0. -1.
<mgrwt>
<rscale>  0 0.12489251E+03</rscale>
<asrwt>0</asrwt>
<pdfrwt beam="1">  1        1 0.22467317E+00 0.12489251E+03</pdfrwt>
<pdfrwt beam="2">  1       -1 0.20347408E-02 0.12489251E+03</pdfrwt>
<totfact> 0.49839261E+03</totfact>
</mgrwt>
</event>
<event>
 4    1  0.1437859E-001  0.1235540E+03  0.7546771E-02  0.1237347E+00
         -1   -1    0    0    0  501 -0.00000000000E+00  0.00000000000E+00  0.53003519041E+02  0.53003519041E+02  0.00000000000E+00 0.  1.
          1   -1    0    0  501    0  0.00000000000E+00 -0.00000000000E+00 -0.66828977547E+03  0.66828977547E+03  0.00000000000E+00 0. -1.
         24    1    1    2    0    0 -0.93734442863E+02  0.34966433026E+01 -0.35591942344E+02  0.12857828202E+03  0.80419002446E+02 0.  1.
        -24    1    1    2    0    0  0.93734442863E+02 -0.34966433026E+01 -0.57969431409E+03  0.59271501249E+03  0.80419002446E+02 0. -1.
<mgrwt>
<rscale>  0 0.12355399E+03</rscale>
<asrwt>0</asrwt>
<pdfrwt beam="1">  1        1 0.10281380E+00 0.12355399E+03</pdfrwt>
<pdfrwt beam="2">  1       -1 0.81543882E-02 0.12355399E+03</pdfrwt>
<totfact> 0.24683414E+03</totfact>
</mgrwt>
</event>
<event>
 4    1  0.1437859E-001  0.8135053E+02  0.7546771E-02  0.1325262E+00
         -2   -1    0    0    0  501 -0.00000000000E+00  0.00000000000E+00  0.20472905675E+03  0.20472905675E+03  0.00000000000E+00 0.  1.
          2   -1    0    0  501    0  0.00000000000E+00 -0.00000000000E+00 -0.12610689940E+03  0.12610689940E+03  0.00000000000E+00 0. -1.
         24    1    1    2    0    0 -0.10119716191E+02  0.69487238429E+01 -0.10333909819E+03  0.13151759801E+03  0.80419002446E+02 0.  0.
        -24    1    1    2    0    0  0.10119716191E+02 -0.69487238429E+01  0.18196125554E+03  0.19931835814E+03  0.80419002446E+02 0.  1.
<mgrwt>
<rscale>  0 0.81350534E+02</rscale>
<asrwt>0</asrwt>
<pdfrwt beam="1">  1        2 0.19401061E-01 0.81350534E+02</pdfrwt>
<pdfrwt beam="2">  1       -2 0.31496778E-01 0.81350534E+02</pdfrwt>
<totfact> 0.25251240E+03</totfact>
</mgrwt>
</event>
<event>
 4    1  0.1437859E-001  0.2301180E+03  0.7546771E-02  0.1126557E+00
          1   -1    0    0  501    0  0.00000000000E+00  0.00000000000E+00  0.91805913295E+03  0.91805913295E+03  0.00000000000E+00 0. -1.
         -1   -1    0    0    0  501 -0.00000000000E+00 -0.00000000000E+00 -0.63049132783E+02  0.63049132783E+02  0.00000000000E+00 0.  1.
         24    1    1    2    0    0 -0.80947034665E+01 -0.21545656588E+03  0.28436135038E+03  0.36580821416E+03  0.80419002446E+02 0. -1.
        -24    1    1    2    0    0  0.80947034665E+01  0.21545656588E+03  0.57064864978E+03  0.61530005157E+03  0.80419002446E+02 0.  1.
<mgrwt>
<rscale>  0 0.23011795E+03</rscale>
<asrwt>0</asrwt>
<pdfrwt beam="1">  1        1 0.14123986E+00 0.23011795E+03</pdfrwt>
<pdfrwt beam="2">  1       -1 0.96998672E-02 0.23011795E+03</pdfrwt>
<totfact> 0.11830365E+03</totfact>
</mgrwt>
</event>
<event>
 4    1  0.1437859E-001  0.1256096E+03  0.7546771E-02  0.1234120E+00
          1   -1    0    0  501    0  0.00000000000E+00  0.00000000000E+00  0.87633791948E+02  0.87633791948E+02  0.00000000000E+00 0. -1.
         -1   -1    0    0    0  501 -0.00000000000E+00 -0.00000000000E+00 -0.30502658299E+03  0.30502658299E+03  0.00000000000E+00 0.  1.
         24    1    1    2    0    0  0.38192501028E+02 -0.88610906809E+02 -0.23437061798E+03  0.26590856035E+03  0.80419002446E+02 0.  1.
        -24    1    1    2    0    0 -0.38192501028E+02  0.88610906809E+02  0.16977826937E+02  0.12675181459E+03  0.80419002446E+02 0. -1.
<mgrwt>
<rscale>  0 0.12560962E+03</rscale>
<asrwt>0</asrwt>
<pdfrwt beam="1">  1        1 0.13482122E-01 0.12560962E+03</pdfrwt>
<pdfrwt beam="2">  1       -1 0.46927167E-01 0.12560962E+03</pdfrwt>
<totfact> 0.19257455E+03</totfact>
</mgrwt>
</event>
<event>
 4    1  0.1437859E-001  0.9673528E+02  0.7546771E-02  0.1287315E+00
          2   -1    0    0  501    0  0.00000000000E+00  0.00000000000E+00  0.15507699881E+04  0.15507699881E+04  0.00000000000E+00 0. -1.
         -2   -1    0    0    0  501 -0.00000000000E+00 -0.00000000000E+00 -0.74231406830E+01  0.74231406830E+01  0.00000000000E+00 0.  1.
         24    1    1    2    0    0 -0.40166737638E+02  0.35736966447E+02  0.11086762310E+04  0.11128884485E+04  0.80419002446E+02 0. -1.
        -24    1    1    2    0    0  0.40166737638E+02 -0.35736966447E+02  0.43467061637E+03  0.44530468027E+03  0.80419002446E+02 0.  1.
<mgrwt>
<rscale>  0 0.96735276E+02</rscale>
<asrwt>0</asrwt>
<pdfrwt beam="1">  1        2 0.23857974E+00 0.96735276E+02</pdfrwt>
<pdfrwt beam="2">  1       -2 0.11420229E-02 0.96735276E+02</pdfrwt>
<totfact> 0.21232742E+04</totfact>
</mgrwt>
</event>
<event>
 4    1  0.1437859E-001  0.8592278E+02  0.7546771E-02  0.1313037E+00
          2   -1    0    0  501    0  0.00000000000E+00  0.00000000000E+00  0.12678089239E+04  0.12678089239E+04  0.00000000000E+00 0. -1.
         -2   -1    0    0    0  501 -0.00000000000E+00 -0.00000000000E+00 -0.77611789804E+01  0.77611789804E+01  0.00000000000E+00 0.  1.
         24    1    1    2    0    0 -0.24807512110E+02  0.17323280865E+02  0.94872475978E+03  0.95260768131E+03  0.80419002446E+02 0. -1.
        -24    1    1    2    0    0  0.24807512110E+02 -0.17323280865E+02  0.31132298519E+03  0.32296242162E+03  0.80419002446E+02 0.  1.
<mgrwt>
<rscale>  0 0.85922783E+02</rscale>
<asrwt>0</asrwt>
<pdfrwt beam="1">  1        2 0.19504736E+00 0.85922783E+02</pdfrwt>
<pdfrwt beam="2">  1       -2 0.11940285E-02 0.85922783E+02</pdfrwt>
<totfact> 0.27685288E+04</totfact>
</mgrwt>
</event>
<event>
 4    1  0.1437859E-001  0.1078496E+03  0.7546771E-02  0.1264605E+00
         -1   -1    0    0    0  501 -0.00000000000E+00  0.00000000000E+00  0.27709162450E+02  0.27709162450E+02  0.00000000000E+00 0.  1.
          1   -1    0    0  501    0  0.00000000000E+00 -0.00000000000E+00 -0.42008576009E+03  0.42008576009E+03  0.00000000000E+00 0. -1.
         24    1    1    2    0    0 -0.24115959409E+02  0.67695997579E+02 -0.19007389547E+03  0.21853976590E+03  0.80419002446E+02 0.  1.
        -24    1    1    2    0    0  0.24115959409E+02 -0.67695997579E+02 -0.20230270217E+03  0.22925515664E+03  0.80419002446E+02 0. -1.
<mgrwt>
<rscale>  0 0.10784963E+03</rscale>
<asrwt>0</asrwt>
<pdfrwt beam="1">  1        1 0.64628575E-01 0.10784963E+03</pdfrwt>
<pdfrwt beam="2">  1       -1 0.42629483E-02 0.10784963E+03</pdfrwt>
<totfact> 0.11815437E+04</totfact>
</mgrwt>
</event>
<event>
 4    1  0.1437859E-001  0.1090033E+03  0.7546771E-02  0.1262427E+00
          1   -1    0    0  501    0  0.00000000000E+00  0.00000000000E+00  0.18501167345E+03  0.18501167345E+03  0.00000000000E+00 0. -1.
         -1   -1    0    0    0  501 -0.00000000000E+00 -0.00000000000E+00 -0.12256479812E+03  0.12256479812E+03  0.00000000000E+00 0.  1.
         24    1    1    2    0    0  0.63643035337E+02  0.36933387707E+02 -0.74881532818E+02  0.13224587323E+03  0.80419002446E+02 0.  1.
        -24    1    1    2    0    0 -0.63643035337E+02 -0.36933387707E+02  0.13732840815E+03  0.17533059834E+03  0.80419002446E+02 0. -1.
<mgrwt>
<rscale>  0 0.10900333E+03</rscale>
<asrwt>0</asrwt>
<pdfrwt beam="1">  1        1 0.28463335E-01 0.10900333E+03</pdfrwt>
<pdfrwt beam="2">  1       -1 0.18856123E-01 0.10900333E+03</pdfrwt>
<totfact> 0.34266551E+03</totfact>
</mgrwt>
</event>
<event>
 4    1  0.1437859E-001  0.1668301E+03  0.7546771E-02  0.1181194E+00
          2   -1    0    0  501    0  0.00000000000E+00  0.00000000000E+00  0.26278105863E+03  0.26278105863E+03  0.00000000000E+00 0. -1.
         -2   -1    0    0    0  501 -0.00000000000E+00 -0.00000000000E+00 -0.51871347084E+03  0.51871347084E+03  0.00000000000E+00 0.  1.
         24    1    1    2    0    0  0.14612620147E+03 -0.34930330642E+01  0.22061307282E+03  0.27659069379E+03  0.80419002446E+02 0. -1.
        -24    1    1    2    0    0 -0.14612620147E+03  0.34930330642E+01 -0.47654548503E+03  0.50490383568E+03  0.80419002446E+02 0.  1.
<mgrwt>
<rscale>  0 0.16683011E+03</rscale>
<asrwt>0</asrwt>
<pdfrwt beam="1">  1        2 0.40427855E-01 0.16683011E+03</pdfrwt>
<pdfrwt beam="2">  1       -2 0.79802072E-01 0.16683011E+03</pdfrwt>
<totfact> 0.18344588E+02</totfact>
</mgrwt>
</event>
<event>
 4    1  0.1437859E-001  0.1739696E+03  0.7546771E-02  0.1173770E+00
         -1   -1    0    0    0  501 -0.00000000000E+00  0.00000000000E+00  0.61821743736E+02  0.61821743736E+02  0.00000000000E+00 0.  1.
          1   -1    0    0  501    0  0.00000000000E+00 -0.00000000000E+00 -0.12005536557E+04  0.12005536557E+04  0.00000000000E+00 0. -1.
         24    1    1    2    0    0 -0.13933833229E+03  0.66204431736E+02 -0.83629391839E+02  0.19302665298E+03  0.80419002446E+02 0.  1.
        -24    1    1    2    0    0  0.13933833229E+03 -0.66204431736E+02 -0.10551025201E+04  0.10693487465E+04  0.80419002446E+02 0. -1.
<mgrwt>
<rscale>  0 0.17396958E+03</rscale>
<asrwt>0</asrwt>
<pdfrwt beam="1">  1        1 0.18470055E+00 0.17396958E+03</pdfrwt>
<pdfrwt beam="2">  1       -1 0.95110379E-02 0.17396958E+03</pdfrwt>
<totfact> 0.76134648E+02</totfact>
</mgrwt>
</event>
<event>
 4    1  0.1437859E-001  0.9612237E+02  0.7546771E-02  0.1288668E+00
         -2   -1    0    0    0  501 -0.00000000000E+00  0.00000000000E+00  0.39853634994E+03  0.39853634994E+03  0.00000000000E+00 0.  1.
          2   -1    0    0  501    0  0.00000000000E+00 -0.00000000000E+00 -0.30559831215E+02  0.30559831215E+02  0.00000000000E+00 0. -1.
         24    1    1    2    0    0 -0.22057445763E+02 -0.47809657125E+02  0.78582042165E+02  0.12415573903E+03  0.80419002446E+02 0.  0.
        -24    1    1    2    0    0  0.22057445763E+02  0.47809657125E+02  0.28939447656E+03  0.30494044213E+03  0.80419002446E+02 0. -1.
<mgrwt>
<rscale>  0 0.96122371E+02</rscale>
<asrwt>0</asrwt>
<pdfrwt beam="1">  1        2 0.47015128E-02 0.96122371E+02</pdfrwt>
<pdfrwt beam="2">  1       -2 0.61313281E-01 0.96122371E+02</pdfrwt>
<totfact> 0.39892645E+03</totfact>
</mgrwt>
</event>
<event>
 4    1  0.1437859E-001  0.9083537E+02  0.7546771E-02  0.1300841E+00
         -3   -1    0    0    0  501 -0.00000000000E+00  0.00000000000E+00  0.10044253694E+03  0.10044253694E+03  0.00000000000E+00 0.  1.
          3   -1    0    0  501    0  0.00000000000E+00 -0.00000000000E+00 -0.31550568744E+03  0.31550568744E+03  0.00000000000E+00 0. -1.
         24    1    1    2    0    0  0.21631749838E+02 -0.36275562228E+02  0.71330209245E+02  0.11549486448E+03  0.80419002446E+02 0.  1.
        -24    1    1    2    0    0 -0.21631749838E+02  0.36275562228E+02 -0.28639335974E+03  0.30045335990E+03  0.80419002446E+02 0. -1.
<mgrwt>
<rscale>  0 0.90835373E+02</rscale>
<asrwt>0</asrwt>
<pdfrwt beam="1">  1        3 0.48539335E-01 0.90835373E+02</pdfrwt>
<pdfrwt beam="2">  1       -3 0.15452698E-01 0.90835373E+02</pdfrwt>
<totfact> 0.32823126E+02</totfact>
</mgrwt>
</event>
<event>
 4    1  0.1437859E-001  0.2115658E+03  0.7546771E-02  0.1140332E+00
         -1   -1    0    0    0  501 -0.00000000000E+00  0.00000000000E+00  0.66430573885E+03  0.66430573885E+03  0.00000000000E+00 0.  1.
          1   -1    0    0  501    0  0.00000000000E+00 -0.00000000000E+00 -0.87630867777E+02  0.87630867777E+02  0.00000000000E+00 0. -1.
         24    1    1    2    0    0 -0.77554609068E+02 -0.17966110256E+03  0.10759562525E+03  0.23735387860E+03  0.80419002446E+02 0. -1.
        -24    1    1    2    0    0  0.77554609068E+02  0.17966110256E+03  0.46907924582E+03  0.51458272802E+03  0.80419002446E+02 0.  1.
<mgrwt>
<rscale>  0 0.21156573E+03</rscale>
<asrwt>0</asrwt>
<pdfrwt beam="1">  1        1 0.13481672E-01 0.21156575E+03</pdfrwt>
<pdfrwt beam="2">  1       -1 0.10220088E+00 0.21156575E+03</pdfrwt>
<totfact> 0.41333312E+02</totfact>
</mgrwt>
</event>
<event>
 4    1  0.1437859E-001  0.9917775E+02  0.7546771E-02  0.1282035E+00
          2   -1    0    0  501    0  0.00000000000E+00  0.00000000000E+00  0.23210816001E+03  0.23210816001E+03  0.00000000000E+00 0. -1.
         -2   -1    0    0    0  501 -0.00000000000E+00 -0.00000000000E+00 -0.42551039337E+02  0.42551039337E+02  0.00000000000E+00 0.  1.
         24    1    1    2    0    0 -0.57884379609E+02 -0.42906085569E+01  0.10354185565E+03  0.14337762221E+03  0.80419002446E+02 0. -1.
        -24    1    1    2    0    0  0.57884379609E+02  0.42906085569E+01  0.86015265025E+02  0.13128157714E+03  0.80419002446E+02 0.  1.
<mgrwt>
<rscale>  0 0.99177753E+02</rscale>
<asrwt>0</asrwt>
<pdfrwt beam="1">  1        2 0.35708947E-01 0.99177753E+02</pdfrwt>
<pdfrwt beam="2">  1       -2 0.65463139E-02 0.99177753E+02</pdfrwt>
<totfact> 0.16970306E+04</totfact>
</mgrwt>
</event>
<event>
 4    1  0.1437859E-001  0.2285898E+03  0.7546771E-02  0.1127636E+00
          1   -1    0    0  501    0  0.00000000000E+00  0.00000000000E+00  0.33736787499E+03  0.33736787499E+03  0.00000000000E+00 0. -1.
         -1   -1    0    0    0  501 -0.00000000000E+00 -0.00000000000E+00 -0.15993006127E+03  0.15993006127E+03  0.00000000000E+00 0.  1.
         24    1    1    2    0    0  0.19866151901E+03 -0.79496445666E+02  0.44557281058E+02  0.23289193043E+03  0.80419002446E+02 0.  1.
        -24    1    1    2    0    0 -0.19866151901E+03  0.79496445666E+02  0.13288053266E+03  0.26440600584E+03  0.80419002446E+02 0. -1.
<mgrwt>
<rscale>  0 0.22858981E+03</rscale>
<asrwt>0</asrwt>
<pdfrwt beam="1">  1        1 0.51902750E-01 0.22858981E+03</pdfrwt>
<pdfrwt beam="2">  1       -1 0.24604625E-01 0.22858981E+03</pdfrwt>
<totfact> 0.10783177E+03</totfact>
</mgrwt>
</event>
<event>
 4    1  0.1437859E-001  0.8770650E+02  0.7546771E-02  0.1308503E+00
         -1   -1    0    0    0  501 -0.00000000000E+00  0.00000000000E+00  0.98844101119E+01  0.98844101119E+01  0.00000000000E+00 0.  1.
          1   -1    0    0  501    0  0.00000000000E+00 -0.00000000000E+00 -0.77890294627E+03  0.77890294627E+03  0.00000000000E+00 0. -1.
         24    1    1    2    0    0 -0.68184002976E+01 -0.34332553982E+02 -0.37299219524E+03  0.38316524962E+03  0.80419002446E+02 0.  0.
        -24    1    1    2    0    0  0.68184002976E+01  0.34332553982E+02 -0.39602634092E+03  0.40562210677E+03  0.80419002446E+02 0. -1.
<mgrwt>
<rscale>  0 0.87706504E+02</rscale>
<asrwt>0</asrwt>
<pdfrwt beam="1">  1        1 0.11983124E+00 0.87706504E+02</pdfrwt>
<pdfrwt beam="2">  1       -1 0.15206783E-02 0.87706504E+02</pdfrwt>
<totfact> 0.22351152E+04</totfact>
</mgrwt>
</event>
<event>
 4    1  0.1437859E-001  0.1631343E+03  0.7546771E-02  0.1185203E+00
          2   -1    0    0  501    0  0.00000000000E+00  0.00000000000E+00  0.19534179904E+04  0.19534179904E+04  0.00000000000E+00 0. -1.
         -2   -1    0    0    0  501 -0.00000000000E+00 -0.00000000000E+00 -0.20612841150E+02  0.20612841150E+02  0.00000000000E+00 0.  1.
         24    1    1    2    0    0 -0.10897305170E+03  0.90942101582E+02  0.15411360349E+04  0.15497461360E+04  0.80419002446E+02 0.  1.
        -24    1    1    2    0    0  0.10897305170E+03 -0.90942101582E+02  0.39166911430E+03  0.42428469556E+03  0.80419002446E+02 0. -1.
<mgrwt>
<rscale>  0 0.16313432E+03</rscale>
<asrwt>0</asrwt>
<pdfrwt beam="1">  1        2 0.30052570E+00 0.16313432E+03</pdfrwt>
<pdfrwt beam="2">  1       -2 0.31712079E-02 0.16313432E+03</pdfrwt>
<totfact> 0.30675008E+03</totfact>
</mgrwt>
</event>
<event>
 4    1  0.1437859E-001  0.8431796E+02  0.7546771E-02  0.1317226E+00
         -2   -1    0    0    0  501 -0.00000000000E+00  0.00000000000E+00  0.21835386675E+01  0.21835386675E+01  0.00000000000E+00 0.  1.
          2   -1    0    0  501    0  0.00000000000E+00 -0.00000000000E+00 -0.40877980775E+04  0.40877980775E+04  0.00000000000E+00 0. -1.
         24    1    1    2    0    0 -0.22073144877E+02 -0.12453063883E+02 -0.29653055648E+04  0.29665041060E+04  0.80419002446E+02 0.  0.
        -24    1    1    2    0    0  0.22073144877E+02  0.12453063883E+02 -0.11203089740E+04  0.11234775101E+04  0.80419002446E+02 0.  1.
<mgrwt>
<rscale>  0 0.84317961E+02</rscale>
<asrwt>0</asrwt>
<pdfrwt beam="1">  1        2 0.62889476E+00 0.84317961E+02</pdfrwt>
<pdfrwt beam="2">  1       -2 0.33592756E-03 0.84317961E+02</pdfrwt>
<totfact> 0.40656263E+03</totfact>
</mgrwt>
</event>
<event>
 4    1  0.1437859E-001  0.8535870E+02  0.7546771E-02  0.1314497E+00
          1   -1    0    0  501    0  0.00000000000E+00  0.00000000000E+00  0.36870005002E+03  0.36870005002E+03  0.00000000000E+00 0. -1.
         -1   -1    0    0    0  501 -0.00000000000E+00 -0.00000000000E+00 -0.21809423600E+02  0.21809423600E+02  0.00000000000E+00 0.  1.
         24    1    1    2    0    0  0.42550704711E+01 -0.28298177434E+02  0.11361460138E+03  0.14210695294E+03  0.80419002446E+02 0.  1.
        -24    1    1    2    0    0 -0.42550704711E+01  0.28298177434E+02  0.23327602503E+03  0.24840252068E+03  0.80419002446E+02 0. -1.
<mgrwt>
<rscale>  0 0.85358704E+02</rscale>
<asrwt>0</asrwt>
<pdfrwt beam="1">  1        1 0.56723080E-01 0.85358704E+02</pdfrwt>
<pdfrwt beam="2">  1       -1 0.33552962E-02 0.85358704E+02</pdfrwt>
<totfact> 0.19243612E+04</totfact>
</mgrwt>
</event>
<event>
 4    1  0.1437859E-001  0.1081444E+03  0.7546771E-02  0.1264045E+00
          2   -1    0    0  501    0  0.00000000000E+00  0.00000000000E+00  0.13134209725E+03  0.13134209725E+03  0.00000000000E+00 0. -1.
         -2   -1    0    0    0  501 -0.00000000000E+00 -0.00000000000E+00 -0.14497220549E+03  0.14497220549E+03  0.00000000000E+00 0.  1.
         24    1    1    2    0    0 -0.43377125031E+02  0.57848217304E+02  0.78996741022E+02  0.13392420344E+03  0.80419002446E+02 0. -1.
        -24    1    1    2    0    0  0.43377125031E+02 -0.57848217304E+02 -0.92626849254E+02  0.14239009930E+03  0.80419002446E+02 0.  1.
<mgrwt>
<rscale>  0 0.10814438E+03</rscale>
<asrwt>0</asrwt>
<pdfrwt beam="1">  1        2 0.20206476E-01 0.10814438E+03</pdfrwt>
<pdfrwt beam="2">  1       -2 0.22303416E-01 0.10814438E+03</pdfrwt>
<totfact> 0.44939722E+03</totfact>
</mgrwt>
</event>
<event>
 4    1  0.1437859E-001  0.1055343E+03  0.7546771E-02  0.1269071E+00
          2   -1    0    0  501    0  0.00000000000E+00  0.00000000000E+00  0.25845474458E+04  0.25845474458E+04  0.00000000000E+00 0. -1.
         -2   -1    0    0    0  501 -0.00000000000E+00 -0.00000000000E+00 -0.23488885896E+02  0.23488885896E+02  0.00000000000E+00 0.  1.
         24    1    1    2    0    0  0.61579001836E+02 -0.29636049455E+02  0.24588743995E+04  0.24611381102E+04  0.80419002446E+02 0. -1.
        -24    1    1    2    0    0 -0.61579001836E+02  0.29636049455E+02  0.10218416042E+03  0.14689822153E+03  0.80419002446E+02 0.  1.
<mgrwt>
<rscale>  0 0.10553428E+03</rscale>
<asrwt>0</asrwt>
<pdfrwt beam="1">  1        2 0.39762246E+00 0.10553428E+03</pdfrwt>
<pdfrwt beam="2">  1       -2 0.36136768E-02 0.10553428E+03</pdfrwt>
<totfact> 0.11939782E+03</totfact>
</mgrwt>
</event>
<event>
 4    1  0.1437859E-001  0.1190302E+03  0.7546771E-02  0.1244705E+00
         -3   -1    0    0    0  501 -0.00000000000E+00  0.00000000000E+00  0.60351779589E+02  0.60351779589E+02  0.00000000000E+00 0.  1.
          3   -1    0    0  501    0  0.00000000000E+00 -0.00000000000E+00 -0.38163546949E+03  0.38163546949E+03  0.00000000000E+00 0. -1.
         24    1    1    2    0    0  0.71586839237E+02  0.50757343165E+02 -0.23544314939E+02  0.12133645024E+03  0.80419002446E+02 0.  1.
        -24    1    1    2    0    0 -0.71586839237E+02 -0.50757343165E+02 -0.29773937496E+03  0.32065079884E+03  0.80419002446E+02 0. -1.
<mgrwt>
<rscale>  0 0.11903025E+03</rscale>
<asrwt>0</asrwt>
<pdfrwt beam="1">  1        3 0.58713147E-01 0.11903025E+03</pdfrwt>
<pdfrwt beam="2">  1       -3 0.92848894E-02 0.11903025E+03</pdfrwt>
<totfact> 0.54638047E+02</totfact>
</mgrwt>
</event>
<event>
 4    1  0.1437859E-001  0.1231225E+03  0.7546771E-02  0.1238033E+00
          4   -1    0    0  501    0  0.00000000000E+00  0.00000000000E+00  0.40007429951E+03  0.40007429951E+03  0.00000000000E+00 0. -1.
         -4   -1    0    0    0  501 -0.00000000000E+00 -0.00000000000E+00 -0.38572948883E+02  0.38572948883E+02  0.00000000000E+00 0.  1.
         24    1    1    2    0    0  0.90465281816E+02  0.22538106944E+02  0.15158498179E+03  0.19528736809E+03  0.80419002446E+02 0. -1.
        -24    1    1    2    0    0 -0.90465281816E+02 -0.22538106944E+02  0.20991636884E+03  0.24335988030E+03  0.80419002446E+02 0.  0.
<mgrwt>
<rscale>  0 0.12312251E+03</rscale>
<asrwt>0</asrwt>
<pdfrwt beam="1">  1        4 0.61549889E-01 0.12312253E+03</pdfrwt>
<pdfrwt beam="2">  1       -4 0.59343001E-02 0.12312253E+03</pdfrwt>
<totfact> 0.73726150E+02</totfact>
</mgrwt>
</event>
<event>
 4    1  0.1437859E-001  0.8209703E+02  0.7546771E-02  0.1323204E+00
          2   -1    0    0  501    0  0.00000000000E+00  0.00000000000E+00  0.52311239138E+03  0.52311239138E+03  0.00000000000E+00 0. -1.
         -2   -1    0    0    0  501 -0.00000000000E+00 -0.00000000000E+00 -0.13786631256E+02  0.13786631256E+02  0.00000000000E+00 0.  1.
         24    1    1    2    0    0  0.27543671304E+01 -0.16282410178E+02  0.18598377304E+03  0.20329752386E+03  0.80419002446E+02 0.  0.
        -24    1    1    2    0    0 -0.27543671304E+01  0.16282410178E+02  0.32334198708E+03  0.33360149877E+03  0.80419002446E+02 0.  0.
<mgrwt>
<rscale>  0 0.82097022E+02</rscale>
<asrwt>0</asrwt>
<pdfrwt beam="1">  1        2 0.80478814E-01 0.82097032E+02</pdfrwt>
<pdfrwt beam="2">  1       -2 0.21210206E-02 0.82097032E+02</pdfrwt>
<totfact> 0.36909096E+04</totfact>
</mgrwt>
</event>
<event>
 4    1  0.1437859E-001  0.9865077E+02  0.7546771E-02  0.1283159E+00
          1   -1    0    0  501    0  0.00000000000E+00  0.00000000000E+00  0.77560994296E+03  0.77560994296E+03  0.00000000000E+00 0. -1.
         -1   -1    0    0    0  501 -0.00000000000E+00 -0.00000000000E+00 -0.37174452541E+02  0.37174452541E+02  0.00000000000E+00 0.  1.
         24    1    1    2    0    0 -0.17538771108E+02 -0.54379691564E+02  0.38446080547E+02  0.10587764830E+03  0.80419002446E+02 0.  1.
        -24    1    1    2    0    0  0.17538771108E+02  0.54379691564E+02  0.69998940987E+03  0.70690674720E+03  0.80419002446E+02 0. -1.
<mgrwt>
<rscale>  0 0.98650774E+02</rscale>
<asrwt>0</asrwt>
<pdfrwt beam="1">  1        1 0.11932459E+00 0.98650774E+02</pdfrwt>
<pdfrwt beam="2">  1       -1 0.57191471E-02 0.98650774E+02</pdfrwt>
<totfact> 0.33551209E+03</totfact>
</mgrwt>
</event>
<event>
 4    1  0.1437859E-001  0.1243625E+03  0.7546771E-02  0.1236069E+00
          2   -1    0    0  501    0  0.00000000000E+00  0.00000000000E+00  0.36550893076E+03  0.36550893076E+03  0.00000000000E+00 0. -1.
         -2   -1    0    0    0  501 -0.00000000000E+00 -0.00000000000E+00 -0.68900122492E+02  0.68900122492E+02  0.00000000000E+00 0.  1.
         24    1    1    2    0    0 -0.57699606432E+02  0.75296529795E+02  0.28322833616E+03  0.30932881913E+03  0.80419002446E+02 0. -1.
        -24    1    1    2    0    0  0.57699606432E+02 -0.75296529795E+02  0.13380472109E+02  0.12508023413E+03  0.80419002446E+02 0.  1.
<mgrwt>
<rscale>  0 0.12436249E+03</rscale>
<asrwt>0</asrwt>
<pdfrwt beam="1">  1        2 0.56232142E-01 0.12436249E+03</pdfrwt>
<pdfrwt beam="2">  1       -2 0.10600019E-01 0.12436249E+03</pdfrwt>
<totfact> 0.50889060E+03</totfact>
</mgrwt>
</event>
<event>
 4    1  0.1437859E-001  0.1037434E+03  0.7546771E-02  0.1272615E+00
          4   -1    0    0  501    0  0.00000000000E+00  0.00000000000E+00  0.89453467700E+01  0.89453467700E+01  0.00000000000E+00 0. -1.
         -4   -1    0    0    0  501 -0.00000000000E+00 -0.00000000000E+00 -0.15181792712E+04  0.15181792712E+04  0.00000000000E+00 0.  1.
         24    1    1    2    0    0 -0.21597777971E+02  0.61879010759E+02 -0.40679991925E+03  0.41982004031E+03  0.80419002446E+02 0.  1.
        -24    1    1    2    0    0  0.21597777971E+02 -0.61879010759E+02 -0.11024340052E+04  0.11073045777E+04  0.80419002446E+02 0. -1.
<mgrwt>
<rscale>  0 0.10374339E+03</rscale>
<asrwt>0</asrwt>
<pdfrwt beam="1">  1        4 0.13762089E-02 0.10374339E+03</pdfrwt>
<pdfrwt beam="2">  1       -4 0.23356576E+00 0.10374339E+03</pdfrwt>
<totfact> 0.26489785E+02</totfact>
</mgrwt>
</event>
<event>
 4    1  0.1437859E-001  0.1100662E+03  0.7546771E-02  0.1260447E+00
         -2   -1    0    0    0  501 -0.00000000000E+00  0.00000000000E+00  0.63041459942E+02  0.63041459942E+02  0.00000000000E+00 0.  1.
          2   -1    0    0  501    0  0.00000000000E+00 -0.00000000000E+00 -0.46431980625E+03  0.46431980625E+03  0.00000000000E+00 0. -1.
         24    1    1    2    0    0 -0.14638058294E+02 -0.73709472654E+02 -0.40251063939E+03  0.41728813772E+03  0.80419002446E+02 0. -1.
        -24    1    1    2    0    0  0.14638058294E+02  0.73709472654E+02  0.12322930836E+01  0.11007312847E+03  0.80419002446E+02 0.  1.
<mgrwt>
<rscale>  0 0.11006623E+03</rscale>
<asrwt>0</asrwt>
<pdfrwt beam="1">  1        2 0.71433819E-01 0.11006623E+03</pdfrwt>
<pdfrwt beam="2">  1       -2 0.96986858E-02 0.11006623E+03</pdfrwt>
<totfact> 0.45009070E+03</totfact>
</mgrwt>
</event>
<event>
 4    1  0.1437859E-001  0.1039980E+03  0.7546771E-02  0.1272107E+00
          1   -1    0    0  501    0  0.00000000000E+00  0.00000000000E+00  0.55804029840E+02  0.55804029840E+02  0.00000000000E+00 0. -1.
         -1   -1    0    0    0  501 -0.00000000000E+00 -0.00000000000E+00 -0.29714597736E+03  0.29714597736E+03  0.00000000000E+00 0.  1.
         24    1    1    2    0    0  0.63944450739E+02 -0.16108053869E+02 -0.22473881591E+03  0.24763504096E+03  0.80419002446E+02 0.  1.
        -24    1    1    2    0    0 -0.63944450739E+02  0.16108053869E+02 -0.16603131605E+02  0.10531496624E+03  0.80419002446E+02 0. -1.
<mgrwt>
<rscale>  0 0.10399797E+03</rscale>
<asrwt>0</asrwt>
<pdfrwt beam="1">  1        1 0.85852353E-02 0.10399797E+03</pdfrwt>
<pdfrwt beam="2">  1       -1 0.45714766E-01 0.10399797E+03</pdfrwt>
<totfact> 0.36143786E+03</totfact>
</mgrwt>
</event>
<event>
 4    1  0.1437859E-001  0.8468502E+02  0.7546771E-02  0.1316258E+00
          3   -1    0    0  501    0  0.00000000000E+00  0.00000000000E+00  0.10287404734E+03  0.10287404734E+03  0.00000000000E+00 0. -1.
         -3   -1    0    0    0  501 -0.00000000000E+00 -0.00000000000E+00 -0.11956727325E+03  0.11956727325E+03  0.00000000000E+00 0.  1.
         24    1    1    2    0    0  0.20060258282E+02  0.17375940493E+02 -0.80164885863E+02  0.11661030036E+03  0.80419002446E+02 0.  1.
        -24    1    1    2    0    0 -0.20060258282E+02 -0.17375940493E+02  0.63471659953E+02  0.10583102023E+03  0.80419002446E+02 0. -1.
<mgrwt>
<rscale>  0 0.84685024E+02</rscale>
<asrwt>0</asrwt>
<pdfrwt beam="1">  1        3 0.15826777E-01 0.84685024E+02</pdfrwt>
<pdfrwt beam="2">  1       -3 0.18394965E-01 0.84685024E+02</pdfrwt>
<totfact> 0.18453963E+03</totfact>
</mgrwt>
</event>
<event>
 4    1  0.1437859E-001  0.2731180E+03  0.7546771E-02  0.1099508E+00
         -1   -1    0    0    0  501 -0.00000000000E+00  0.00000000000E+00  0.87267124744E+03  0.87267124744E+03  0.00000000000E+00 0.  1.
          1   -1    0    0  501    0  0.00000000000E+00 -0.00000000000E+00 -0.50480509593E+03  0.50480509593E+03  0.00000000000E+00 0. -1.
         24    1    1    2    0    0  0.13559870783E+03 -0.22302289149E+03  0.81165775110E+03  0.85637710185E+03  0.80419002446E+02 0.  1.
        -24    1    1    2    0    0 -0.13559870783E+03  0.22302289149E+03 -0.44379159959E+03  0.52109924152E+03  0.80419002446E+02 0. -1.
<mgrwt>
<rscale>  0 0.27311799E+03</rscale>
<asrwt>0</asrwt>
<pdfrwt beam="1">  1        1 0.77662323E-01 0.27311799E+03</pdfrwt>
<pdfrwt beam="2">  1       -1 0.13425711E+00 0.27311799E+03</pdfrwt>
<totfact> 0.22733670E+01</totfact>
</mgrwt>
</event>
<event>
 4    1  0.1437859E-001  0.1015293E+03  0.7546771E-02  0.1277113E+00
         -2   -1    0    0    0  501 -0.00000000000E+00  0.00000000000E+00  0.13650261814E+02  0.13650261814E+02  0.00000000000E+00 0.  1.
          2   -1    0    0  501    0  0.00000000000E+00 -0.00000000000E+00 -0.75533251416E+03  0.75533251416E+03  0.00000000000E+00 0. -1.
         24    1    1    2    0    0 -0.61836662326E+02 -0.41487528601E+01 -0.37656583134E+03  0.39001285395E+03  0.80419002446E+02 0. -1.
        -24    1    1    2    0    0  0.61836662326E+02  0.41487528601E+01 -0.36511642100E+03  0.37896992202E+03  0.80419002446E+02 0.  1.
<mgrwt>
<rscale>  0 0.10152931E+03</rscale>
<asrwt>0</asrwt>
<pdfrwt beam="1">  1        2 0.11620502E+00 0.10152931E+03</pdfrwt>
<pdfrwt beam="2">  1       -2 0.21000400E-02 0.10152931E+03</pdfrwt>
<totfact> 0.25238237E+04</totfact>
</mgrwt>
</event>
<event>
 4    1  0.1437859E-001  0.1081379E+03  0.7546771E-02  0.1264058E+00
         -1   -1    0    0    0  501 -0.00000000000E+00  0.00000000000E+00  0.23184477411E+02  0.23184477411E+02  0.00000000000E+00 0.  1.
          1   -1    0    0  501    0  0.00000000000E+00 -0.00000000000E+00 -0.50594247767E+03  0.50594247767E+03  0.00000000000E+00 0. -1.
         24    1    1    2    0    0  0.77912111829E+01  0.71873989013E+02 -0.25608082365E+03  0.27797693692E+03  0.80419002446E+02 0. -1.
        -24    1    1    2    0    0 -0.77912111829E+01 -0.71873989013E+02 -0.22667717661E+03  0.25115001816E+03  0.80419002446E+02 0.  1.
<mgrwt>
<rscale>  0 0.10813784E+03</rscale>
<asrwt>0</asrwt>
<pdfrwt beam="1">  1        1 0.77837296E-01 0.10813785E+03</pdfrwt>
<pdfrwt beam="2">  1       -1 0.35668431E-02 0.10813785E+03</pdfrwt>
<totfact> 0.12090299E+04</totfact>
</mgrwt>
</event>
<event>
 4    1  0.1437859E-001  0.1082153E+03  0.7546771E-02  0.1263911E+00
         -3   -1    0    0    0  501 -0.00000000000E+00  0.00000000000E+00  0.76417346000E+01  0.76417346000E+01  0.00000000000E+00 0.  1.
          3   -1    0    0  501    0  0.00000000000E+00 -0.00000000000E+00 -0.22481063937E+04  0.22481063937E+04  0.00000000000E+00 0. -1.
         24    1    1    2    0    0  0.68173462880E+02  0.24407408481E+02 -0.48386898394E+03  0.49582229902E+03  0.80419002446E+02 0.  1.
        -24    1    1    2    0    0 -0.68173462880E+02 -0.24407408481E+02 -0.17565956752E+04  0.17599258293E+04  0.80419002446E+02 0. -1.
<mgrwt>
<rscale>  0 0.10821533E+03</rscale>
<asrwt>0</asrwt>
<pdfrwt beam="1">  1        3 0.34586279E+00 0.10821533E+03</pdfrwt>
<pdfrwt beam="2">  1       -3 0.11756506E-02 0.10821533E+03</pdfrwt>
<totfact> 0.13075814E+02</totfact>
</mgrwt>
</event>
<event>
 4    1  0.1437859E-001  0.8078051E+02  0.7546771E-02  0.1326851E+00
          1   -1    0    0  501    0  0.00000000000E+00  0.00000000000E+00  0.64701733069E+02  0.64701733069E+02  0.00000000000E+00 0. -1.
         -1   -1    0    0    0  501 -0.00000000000E+00 -0.00000000000E+00 -0.10433873076E+03  0.10433873076E+03  0.00000000000E+00 0.  1.
         24    1    1    2    0    0 -0.33277896525E+01  0.68702571168E+01 -0.35262606321E+02  0.88141601845E+02  0.80419002446E+02 0.  0.
        -24    1    1    2    0    0  0.33277896525E+01 -0.68702571168E+01 -0.43743913745E+01  0.80898861989E+02  0.80419002446E+02 0. -1.
<mgrwt>
<rscale>  0 0.80780509E+02</rscale>
<asrwt>0</asrwt>
<pdfrwt beam="1">  1        1 0.99541129E-02 0.80780509E+02</pdfrwt>
<pdfrwt beam="2">  1       -1 0.16052112E-01 0.80780509E+02</pdfrwt>
<totfact> 0.16350324E+04</totfact>
</mgrwt>
</event>
<event>
 4    1  0.1437859E-001  0.1620275E+03  0.7546771E-02  0.1186427E+00
         -2   -1    0    0    0  501 -0.00000000000E+00  0.00000000000E+00  0.97786028394E+02  0.97786028394E+02  0.00000000000E+00 0.  1.
          2   -1    0    0  501    0  0.00000000000E+00 -0.00000000000E+00 -0.28581848010E+03  0.28581848010E+03  0.00000000000E+00 0. -1.
         24    1    1    2    0    0  0.43456610266E+02 -0.13378052076E+03 -0.14126604459E+03  0.21496282474E+03  0.80419002446E+02 0. -1.
        -24    1    1    2    0    0 -0.43456610266E+02  0.13378052076E+03 -0.46766407114E+02  0.16864168375E+03  0.80419002446E+02 0.  1.
<mgrwt>
<rscale>  0 0.16202753E+03</rscale>
<asrwt>0</asrwt>
<pdfrwt beam="1">  1        2 0.43972075E-01 0.16202753E+03</pdfrwt>
<pdfrwt beam="2">  1       -2 0.15044004E-01 0.16202753E+03</pdfrwt>
<totfact> 0.38177796E+03</totfact>
</mgrwt>
</event>
<event>
 4    1  0.1437859E-001  0.1045608E+03  0.7546771E-02  0.1270987E+00
         -1   -1    0    0    0  501 -0.00000000000E+00  0.00000000000E+00  0.37778870333E+02  0.37778870333E+02  0.00000000000E+00 0.  1.
          1   -1    0    0  501    0  0.00000000000E+00 -0.00000000000E+00 -0.62432573571E+03  0.62432573571E+03  0.00000000000E+00 0. -1.
         24    1    1    2    0    0  0.65540370043E+02  0.13046482718E+02 -0.50797105956E+02  0.11624677520E+03  0.80419002446E+02 0.  1.
        -24    1    1    2    0    0 -0.65540370043E+02 -0.13046482718E+02 -0.53574975942E+03  0.54585783084E+03  0.80419002446E+02 0. -1.
<mgrwt>
<rscale>  0 0.10456083E+03</rscale>
<asrwt>0</asrwt>
<pdfrwt beam="1">  1        1 0.96050110E-01 0.10456083E+03</pdfrwt>
<pdfrwt beam="2">  1       -1 0.58121341E-02 0.10456083E+03</pdfrwt>
<totfact> 0.44625240E+03</totfact>
</mgrwt>
</event>
<event>
 4    1  0.1437859E-001  0.8179622E+02  0.7546771E-02  0.1324030E+00
          2   -1    0    0  501    0  0.00000000000E+00  0.00000000000E+00  0.91611898482E+02  0.91611898482E+02  0.00000000000E+00 0. -1.
         -2   -1    0    0    0  501 -0.00000000000E+00 -0.00000000000E+00 -0.85358004273E+02  0.85358004273E+02  0.00000000000E+00 0.  1.
         24    1    1    2    0    0  0.12971708174E+02 -0.74256500733E+01  0.36751332578E+02  0.89673194950E+02  0.80419002446E+02 0.  0.
        -24    1    1    2    0    0 -0.12971708174E+02  0.74256500733E+01 -0.30497438369E+02  0.87296707804E+02  0.80419002446E+02 0.  1.
<mgrwt>
<rscale>  0 0.81796219E+02</rscale>
<asrwt>0</asrwt>
<pdfrwt beam="1">  1        2 0.14094138E-01 0.81796219E+02</pdfrwt>
<pdfrwt beam="2">  1       -2 0.13132001E-01 0.81796219E+02</pdfrwt>
<totfact> 0.15814342E+04</totfact>
</mgrwt>
</event>
<event>
 4    1  0.1437859E-001  0.1076036E+03  0.7546771E-02  0.1265073E+00
         -2   -1    0    0    0  501 -0.00000000000E+00  0.00000000000E+00  0.69660861952E+01  0.69660861952E+01  0.00000000000E+00 0.  1.
          2   -1    0    0  501    0  0.00000000000E+00 -0.00000000000E+00 -0.16669849697E+04  0.16669849697E+04  0.00000000000E+00 0. -1.
         24    1    1    2    0    0  0.62900152687E+02 -0.33983566617E+02 -0.78483186902E+03  0.79217396485E+03  0.80419002446E+02 0.  1.
        -24    1    1    2    0    0 -0.62900152687E+02  0.33983566617E+02 -0.87518701444E+03  0.88177709099E+03  0.80419002446E+02 0. -1.
<mgrwt>
<rscale>  0 0.10760358E+03</rscale>
<asrwt>0</asrwt>
<pdfrwt beam="1">  1        2 0.25645912E+00 0.10760360E+03</pdfrwt>
<pdfrwt beam="2">  1       -2 0.10717060E-02 0.10760360E+03</pdfrwt>
<totfact> 0.20428964E+04</totfact>
</mgrwt>
</event>
<event>
 4    1  0.1437859E-001  0.1945784E+03  0.7546771E-02  0.1154396E+00
          2   -1    0    0  501    0  0.00000000000E+00  0.00000000000E+00  0.86353065509E+03  0.86353065509E+03  0.00000000000E+00 0. -1.
         -2   -1    0    0    0  501 -0.00000000000E+00 -0.00000000000E+00 -0.73623324396E+02  0.73623324396E+02  0.00000000000E+00 0.  1.
         24    1    1    2    0    0 -0.15277360889E+03  0.89742733516E+02  0.69296290076E+03  0.71976269115E+03  0.80419002446E+02 0. -1.
        -24    1    1    2    0    0  0.15277360889E+03 -0.89742733516E+02  0.96944429937E+02  0.21739128833E+03  0.80419002446E+02 0.  1.
<mgrwt>
<rscale>  0 0.19457839E+03</rscale>
<asrwt>0</asrwt>
<pdfrwt beam="1">  1        2 0.13285086E+00 0.19457839E+03</pdfrwt>
<pdfrwt beam="2">  1       -2 0.11326666E-01 0.19457839E+03</pdfrwt>
<totfact> 0.17381791E+03</totfact>
</mgrwt>
</event>
<event>
 4    1  0.1437859E-001  0.2066752E+03  0.7546771E-02  0.1144226E+00
          3   -1    0    0  501    0  0.00000000000E+00  0.00000000000E+00  0.11814498228E+03  0.11814498228E+03  0.00000000000E+00 0. -1.
         -3   -1    0    0    0  501 -0.00000000000E+00 -0.00000000000E+00 -0.98149861951E+03  0.98149861951E+03  0.00000000000E+00 0.  1.
         24    1    1    2    0    0 -0.18719711065E+03  0.34708510022E+02 -0.86865215475E+03  0.89290045403E+03  0.80419002446E+02 0.  1.
        -24    1    1    2    0    0  0.18719711065E+03 -0.34708510022E+02  0.52985175221E+01  0.20674314776E+03  0.80419002446E+02 0. -1.
<mgrwt>
<rscale>  0 0.20667524E+03</rscale>
<asrwt>0</asrwt>
<pdfrwt beam="1">  1        3 0.18176151E-01 0.20667524E+03</pdfrwt>
<pdfrwt beam="2">  1       -3 0.15099979E+00 0.20667524E+03</pdfrwt>
<totfact> 0.21898166E+01</totfact>
</mgrwt>
</event>
<event>
 4    1  0.1437859E-001  0.1132272E+03  0.7546771E-02  0.1254708E+00
          2   -1    0    0  501    0  0.00000000000E+00  0.00000000000E+00  0.18759312093E+04  0.18759312093E+04  0.00000000000E+00 0. -1.
         -2   -1    0    0    0  501 -0.00000000000E+00 -0.00000000000E+00 -0.82415635948E+01  0.82415635948E+01  0.00000000000E+00 0.  1.
         24    1    1    2    0    0 -0.34789756743E+02  0.71713732931E+02  0.13231553862E+04  0.13279911816E+04  0.80419002446E+02 0. -1.
        -24    1    1    2    0    0  0.34789756743E+02 -0.71713732931E+02  0.54453425954E+03  0.55618159124E+03  0.80419002446E+02 0.  0.
<mgrwt>
<rscale>  0 0.11322722E+03</rscale>
<asrwt>0</asrwt>
<pdfrwt beam="1">  1        2 0.28860446E+00 0.11322722E+03</pdfrwt>
<pdfrwt beam="2">  1       -2 0.12679344E-02 0.11322722E+03</pdfrwt>
<totfact> 0.12630157E+04</totfact>
</mgrwt>
</event>
<event>
 4    1  0.1437859E-001  0.8867997E+02  0.7546771E-02  0.1306080E+00
         -1   -1    0    0    0  501 -0.00000000000E+00  0.00000000000E+00  0.63588338056E+02  0.63588338056E+02  0.00000000000E+00 0.  1.
          1   -1    0    0  501    0  0.00000000000E+00 -0.00000000000E+00 -0.20591919095E+03  0.20591919095E+03  0.00000000000E+00 0. -1.
         24    1    1    2    0    0 -0.10859330483E+02  0.35763048542E+02  0.13997658166E+02  0.89777898662E+02  0.80419002446E+02 0.  1.
        -24    1    1    2    0    0  0.10859330483E+02 -0.35763048542E+02 -0.15632851106E+03  0.17972963035E+03  0.80419002446E+02 0. -1.
<mgrwt>
<rscale>  0 0.88679968E+02</rscale>
<asrwt>0</asrwt>
<pdfrwt beam="1">  1        1 0.31679875E-01 0.88679968E+02</pdfrwt>
<pdfrwt beam="2">  1       -1 0.97828214E-02 0.88679968E+02</pdfrwt>
<totfact> 0.81533545E+03</totfact>
</mgrwt>
</event>
<event>
 4    1  0.1437859E-001  0.1096025E+03  0.7546771E-02  0.1261308E+00
          1   -1    0    0  501    0  0.00000000000E+00  0.00000000000E+00  0.13567296898E+03  0.13567296898E+03  0.00000000000E+00 0. -1.
         -1   -1    0    0    0  501 -0.00000000000E+00 -0.00000000000E+00 -0.12240606152E+03  0.12240606152E+03  0.00000000000E+00 0.  1.
         24    1    1    2    0    0 -0.14343720712E+02 -0.73073561663E+02 -0.61238954036E+02  0.12555044079E+03  0.80419002446E+02 0.  1.
        -24    1    1    2    0    0  0.14343720712E+02  0.73073561663E+02  0.74505861491E+02  0.13252858970E+03  0.80419002446E+02 0. -1.
<mgrwt>
<rscale>  0 0.10960248E+03</rscale>
<asrwt>0</asrwt>
<pdfrwt beam="1">  1        1 0.20872764E-01 0.10960248E+03</pdfrwt>
<pdfrwt beam="2">  1       -1 0.18831702E-01 0.10960248E+03</pdfrwt>
<totfact> 0.50596069E+03</totfact>
</mgrwt>
</event>
<event>
 4    1  0.1675359E-001  0.1016379E+03  0.7546771E-02  0.1276889E+00
         -1   -1    0    0    0  501 -0.00000000000E+00  0.00000000000E+00  0.99157645513E+03  0.99157645513E+03  0.00000000000E+00 0.  1.
          1   -1    0    0  501    0  0.00000000000E+00 -0.00000000000E+00 -0.18929834361E+03  0.18929834361E+03  0.00000000000E+00 0. -1.
         24    1    1    2    0    0 -0.53397533616E+02  0.31807987111E+02  0.97509920661E+03  0.98038192728E+03  0.80419002446E+02 0.  1.
        -24    1    1    2    0    0  0.53397533616E+02 -0.31807987111E+02 -0.17282109510E+03  0.20049287146E+03  0.80419002446E+02 0. -1.
<mgrwt>
<rscale>  0 0.10163789E+03</rscale>
<asrwt>0</asrwt>
<pdfrwt beam="1">  1        1 0.29122823E-01 0.10163789E+03</pdfrwt>
<pdfrwt beam="2">  1       -1 0.15255022E+00 0.10163789E+03</pdfrwt>
<totfact> 0.60258100E+01</totfact>
</mgrwt>
</event>
<event>
 4    1  0.1437859E-001  0.8439718E+02  0.7546771E-02  0.1317017E+00
         -2   -1    0    0    0  501 -0.00000000000E+00  0.00000000000E+00  0.17181717431E+02  0.17181717431E+02  0.00000000000E+00 0.  1.
          2   -1    0    0  501    0  0.00000000000E+00 -0.00000000000E+00 -0.59813708128E+03  0.59813708128E+03  0.00000000000E+00 0. -1.
         24    1    1    2    0    0  0.11767738831E+02  0.22741763027E+02 -0.46091980892E+03  0.46858292081E+03  0.80419002446E+02 0. -1.
        -24    1    1    2    0    0 -0.11767738831E+02 -0.22741763027E+02 -0.12003555492E+03  0.14673587790E+03  0.80419002446E+02 0.  1.
<mgrwt>
<rscale>  0 0.84397177E+02</rscale>
<asrwt>0</asrwt>
<pdfrwt beam="1">  1        2 0.92021087E-01 0.84397177E+02</pdfrwt>
<pdfrwt beam="2">  1       -2 0.26433412E-02 0.84397177E+02</pdfrwt>
<totfact> 0.23276461E+04</totfact>
</mgrwt>
</event>
<event>
 4    1  0.1437859E-001  0.1158533E+03  0.7546771E-02  0.1250099E+00
         -1   -1    0    0    0  501 -0.00000000000E+00  0.00000000000E+00  0.17572752189E+02  0.17572752189E+02  0.00000000000E+00 0.  1.
          1   -1    0    0  501    0  0.00000000000E+00 -0.00000000000E+00 -0.11355425417E+04  0.11355425417E+04  0.00000000000E+00 0. -1.
         24    1    1    2    0    0 -0.64254639433E+02 -0.53161197319E+02 -0.22909816741E+03  0.25672545229E+03  0.80419002446E+02 0.  1.
        -24    1    1    2    0    0  0.64254639433E+02  0.53161197319E+02 -0.88887162210E+03  0.89638984159E+03  0.80419002446E+02 0. -1.
<mgrwt>
<rscale>  0 0.11585330E+03</rscale>
<asrwt>0</asrwt>
<pdfrwt beam="1">  1        1 0.17469889E+00 0.11585330E+03</pdfrwt>
<pdfrwt beam="2">  1       -1 0.27034997E-02 0.11585330E+03</pdfrwt>
<totfact> 0.54327229E+03</totfact>
</mgrwt>
</event>
<event>
 4    1  0.1437859E-001  0.1350639E+03  0.7546771E-02  0.1220130E+00
         -1   -1    0    0    0  501 -0.00000000000E+00  0.00000000000E+00  0.71342150918E+02  0.71342150918E+02  0.00000000000E+00 0.  1.
          1   -1    0    0  501    0  0.00000000000E+00 -0.00000000000E+00 -0.26194304192E+03  0.26194304192E+03  0.00000000000E+00 0. -1.
         24    1    1    2    0    0 -0.45759247765E+02 -0.98392654161E+02 -0.12102546985E+03  0.18135435880E+03  0.80419002446E+02 0.  1.
        -24    1    1    2    0    0  0.45759247765E+02  0.98392654161E+02 -0.69575421155E+02  0.15193083404E+03  0.80419002446E+02 0.  0.
<mgrwt>
<rscale>  0 0.13506385E+03</rscale>
<asrwt>0</asrwt>
<pdfrwt beam="1">  1        1 0.40298930E-01 0.13506387E+03</pdfrwt>
<pdfrwt beam="2">  1       -1 0.10975715E-01 0.13506387E+03</pdfrwt>
<totfact> 0.52481690E+03</totfact>
</mgrwt>
</event>
<event>
 4    1  0.1437859E-001  0.1809785E+03  0.7546771E-02  0.1166859E+00
         -1   -1    0    0    0  501 -0.00000000000E+00  0.00000000000E+00  0.51671776239E+02  0.51671776239E+02  0.00000000000E+00 0.  1.
          1   -1    0    0  501    0  0.00000000000E+00 -0.00000000000E+00 -0.73402477778E+03  0.73402477778E+03  0.00000000000E+00 0. -1.
         24    1    1    2    0    0  0.69413023352E+02 -0.14651908327E+03 -0.19606434716E+03  0.26682288837E+03  0.80419002446E+02 0.  1.
        -24    1    1    2    0    0 -0.69413023352E+02  0.14651908327E+03 -0.48628865437E+03  0.51887366565E+03  0.80419002446E+02 0. -1.
<mgrwt>
<rscale>  0 0.18097852E+03</rscale>
<asrwt>0</asrwt>
<pdfrwt beam="1">  1        1 0.11292687E+00 0.18097852E+03</pdfrwt>
<pdfrwt beam="2">  1       -1 0.79495051E-02 0.18097852E+03</pdfrwt>
<totfact> 0.22642667E+03</totfact>
</mgrwt>
</event>
<event>
 4    1  0.1437859E-001  0.9280605E+02  0.7546771E-02  0.1296195E+00
         -4   -1    0    0    0  501 -0.00000000000E+00  0.00000000000E+00  0.20262751123E+03  0.20262751123E+03  0.00000000000E+00 0.  1.
          4   -1    0    0  501    0  0.00000000000E+00 -0.00000000000E+00 -0.73699403185E+02  0.73699403185E+02  0.00000000000E+00 0. -1.
         24    1    1    2    0    0  0.28940473697E+02 -0.36168982144E+02 -0.25421506661E+02  0.96224816146E+02  0.80419002446E+02 0. -1.
        -24    1    1    2    0    0 -0.28940473697E+02  0.36168982144E+02  0.15434961471E+03  0.18010209827E+03  0.80419002446E+02 0.  1.
<mgrwt>
<rscale>  0 0.92806046E+02</rscale>
<asrwt>0</asrwt>
<pdfrwt beam="1">  1        4 0.11338370E-01 0.92806046E+02</pdfrwt>
<pdfrwt beam="2">  1       -4 0.31173463E-01 0.92806046E+02</pdfrwt>
<totfact> 0.91738161E+02</totfact>
</mgrwt>
</event>
<event>
 4    1  0.1437859E-001  0.1122996E+03  0.7546771E-02  0.1256370E+00
         -1   -1    0    0    0  501 -0.00000000000E+00  0.00000000000E+00  0.10908809027E+04  0.10908809027E+04  0.00000000000E+00 0.  1.
          1   -1    0    0  501    0  0.00000000000E+00 -0.00000000000E+00 -0.12807079785E+02  0.12807079785E+02  0.00000000000E+00 0. -1.
         24    1    1    2    0    0 -0.69604649280E+02 -0.36044248471E+02  0.71119925027E+03  0.72001082255E+03  0.80419002446E+02 0.  0.
        -24    1    1    2    0    0  0.69604649280E+02  0.36044248471E+02  0.36687457269E+03  0.38367715998E+03  0.80419002446E+02 0. -1.
<mgrwt>
<rscale>  0 0.11229965E+03</rscale>
<asrwt>0</asrwt>
<pdfrwt beam="1">  1        1 0.19703208E-02 0.11229965E+03</pdfrwt>
<pdfrwt beam="2">  1       -1 0.16782776E+00 0.11229965E+03</pdfrwt>
<totfact> 0.16605505E+03</totfact>
</mgrwt>
</event>
<event>
 4    1  0.1437859E-001  0.1089407E+03  0.7546771E-02  0.1262544E+00
         -2   -1    0    0    0  501 -0.00000000000E+00  0.00000000000E+00  0.12043931516E+03  0.12043931516E+03  0.00000000000E+00 0.  1.
          2   -1    0    0  501    0  0.00000000000E+00 -0.00000000000E+00 -0.11736624469E+03  0.11736624469E+03  0.00000000000E+00 0. -1.
         24    1    1    2    0    0 -0.15364891192E+02 -0.71866330658E+02 -0.46085135561E+02  0.11828738326E+03  0.80419002446E+02 0. -1.
        -24    1    1    2    0    0  0.15364891192E+02  0.71866330658E+02  0.49158206030E+02  0.11951817660E+03  0.80419002446E+02 0.  0.
<mgrwt>
<rscale>  0 0.10894065E+03</rscale>
<asrwt>0</asrwt>
<pdfrwt beam="1">  1        2 0.18056345E-01 0.10894065E+03</pdfrwt>
<pdfrwt beam="2">  1       -2 0.18529125E-01 0.10894065E+03</pdfrwt>
<totfact> 0.69807175E+03</totfact>
</mgrwt>
</event>
<event>
 4    1  0.1437859E-001  0.9176745E+02  0.7546771E-02  0.1298627E+00
          2   -1    0    0  501    0  0.00000000000E+00  0.00000000000E+00  0.22445402995E+04  0.22445402995E+04  0.00000000000E+00 0. -1.
         -2   -1    0    0    0  501 -0.00000000000E+00 -0.00000000000E+00 -0.69019188732E+01  0.69019188732E+01  0.00000000000E+00 0.  1.
         24    1    1    2    0    0 -0.37853472020E+01 -0.44042258154E+02  0.18793262398E+04  0.18815654070E+04  0.80419002446E+02 0. -1.
        -24    1    1    2    0    0  0.37853472020E+01  0.44042258154E+02  0.35831214090E+03  0.36987681142E+03  0.80419002446E+02 0.  1.
<mgrwt>
<rscale>  0 0.91767452E+02</rscale>
<asrwt>0</asrwt>
<pdfrwt beam="1">  1        2 0.34531331E+00 0.91767452E+02</pdfrwt>
<pdfrwt beam="2">  1       -2 0.10618355E-02 0.91767452E+02</pdfrwt>
<totfact> 0.10480922E+04</totfact>
</mgrwt>
</event>
<event>
 4    1  0.1437859E-001  0.8626365E+02  0.7546771E-02  0.1312161E+00
          1   -1    0    0  501    0  0.00000000000E+00  0.00000000000E+00  0.22007051138E+03  0.22007051138E+03  0.00000000000E+00 0. -1.
         -1   -1    0    0    0  501 -0.00000000000E+00 -0.00000000000E+00 -0.49681562481E+02  0.49681562481E+02  0.00000000000E+00 0.  1.
         24    1    1    2    0    0  0.20075921268E+02 -0.23898923878E+02  0.89698640033E+01  0.86728747206E+02  0.80419002446E+02 0.  1.
        -24    1    1    2    0    0 -0.20075921268E+02  0.23898923878E+02  0.16141908490E+03  0.18302332666E+03  0.80419002446E+02 0. -1.
<mgrwt>
<rscale>  0 0.86263649E+02</rscale>
<asrwt>0</asrwt>
<pdfrwt beam="1">  1        1 0.33857001E-01 0.86263649E+02</pdfrwt>
<pdfrwt beam="2">  1       -1 0.76433174E-02 0.86263649E+02</pdfrwt>
<totfact> 0.10848300E+04</totfact>
</mgrwt>
</event>
<event>
 4    1  0.1437859E-001  0.2073370E+03  0.7546771E-02  0.1143692E+00
         -1   -1    0    0    0  501 -0.00000000000E+00  0.00000000000E+00  0.11497978567E+04  0.11497978567E+04  0.00000000000E+00 0.  1.
          1   -1    0    0  501    0  0.00000000000E+00 -0.00000000000E+00 -0.37722562137E+02  0.37722562137E+02  0.00000000000E+00 0. -1.
         24    1    1    2    0    0  0.94840941232E+02  0.16591139706E+03  0.61195751203E+03  0.64612739324E+03  0.80419002446E+02 0.  1.
        -24    1    1    2    0    0 -0.94840941232E+02 -0.16591139706E+03  0.50011778257E+03  0.54139302564E+03  0.80419002446E+02 0. -1.
<mgrwt>
<rscale>  0 0.20733695E+03</rscale>
<asrwt>0</asrwt>
<pdfrwt beam="1">  1        1 0.58034720E-02 0.20733695E+03</pdfrwt>
<pdfrwt beam="2">  1       -1 0.17689195E+00 0.20733695E+03</pdfrwt>
<totfact> 0.32595849E+02</totfact>
</mgrwt>
</event>
<event>
 4    1  0.1437859E-001  0.1432794E+03  0.7546771E-02  0.1208983E+00
          1   -1    0    0  501    0  0.00000000000E+00  0.00000000000E+00  0.76691098375E+02  0.76691098375E+02  0.00000000000E+00 0. -1.
         -1   -1    0    0    0  501 -0.00000000000E+00 -0.00000000000E+00 -0.68073279604E+03  0.68073279604E+03  0.00000000000E+00 0.  1.
         24    1    1    2    0    0 -0.75423951420E+02  0.91504093491E+02 -0.59702036071E+03  0.61397255528E+03  0.80419002446E+02 0.  1.
        -24    1    1    2    0    0  0.75423951420E+02 -0.91504093491E+02 -0.70213369526E+01  0.14345133914E+03  0.80419002446E+02 0. -1.
<mgrwt>
<rscale>  0 0.14327940E+03</rscale>
<asrwt>0</asrwt>
<pdfrwt beam="1">  1        1 0.11798630E-01 0.14327940E+03</pdfrwt>
<pdfrwt beam="2">  1       -1 0.10472813E+00 0.14327940E+03</pdfrwt>
<totfact> 0.46628052E+02</totfact>
</mgrwt>
</event>
<event>
 4    1  0.1437859E-001  0.1138321E+03  0.7546771E-02  0.1253634E+00
         -2   -1    0    0    0  501 -0.00000000000E+00  0.00000000000E+00  0.27643744463E+02  0.27643744463E+02  0.00000000000E+00 0.  1.
          2   -1    0    0  501    0  0.00000000000E+00 -0.00000000000E+00 -0.12644288028E+04  0.12644288028E+04  0.00000000000E+00 0. -1.
         24    1    1    2    0    0  0.55416962098E+02 -0.58476354692E+02 -0.11308776122E+04  0.11365922371E+04  0.80419002446E+02 0. -1.
        -24    1    1    2    0    0 -0.55416962098E+02  0.58476354692E+02 -0.10590744619E+03  0.15548031019E+03  0.80419002446E+02 0.  1.
<mgrwt>
<rscale>  0 0.11383207E+03</rscale>
<asrwt>0</asrwt>
<pdfrwt beam="1">  1        2 0.19452747E+00 0.11383207E+03</pdfrwt>
<pdfrwt beam="2">  1       -2 0.42528846E-02 0.11383207E+03</pdfrwt>
<totfact> 0.45020446E+03</totfact>
</mgrwt>
</event>
<event>
 4    1  0.1437859E-001  0.1110718E+03  0.7546771E-02  0.1258598E+00
         -3   -1    0    0    0  501 -0.00000000000E+00  0.00000000000E+00  0.12868973822E+04  0.12868973822E+04  0.00000000000E+00 0.  1.
          3   -1    0    0  501    0  0.00000000000E+00 -0.00000000000E+00 -0.11285903572E+02  0.11285903572E+02  0.00000000000E+00 0. -1.
         24    1    1    2    0    0  0.27399193180E+02 -0.71547329699E+02  0.88967499208E+03  0.89658158784E+03  0.80419002446E+02 0.  1.
        -24    1    1    2    0    0 -0.27399193180E+02  0.71547329699E+02  0.38593648653E+03  0.40160169791E+03  0.80419002446E+02 0. -1.
<mgrwt>
<rscale>  0 0.11107183E+03</rscale>
<asrwt>0</asrwt>
<pdfrwt beam="1">  1        3 0.17362939E-02 0.11107183E+03</pdfrwt>
<pdfrwt beam="2">  1       -3 0.19798410E+00 0.11107183E+03</pdfrwt>
<totfact> 0.44288887E+02</totfact>
</mgrwt>
</event>
<event>
 4    1  0.1437859E-001  0.8360866E+02  0.7546771E-02  0.1319112E+00
          1   -1    0    0  501    0  0.00000000000E+00  0.00000000000E+00  0.96727924863E+02  0.96727924863E+02  0.00000000000E+00 0. -1.
         -1   -1    0    0    0  501 -0.00000000000E+00 -0.00000000000E+00 -0.84111289188E+03  0.84111289188E+03  0.00000000000E+00 0.  1.
         24    1    1    2    0    0 -0.20712364232E+02 -0.97051490214E+01 -0.82051560732E+03  0.82476437226E+03  0.80419002446E+02 0.  1.
        -24    1    1    2    0    0  0.20712364232E+02  0.97051490214E+01  0.76130640299E+02  0.11307644448E+03  0.80419002446E+02 0. -1.
<mgrwt>
<rscale>  0 0.83608659E+02</rscale>
<asrwt>0</asrwt>
<pdfrwt beam="1">  1        1 0.14881219E-01 0.83608659E+02</pdfrwt>
<pdfrwt beam="2">  1       -1 0.12940199E+00 0.83608659E+02</pdfrwt>
<totfact> 0.21179940E+02</totfact>
</mgrwt>
</event>
<event>
 4    1  0.1437859E-001  0.8749093E+02  0.7546771E-02  0.1309044E+00
         -2   -1    0    0    0  501 -0.00000000000E+00  0.00000000000E+00  0.12550074273E+02  0.12550074273E+02  0.00000000000E+00 0.  1.
          2   -1    0    0  501    0  0.00000000000E+00 -0.00000000000E+00 -0.61947227445E+03  0.61947227445E+03  0.00000000000E+00 0. -1.
         24    1    1    2    0    0  0.32752440913E+02 -0.10710931082E+02 -0.34268271426E+03  0.35367514055E+03  0.80419002446E+02 0. -1.
        -24    1    1    2    0    0 -0.32752440913E+02  0.10710931082E+02 -0.26423948591E+03  0.27834720817E+03  0.80419002446E+02 0.  0.
<mgrwt>
<rscale>  0 0.87490927E+02</rscale>
<asrwt>0</asrwt>
<pdfrwt beam="1">  1        2 0.95303391E-01 0.87490927E+02</pdfrwt>
<pdfrwt beam="2">  1       -2 0.19307814E-02 0.87490927E+02</pdfrwt>
<totfact> 0.35308028E+04</totfact>
</mgrwt>
</event>
<event>
 4    1  0.1437859E-001  0.1198388E+03  0.7546771E-02  0.1243363E+00
         -2   -1    0    0    0  501 -0.00000000000E+00  0.00000000000E+00  0.72641601714E+01  0.72641601714E+01  0.00000000000E+00 0.  1.
          2   -1    0    0  501    0  0.00000000000E+00 -0.00000000000E+00 -0.33655031369E+04  0.33655031369E+04  0.00000000000E+00 0. -1.
         24    1    1    2    0    0  0.50592294931E+02  0.73037947420E+02 -0.27623049074E+04  0.27649032062E+04  0.80419002446E+02 0.  0.
        -24    1    1    2    0    0 -0.50592294931E+02 -0.73037947420E+02 -0.59593406929E+03  0.60786409086E+03  0.80419002446E+02 0.  1.
<mgrwt>
<rscale>  0 0.11983880E+03</rscale>
<asrwt>0</asrwt>
<pdfrwt beam="1">  1        2 0.51777019E+00 0.11983880E+03</pdfrwt>
<pdfrwt beam="2">  1       -2 0.11175621E-02 0.11983880E+03</pdfrwt>
<totfact> 0.23139669E+03</totfact>
</mgrwt>
</event>
<event>
 4    1  0.1437859E-001  0.1284610E+03  0.7546771E-02  0.1229757E+00
          2   -1    0    0  501    0  0.00000000000E+00  0.00000000000E+00  0.21167305622E+04  0.21167305622E+04  0.00000000000E+00 0. -1.
         -2   -1    0    0    0  501 -0.00000000000E+00 -0.00000000000E+00 -0.96742534086E+01  0.96742534086E+01  0.00000000000E+00 0.  1.
         24    1    1    2    0    0 -0.98734450588E+02 -0.16926834175E+02  0.15219894572E+04  0.15274011043E+04  0.80419002446E+02 0. -1.
        -24    1    1    2    0    0  0.98734450588E+02  0.16926834175E+02  0.58506685155E+03  0.59900371133E+03  0.80419002446E+02 0.  1.
<mgrwt>
<rscale>  0 0.12846099E+03</rscale>
<asrwt>0</asrwt>
<pdfrwt beam="1">  1        2 0.32565049E+00 0.12846099E+03</pdfrwt>
<pdfrwt beam="2">  1       -2 0.14883484E-02 0.12846099E+03</pdfrwt>
<totfact> 0.75978590E+03</totfact>
</mgrwt>
</event>
<event>
 4    1  0.1437859E-001  0.9673507E+02  0.7546771E-02  0.1287315E+00
          1   -1    0    0  501    0  0.00000000000E+00  0.00000000000E+00  0.32608883884E+03  0.32608883884E+03  0.00000000000E+00 0. -1.
         -1   -1    0    0    0  501 -0.00000000000E+00 -0.00000000000E+00 -0.40853439953E+02  0.40853439953E+02  0.00000000000E+00 0.  1.
         24    1    1    2    0    0  0.29212251149E+01 -0.53683549368E+02  0.42534302204E+02  0.10567326931E+03  0.80419002446E+02 0.  1.
        -24    1    1    2    0    0 -0.29212251149E+01  0.53683549368E+02  0.24270109668E+03  0.26126900948E+03  0.80419002446E+02 0. -1.
<mgrwt>
<rscale>  0 0.96735066E+02</rscale>
<asrwt>0</asrwt>
<pdfrwt beam="1">  1        1 0.50167512E-01 0.96735066E+02</pdfrwt>
<pdfrwt beam="2">  1       -1 0.62851448E-02 0.96735066E+02</pdfrwt>
<totfact> 0.90603527E+03</totfact>
</mgrwt>
</event>
<event>
 4    1  0.1437859E-001  0.9246133E+02  0.7546771E-02  0.1296998E+00
         -1   -1    0    0    0  501 -0.00000000000E+00  0.00000000000E+00  0.43102439481E+01  0.43102439481E+01  0.00000000000E+00 0.  1.
          1   -1    0    0  501    0  0.00000000000E+00 -0.00000000000E+00 -0.28175621952E+04  0.28175621952E+04  0.00000000000E+00 0. -1.
         24    1    1    2    0    0  0.85048304026E+01  0.44827996445E+02 -0.63893533809E+03  0.64559078651E+03  0.80419002446E+02 0.  1.
        -24    1    1    2    0    0 -0.85048304026E+01 -0.44827996445E+02 -0.21743166132E+04  0.21762816527E+04  0.80419002446E+02 0. -1.
<mgrwt>
<rscale>  0 0.92461329E+02</rscale>
<asrwt>0</asrwt>
<pdfrwt beam="1">  1        1 0.43347203E+00 0.92461329E+02</pdfrwt>
<pdfrwt beam="2">  1       -1 0.66311305E-03 0.92461329E+02</pdfrwt>
<totfact> 0.32887944E+03</totfact>
</mgrwt>
</event>
<event>
 4    1  0.1437859E-001  0.1340786E+03  0.7546771E-02  0.1221526E+00
         -2   -1    0    0    0  501 -0.00000000000E+00  0.00000000000E+00  0.28852817742E+02  0.28852817742E+02  0.00000000000E+00 0.  1.
          2   -1    0    0  501    0  0.00000000000E+00 -0.00000000000E+00 -0.62712294240E+03  0.62712294240E+03  0.00000000000E+00 0. -1.
         24    1    1    2    0    0  0.73590316266E+02 -0.78066071269E+02 -0.27273805995E+03  0.30391299977E+03  0.80419002446E+02 0. -1.
        -24    1    1    2    0    0 -0.73590316266E+02  0.78066071269E+02 -0.32553206470E+03  0.35206276036E+03  0.80419002446E+02 0.  1.
<mgrwt>
<rscale>  0 0.13407858E+03</rscale>
<asrwt>0</asrwt>
<pdfrwt beam="1">  1        2 0.96480438E-01 0.13407860E+03</pdfrwt>
<pdfrwt beam="2">  1       -2 0.44388957E-02 0.13407860E+03</pdfrwt>
<totfact> 0.10722051E+04</totfact>
</mgrwt>
</event>
<event>
 4    1  0.1437859E-001  0.9179848E+02  0.7546771E-02  0.1298554E+00
         -2   -1    0    0    0  501 -0.00000000000E+00  0.00000000000E+00  0.26327916234E+02  0.26327916234E+02  0.00000000000E+00 0.  1.
          2   -1    0    0  501    0  0.00000000000E+00 -0.00000000000E+00 -0.32476904078E+03  0.32476904078E+03  0.00000000000E+00 0. -1.
         24    1    1    2    0    0  0.33109637258E+02 -0.29385329583E+02 -0.17032085918E+03  0.19348425440E+03  0.80419002446E+02 0.  0.
        -24    1    1    2    0    0 -0.33109637258E+02  0.29385329583E+02 -0.12812026537E+03  0.15761270262E+03  0.80419002446E+02 0.  1.
<mgrwt>
<rscale>  0 0.91798484E+02</rscale>
<asrwt>0</asrwt>
<pdfrwt beam="1">  1        2 0.49964463E-01 0.91798484E+02</pdfrwt>
<pdfrwt beam="2">  1       -2 0.40504490E-02 0.91798484E+02</pdfrwt>
<totfact> 0.24201123E+04</totfact>
</mgrwt>
</event>
<event>
 4    1  0.1437859E-001  0.8115377E+02  0.7546771E-02  0.1325809E+00
         -2   -1    0    0    0  501 -0.00000000000E+00  0.00000000000E+00  0.21449216494E+02  0.21449216494E+02  0.00000000000E+00 0.  1.
          2   -1    0    0  501    0  0.00000000000E+00 -0.00000000000E+00 -0.64954562121E+03  0.64954562121E+03  0.00000000000E+00 0. -1.
         24    1    1    2    0    0 -0.13614660515E+01  0.10810382398E+02 -0.55766839624E+03  0.56354234453E+03  0.80419002446E+02 0.  0.
        -24    1    1    2    0    0  0.13614660515E+01 -0.10810382398E+02 -0.70428008476E+02  0.10745249318E+03  0.80419002446E+02 0.  1.
<mgrwt>
<rscale>  0 0.81153767E+02</rscale>
<asrwt>0</asrwt>
<pdfrwt beam="1">  1        2 0.99930093E-01 0.81153767E+02</pdfrwt>
<pdfrwt beam="2">  1       -2 0.32998795E-02 0.81153767E+02</pdfrwt>
<totfact> 0.15322557E+04</totfact>
</mgrwt>
</event>
<event>
 4    1  0.1437859E-001  0.8311721E+02  0.7546771E-02  0.1320431E+00
         -2   -1    0    0    0  501 -0.00000000000E+00  0.00000000000E+00  0.11071469200E+02  0.11071469200E+02  0.00000000000E+00 0.  1.
          2   -1    0    0  501    0  0.00000000000E+00 -0.00000000000E+00 -0.11422349441E+04  0.11422349441E+04  0.00000000000E+00 0. -1.
         24    1    1    2    0    0  0.88254987198E+01  0.19062159927E+02 -0.95400486886E+03  0.95761879740E+03  0.80419002446E+02 0.  0.
        -24    1    1    2    0    0 -0.88254987198E+01 -0.19062159927E+02 -0.17715860604E+03  0.19568761590E+03  0.80419002446E+02 0.  0.
<mgrwt>
<rscale>  0 0.83117214E+02</rscale>
<asrwt>0</asrwt>
<pdfrwt beam="1">  1        2 0.17572833E+00 0.83117214E+02</pdfrwt>
<pdfrwt beam="2">  1       -2 0.17033041E-02 0.83117214E+02</pdfrwt>
<totfact> 0.19474785E+04</totfact>
</mgrwt>
</event>
<event>
 4    1  0.1437859E-001  0.9389750E+02  0.7546771E-02  0.1293679E+00
         -2   -1    0    0    0  501 -0.00000000000E+00  0.00000000000E+00  0.21358166056E+02  0.21358166056E+02  0.00000000000E+00 0.  1.
          2   -1    0    0  501    0  0.00000000000E+00 -0.00000000000E+00 -0.57520464036E+03  0.57520464036E+03  0.00000000000E+00 0. -1.
         24    1    1    2    0    0  0.46589975857E+02  0.13375336991E+02 -0.43541567249E+03  0.44542513321E+03  0.80419002446E+02 0.  1.
        -24    1    1    2    0    0 -0.46589975857E+02 -0.13375336991E+02 -0.11843080182E+03  0.15113767321E+03  0.80419002446E+02 0.  1.
<mgrwt>
<rscale>  0 0.93897505E+02</rscale>
<asrwt>0</asrwt>
<pdfrwt beam="1">  1        2 0.88493012E-01 0.93897505E+02</pdfrwt>
<pdfrwt beam="2">  1       -2 0.32858720E-02 0.93897505E+02</pdfrwt>
<totfact> 0.17910491E+04</totfact>
</mgrwt>
</event>
<event>
 4    1  0.1437859E-001  0.2065231E+03  0.7546771E-02  0.1144349E+00
         -1   -1    0    0    0  501 -0.00000000000E+00  0.00000000000E+00  0.20780958034E+02  0.20780958034E+02  0.00000000000E+00 0.  1.
          1   -1    0    0  501    0  0.00000000000E+00 -0.00000000000E+00 -0.21003354075E+04  0.21003354075E+04  0.00000000000E+00 0. -1.
         24    1    1    2    0    0 -0.19986440595E+02 -0.18916959216E+03 -0.87963464764E+03  0.90355349686E+03  0.80419002446E+02 0.  1.
        -24    1    1    2    0    0  0.19986440595E+02  0.18916959216E+03 -0.11999198018E+04  0.12175628687E+04  0.80419002446E+02 0. -1.
<mgrwt>
<rscale>  0 0.20652314E+03</rscale>
<asrwt>0</asrwt>
<pdfrwt beam="1">  1        1 0.32312865E+00 0.20652314E+03</pdfrwt>
<pdfrwt beam="2">  1       -1 0.31970692E-02 0.20652314E+03</pdfrwt>
<totfact> 0.10028012E+03</totfact>
</mgrwt>
</event>
<event>
 4    1  0.1437859E-001  0.1000989E+03  0.7546771E-02  0.1280088E+00
          3   -1    0    0  501    0  0.00000000000E+00  0.00000000000E+00  0.16941607551E+02  0.16941607551E+02  0.00000000000E+00 0. -1.
         -3   -1    0    0    0  501 -0.00000000000E+00 -0.00000000000E+00 -0.64042401132E+03  0.64042401132E+03  0.00000000000E+00 0.  1.
         24    1    1    2    0    0  0.58632863532E+02 -0.10712874500E+02 -0.40265077527E+03  0.41490654508E+03  0.80419002446E+02 0.  1.
        -24    1    1    2    0    0 -0.58632863532E+02  0.10712874500E+02 -0.22083162850E+03  0.24245907380E+03  0.80419002446E+02 0. -1.
<mgrwt>
<rscale>  0 0.10009892E+03</rscale>
<asrwt>0</asrwt>
<pdfrwt beam="1">  1        3 0.26064011E-02 0.10009892E+03</pdfrwt>
<pdfrwt beam="2">  1       -3 0.98526774E-01 0.10009892E+03</pdfrwt>
<totfact> 0.12959476E+03</totfact>
</mgrwt>
</event>
<event>
 4    1  0.1437859E-001  0.1041285E+03  0.7546771E-02  0.1271846E+00
         -2   -1    0    0    0  501 -0.00000000000E+00  0.00000000000E+00  0.15822921580E+02  0.15822921580E+02  0.00000000000E+00 0.  1.
          2   -1    0    0  501    0  0.00000000000E+00 -0.00000000000E+00 -0.88624941214E+03  0.88624941214E+03  0.00000000000E+00 0. -1.
         24    1    1    2    0    0 -0.66031901430E+02  0.39128545693E+01 -0.22041772238E+03  0.24377594371E+03  0.80419002446E+02 0.  0.
        -24    1    1    2    0    0  0.66031901430E+02 -0.39128545693E+01 -0.65000876817E+03  0.65829639000E+03  0.80419002446E+02 0.  0.
<mgrwt>
<rscale>  0 0.10412848E+03</rscale>
<asrwt>0</asrwt>
<pdfrwt beam="1">  1        2 0.13634609E+00 0.10412850E+03</pdfrwt>
<pdfrwt beam="2">  1       -2 0.24342951E-02 0.10412850E+03</pdfrwt>
<totfact> 0.16755497E+04</totfact>
</mgrwt>
</event>
<event>
 4    1  0.1437859E-001  0.1025867E+03  0.7546771E-02  0.1274949E+00
          1   -1    0    0  501    0  0.00000000000E+00  0.00000000000E+00  0.43648846663E+02  0.43648846663E+02  0.00000000000E+00 0. -1.
         -1   -1    0    0    0  501 -0.00000000000E+00 -0.00000000000E+00 -0.83266290211E+03  0.83266290211E+03  0.00000000000E+00 0.  1.
         24    1    1    2    0    0  0.56340597541E+02 -0.29707668718E+02 -0.76381788716E+03  0.77067618960E+03  0.80419002446E+02 0.  1.
        -24    1    1    2    0    0 -0.56340597541E+02  0.29707668718E+02 -0.25196168289E+02  0.10563555918E+03  0.80419002446E+02 0. -1.
<mgrwt>
<rscale>  0 0.10258667E+03</rscale>
<asrwt>0</asrwt>
<pdfrwt beam="1">  1        1 0.67152068E-02 0.10258667E+03</pdfrwt>
<pdfrwt beam="2">  1       -1 0.12810199E+00 0.10258667E+03</pdfrwt>
<totfact> 0.61605082E+02</totfact>
</mgrwt>
</event>
<event>
 4    1  0.1437859E-001  0.9720453E+02  0.7546771E-02  0.1286287E+00
         -2   -1    0    0    0  501 -0.00000000000E+00  0.00000000000E+00  0.56946247686E+02  0.56946247686E+02  0.00000000000E+00 0.  1.
          2   -1    0    0  501    0  0.00000000000E+00 -0.00000000000E+00 -0.23456676747E+03  0.23456676747E+03  0.00000000000E+00 0. -1.
         24    1    1    2    0    0 -0.53757211280E+02 -0.95742435482E+01 -0.16765881415E+03  0.19379937518E+03  0.80419002446E+02 0.  1.
        -24    1    1    2    0    0  0.53757211280E+02  0.95742435482E+01 -0.99617056379E+01  0.97713639978E+02  0.80419002446E+02 0.  0.
<mgrwt>
<rscale>  0 0.97204526E+02</rscale>
<asrwt>0</asrwt>
<pdfrwt beam="1">  1        2 0.36087195E-01 0.97204526E+02</pdfrwt>
<pdfrwt beam="2">  1       -2 0.87609613E-02 0.97204526E+02</pdfrwt>
<totfact> 0.10737835E+04</totfact>
</mgrwt>
</event>
<event>
 4    1  0.1437859E-001  0.8131167E+02  0.7546771E-02  0.1325370E+00
         -2   -1    0    0    0  501 -0.00000000000E+00  0.00000000000E+00  0.36259673213E+01  0.36259673213E+01  0.00000000000E+00 0.  1.
          2   -1    0    0  501    0  0.00000000000E+00 -0.00000000000E+00 -0.21453420903E+04  0.21453420903E+04  0.00000000000E+00 0. -1.
         24    1    1    2    0    0 -0.17923598106E+01 -0.11881018317E+02 -0.14870952558E+04  0.14893165839E+04  0.80419002446E+02 0. -1.
        -24    1    1    2    0    0  0.17923598106E+01  0.11881018317E+02 -0.65462086717E+03  0.65965147376E+03  0.80419002446E+02 0.  1.
<mgrwt>
<rscale>  0 0.81311666E+02</rscale>
<asrwt>0</asrwt>
<pdfrwt beam="1">  1        2 0.33005316E+00 0.81311666E+02</pdfrwt>
<pdfrwt beam="2">  1       -2 0.55784023E-03 0.81311666E+02</pdfrwt>
<totfact> 0.28940108E+04</totfact>
</mgrwt>
</event>
<event>
 4    1  0.1437859E-001  0.9044157E+02  0.7546771E-02  0.1301786E+00
          1   -1    0    0  501    0  0.00000000000E+00  0.00000000000E+00  0.13491017668E+04  0.13491017668E+04  0.00000000000E+00 0. -1.
         -1   -1    0    0    0  501 -0.00000000000E+00 -0.00000000000E+00 -0.13492342765E+02  0.13492342765E+02  0.00000000000E+00 0.  1.
         24    1    1    2    0    0 -0.27984423661E+02 -0.30484982297E+02  0.16225202605E+03  0.18575628664E+03  0.80419002446E+02 0.  1.
        -24    1    1    2    0    0  0.27984423661E+02  0.30484982297E+02  0.11733573980E+04  0.11768378229E+04  0.80419002446E+02 0. -1.
<mgrwt>
<rscale>  0 0.90441573E+02</rscale>
<asrwt>0</asrwt>
<pdfrwt beam="1">  1        1 0.20755401E+00 0.90441573E+02</pdfrwt>
<pdfrwt beam="2">  1       -1 0.20757461E-02 0.90441573E+02</pdfrwt>
<totfact> 0.56507511E+03</totfact>
</mgrwt>
</event>
<event>
 4    1  0.1437859E-001  0.1039984E+03  0.7546771E-02  0.1272106E+00
          1   -1    0    0  501    0  0.00000000000E+00  0.00000000000E+00  0.36338434993E+02  0.36338434993E+02  0.00000000000E+00 0. -1.
         -1   -1    0    0    0  501 -0.00000000000E+00 -0.00000000000E+00 -0.60597735774E+03  0.60597735774E+03  0.00000000000E+00 0.  1.
         24    1    1    2    0    0 -0.38114012725E+02  0.53812406977E+02 -0.51390911210E+03  0.52432646754E+03  0.80419002446E+02 0.  1.
        -24    1    1    2    0    0  0.38114012725E+02 -0.53812406977E+02 -0.55729810654E+02  0.11798932520E+03  0.80419002446E+02 0. -1.
<mgrwt>
<rscale>  0 0.10399841E+03</rscale>
<asrwt>0</asrwt>
<pdfrwt beam="1">  1        1 0.55905292E-02 0.10399841E+03</pdfrwt>
<pdfrwt beam="2">  1       -1 0.93227273E-01 0.10399841E+03</pdfrwt>
<totfact> 0.16162017E+03</totfact>
</mgrwt>
</event>
<event>
 4    1  0.1437859E-001  0.1102569E+03  0.7546771E-02  0.1260095E+00
         -1   -1    0    0    0  501 -0.00000000000E+00  0.00000000000E+00  0.26125273291E+02  0.26125273291E+02  0.00000000000E+00 0.  1.
          1   -1    0    0  501    0  0.00000000000E+00 -0.00000000000E+00 -0.54240118583E+03  0.54240118583E+03  0.00000000000E+00 0. -1.
         24    1    1    2    0    0  0.72545581142E+02  0.20652142237E+02 -0.15097686181E+03  0.18695079855E+03  0.80419002446E+02 0.  1.
        -24    1    1    2    0    0 -0.72545581142E+02 -0.20652142237E+02 -0.36529905073E+03  0.38157566057E+03  0.80419002446E+02 0. -1.
<mgrwt>
<rscale>  0 0.11025692E+03</rscale>
<asrwt>0</asrwt>
<pdfrwt beam="1">  1        1 0.83446336E-01 0.11025692E+03</pdfrwt>
<pdfrwt beam="2">  1       -1 0.40192728E-02 0.11025692E+03</pdfrwt>
<totfact> 0.92906029E+03</totfact>
</mgrwt>
</event>
<event>
 4    1  0.1437859E-001  0.1140824E+03  0.7546771E-02  0.1253191E+00
         -3   -1    0    0    0  501 -0.00000000000E+00  0.00000000000E+00  0.62307780255E+03  0.62307780255E+03  0.00000000000E+00 0.  1.
          3   -1    0    0  501    0  0.00000000000E+00 -0.00000000000E+00 -0.21402785792E+02  0.21402785792E+02  0.00000000000E+00 0. -1.
         24    1    1    2    0    0  0.59105323390E+02  0.55264332042E+02  0.35081680598E+03  0.36890003113E+03  0.80419002446E+02 0.  1.
        -24    1    1    2    0    0 -0.59105323390E+02 -0.55264332042E+02  0.25085821077E+03  0.27558055722E+03  0.80419002446E+02 0. -1.
<mgrwt>
<rscale>  0 0.11408243E+03</rscale>
<asrwt>0</asrwt>
<pdfrwt beam="1">  1        3 0.32927368E-02 0.11408243E+03</pdfrwt>
<pdfrwt beam="2">  1       -3 0.95858110E-01 0.11408243E+03</pdfrwt>
<totfact> 0.98514833E+02</totfact>
</mgrwt>
</event>
<event>
 4    1  0.1437859E-001  0.8579940E+02  0.7546771E-02  0.1313355E+00
         -1   -1    0    0    0  501 -0.00000000000E+00  0.00000000000E+00  0.41200234591E+02  0.41200234591E+02  0.00000000000E+00 0.  1.
          1   -1    0    0  501    0  0.00000000000E+00 -0.00000000000E+00 -0.20659699402E+03  0.20659699402E+03  0.00000000000E+00 0. -1.
         24    1    1    2    0    0  0.51217417360E+01  0.29463351029E+02 -0.37151192998E+02  0.93497317543E+02  0.80419002446E+02 0.  1.
        -24    1    1    2    0    0 -0.51217417360E+01 -0.29463351029E+02 -0.12824556643E+03  0.15429991107E+03  0.80419002446E+02 0. -1.
<mgrwt>
<rscale>  0 0.85799401E+02</rscale>
<asrwt>0</asrwt>
<pdfrwt beam="1">  1        1 0.31784153E-01 0.85799401E+02</pdfrwt>
<pdfrwt beam="2">  1       -1 0.63384975E-02 0.85799401E+02</pdfrwt>
<totfact> 0.15453288E+04</totfact>
</mgrwt>
</event>
<event>
 4    1  0.1437859E-001  0.9785381E+02  0.7546771E-02  0.1284875E+00
         -2   -1    0    0    0  501 -0.00000000000E+00  0.00000000000E+00  0.10376718159E+02  0.10376718159E+02  0.00000000000E+00 0.  1.
          2   -1    0    0  501    0  0.00000000000E+00 -0.00000000000E+00 -0.11143547344E+04  0.11143547344E+04  0.00000000000E+00 0. -1.
         24    1    1    2    0    0 -0.58732799824E+01 -0.55440571608E+02 -0.78516441478E+03  0.79123860282E+03  0.80419002446E+02 0.  0.
        -24    1    1    2    0    0  0.58732799824E+01  0.55440571608E+02 -0.31881360147E+03  0.33349284976E+03  0.80419002446E+02 0.  1.
<mgrwt>
<rscale>  0 0.97853811E+02</rscale>
<asrwt>0</asrwt>
<pdfrwt beam="1">  1        2 0.17143919E+00 0.97853811E+02</pdfrwt>
<pdfrwt beam="2">  1       -2 0.15964182E-02 0.97853811E+02</pdfrwt>
<totfact> 0.22442121E+04</totfact>
</mgrwt>
</event>
<event>
 4    1  0.1437859E-001  0.8415706E+02  0.7546771E-02  0.1317652E+00
          2   -1    0    0  501    0  0.00000000000E+00  0.00000000000E+00  0.31586651370E+04  0.31586651370E+04  0.00000000000E+00 0. -1.
         -2   -1    0    0    0  501 -0.00000000000E+00 -0.00000000000E+00 -0.28970324815E+01  0.28970324815E+01  0.00000000000E+00 0.  1.
         24    1    1    2    0    0 -0.22030912438E+02 -0.11394486764E+02  0.23294284681E+04  0.23309481760E+04  0.80419002446E+02 0. -1.
        -24    1    1    2    0    0  0.22030912438E+02  0.11394486764E+02  0.82633963641E+03  0.83061399343E+03  0.80419002446E+02 0.  1.
<mgrwt>
<rscale>  0 0.84157064E+02</rscale>
<asrwt>0</asrwt>
<pdfrwt beam="1">  1        2 0.48594573E+00 0.84157064E+02</pdfrwt>
<pdfrwt beam="2">  1       -2 0.44569983E-03 0.84157064E+02</pdfrwt>
<totfact> 0.11313694E+04</totfact>
</mgrwt>
</event>
<event>
 4    1  0.1437859E-001  0.8174614E+02  0.7546771E-02  0.1324168E+00
         -2   -1    0    0    0  501 -0.00000000000E+00  0.00000000000E+00  0.52652604891E+01  0.52652604891E+01  0.00000000000E+00 0.  1.
          2   -1    0    0  501    0  0.00000000000E+00 -0.00000000000E+00 -0.24868234651E+04  0.24868234651E+04  0.00000000000E+00 0. -1.
         24    1    1    2    0    0 -0.20789381111E+01  0.14522184246E+02 -0.21126969200E+04  0.21142778218E+04  0.80419002446E+02 0. -1.
        -24    1    1    2    0    0  0.20789381111E+01 -0.14522184246E+02 -0.36886128459E+03  0.37781090382E+03  0.80419002446E+02 0.  0.
<mgrwt>
<rscale>  0 0.81746142E+02</rscale>
<asrwt>0</asrwt>
<pdfrwt beam="1">  1        2 0.38258822E+00 0.81746142E+02</pdfrwt>
<pdfrwt beam="2">  1       -2 0.81004009E-03 0.81746142E+02</pdfrwt>
<totfact> 0.11471034E+04</totfact>
</mgrwt>
</event>
<event>
 4    1  0.1437859E-001  0.9077917E+02  0.7546771E-02  0.1300976E+00
         -1   -1    0    0    0  501 -0.00000000000E+00  0.00000000000E+00  0.13802929398E+03  0.13802929398E+03  0.00000000000E+00 0.  1.
          1   -1    0    0  501    0  0.00000000000E+00 -0.00000000000E+00 -0.74907506717E+02  0.74907506717E+02  0.00000000000E+00 0. -1.
         24    1    1    2    0    0 -0.16378705708E+02  0.38799222159E+02  0.79526996127E+02  0.12068720192E+03  0.80419002446E+02 0.  1.
        -24    1    1    2    0    0  0.16378705708E+02 -0.38799222159E+02 -0.16405208868E+02  0.92249598770E+02  0.80419002446E+02 0. -1.
<mgrwt>
<rscale>  0 0.90779169E+02</rscale>
<asrwt>0</asrwt>
<pdfrwt beam="1">  1        1 0.11524232E-01 0.90779169E+02</pdfrwt>
<pdfrwt beam="2">  1       -1 0.21235276E-01 0.90779169E+02</pdfrwt>
<totfact> 0.88024530E+03</totfact>
</mgrwt>
</event>
<event>
 4    1  0.1437859E-001  0.1259527E+03  0.7546771E-02  0.1233588E+00
         -2   -1    0    0    0  501 -0.00000000000E+00  0.00000000000E+00  0.27420853761E+02  0.27420853761E+02  0.00000000000E+00 0.  1.
          2   -1    0    0  501    0  0.00000000000E+00 -0.00000000000E+00 -0.20345701930E+04  0.20345701930E+04  0.00000000000E+00 0. -1.
         24    1    1    2    0    0 -0.43115127260E+02  0.86821428095E+02 -0.18757533551E+04  0.18799773243E+04  0.80419002446E+02 0. -1.
        -24    1    1    2    0    0  0.43115127260E+02 -0.86821428095E+02 -0.13139598409E+03  0.18201372246E+03  0.80419002446E+02 0.  1.
<mgrwt>
<rscale>  0 0.12595273E+03</rscale>
<asrwt>0</asrwt>
<pdfrwt beam="1">  1        2 0.31301080E+00 0.12595273E+03</pdfrwt>
<pdfrwt beam="2">  1       -2 0.42185929E-02 0.12595273E+03</pdfrwt>
<totfact> 0.18284082E+03</totfact>
</mgrwt>
</event>
<event>
 4    1  0.1437859E-001  0.1207086E+03  0.7546771E-02  0.1241933E+00
          2   -1    0    0  501    0  0.00000000000E+00  0.00000000000E+00  0.10692462079E+03  0.10692462079E+03  0.00000000000E+00 0. -1.
         -2   -1    0    0    0  501 -0.00000000000E+00 -0.00000000000E+00 -0.13948479607E+03  0.13948479607E+03  0.00000000000E+00 0.  1.
         24    1    1    2    0    0 -0.44535989884E+02 -0.78229796705E+02  0.24254433492E+01  0.12073298728E+03  0.80419002446E+02 0.  0.
        -24    1    1    2    0    0  0.44535989884E+02  0.78229796705E+02 -0.34985618622E+02  0.12567642958E+03  0.80419002446E+02 0.  1.
<mgrwt>
<rscale>  0 0.12070862E+03</rscale>
<asrwt>0</asrwt>
<pdfrwt beam="1">  1        2 0.16449942E-01 0.12070862E+03</pdfrwt>
<pdfrwt beam="2">  1       -2 0.21459199E-01 0.12070862E+03</pdfrwt>
<totfact> 0.61118448E+03</totfact>
</mgrwt>
</event>
<event>
 4    1  0.1437859E-001  0.8652029E+02  0.7546771E-02  0.1311504E+00
          1   -1    0    0  501    0  0.00000000000E+00  0.00000000000E+00  0.15053456869E+03  0.15053456869E+03  0.00000000000E+00 0. -1.
         -1   -1    0    0    0  501 -0.00000000000E+00 -0.00000000000E+00 -0.59595457862E+02  0.59595457862E+02  0.00000000000E+00 0.  1.
         24    1    1    2    0    0 -0.21210897139E+02  0.23846230402E+02  0.27174578803E+01  0.86562956243E+02  0.80419002446E+02 0.  1.
        -24    1    1    2    0    0  0.21210897139E+02 -0.23846230402E+02  0.88221652950E+02  0.12356707031E+03  0.80419002446E+02 0. -1.
<mgrwt>
<rscale>  0 0.86520291E+02</rscale>
<asrwt>0</asrwt>
<pdfrwt beam="1">  1        1 0.23159164E-01 0.86520291E+02</pdfrwt>
<pdfrwt beam="2">  1       -1 0.91685320E-02 0.86520291E+02</pdfrwt>
<totfact> 0.13195592E+04</totfact>
</mgrwt>
</event>
<event>
 4    1  0.1437859E-001  0.1446879E+03  0.7546771E-02  0.1207157E+00
          2   -1    0    0  501    0  0.00000000000E+00  0.00000000000E+00  0.24921319170E+03  0.24921319170E+03  0.00000000000E+00 0. -1.
         -2   -1    0    0    0  501 -0.00000000000E+00 -0.00000000000E+00 -0.12398651577E+03  0.12398651577E+03  0.00000000000E+00 0.  1.
         24    1    1    2    0    0 -0.11062266237E+03 -0.47222980141E+02  0.16857915525E+03  0.22215654575E+03  0.80419002446E+02 0. -1.
        -24    1    1    2    0    0  0.11062266237E+03  0.47222980141E+02 -0.43352479320E+02  0.15104316172E+03  0.80419002446E+02 0.  1.
<mgrwt>
<rscale>  0 0.14468794E+03</rscale>
<asrwt>0</asrwt>
<pdfrwt beam="1">  1        2 0.38340491E-01 0.14468794E+03</pdfrwt>
<pdfrwt beam="2">  1       -2 0.19074849E-01 0.14468794E+03</pdfrwt>
<totfact> 0.29622589E+03</totfact>
</mgrwt>
</event>
<event>
 4    1  0.1437859E-001  0.8686730E+02  0.7546771E-02  0.1310620E+00
         -1   -1    0    0    0  501 -0.00000000000E+00  0.00000000000E+00  0.14453606621E+04  0.14453606621E+04  0.00000000000E+00 0.  1.
          1   -1    0    0  501    0  0.00000000000E+00 -0.00000000000E+00 -0.52219610568E+01  0.52219610568E+01  0.00000000000E+00 0. -1.
         24    1    1    2    0    0  0.32787929157E+02  0.19142249379E+01  0.73091781886E+03  0.73606167299E+03  0.80419002446E+02 0.  0.
        -24    1    1    2    0    0 -0.32787929157E+02 -0.19142249379E+01  0.70922088216E+03  0.71452095015E+03  0.80419002446E+02 0. -1.
<mgrwt>
<rscale>  0 0.86867304E+02</rscale>
<asrwt>0</asrwt>
<pdfrwt beam="1">  1        1 0.80337978E-03 0.86867304E+02</pdfrwt>
<pdfrwt beam="2">  1       -1 0.22236286E+00 0.86867304E+02</pdfrwt>
<totfact> 0.24710979E+03</totfact>
</mgrwt>
</event>
<event>
 4    1  0.1437859E-001  0.8756661E+02  0.7546771E-02  0.1308854E+00
         -2   -1    0    0    0  501 -0.00000000000E+00  0.00000000000E+00  0.30615961142E+02  0.30615961142E+02  0.00000000000E+00 0.  1.
          2   -1    0    0  501    0  0.00000000000E+00 -0.00000000000E+00 -0.26558067609E+03  0.26558067609E+03  0.00000000000E+00 0. -1.
         24    1    1    2    0    0  0.14072519531E+02 -0.31664803341E+02 -0.15282618001E+03  0.17613560920E+03  0.80419002446E+02 0.  1.
        -24    1    1    2    0    0 -0.14072519531E+02  0.31664803341E+02 -0.82138534934E+02  0.12006102803E+03  0.80419002446E+02 0.  0.
<mgrwt>
<rscale>  0 0.87566612E+02</rscale>
<asrwt>0</asrwt>
<pdfrwt beam="1">  1        2 0.40858564E-01 0.87566612E+02</pdfrwt>
<pdfrwt beam="2">  1       -2 0.47101481E-02 0.87566612E+02</pdfrwt>
<totfact> 0.23775953E+04</totfact>
</mgrwt>
</event>
<event>
 4    1  0.1437859E-001  0.1011082E+03  0.7546771E-02  0.1277983E+00
         -2   -1    0    0    0  501 -0.00000000000E+00  0.00000000000E+00  0.10551392631E+03  0.10551392631E+03  0.00000000000E+00 0.  1.
          2   -1    0    0  501    0  0.00000000000E+00 -0.00000000000E+00 -0.15011255697E+04  0.15011255697E+04  0.00000000000E+00 0. -1.
         24    1    1    2    0    0 -0.57598512948E+02  0.20929872465E+02 -0.14747690655E+04  0.14782309227E+04  0.80419002446E+02 0. -1.
        -24    1    1    2    0    0  0.57598512948E+02 -0.20929872465E+02  0.79157422152E+02  0.12840857328E+03  0.80419002446E+02 0.  1.
<mgrwt>
<rscale>  0 0.10110818E+03</rscale>
<asrwt>0</asrwt>
<pdfrwt beam="1">  1        2 0.23094242E+00 0.10110818E+03</pdfrwt>
<pdfrwt beam="2">  1       -2 0.16232910E-01 0.10110818E+03</pdfrwt>
<totfact> 0.42635280E+02</totfact>
</mgrwt>
</event>
<event>
 4    1  0.1437859E-001  0.8334434E+02  0.7546771E-02  0.1319820E+00
         -2   -1    0    0    0  501 -0.00000000000E+00  0.00000000000E+00  0.23821256312E+02  0.23821256312E+02  0.00000000000E+00 0.  1.
          2   -1    0    0  501    0  0.00000000000E+00 -0.00000000000E+00 -0.11756633208E+04  0.11756633208E+04  0.00000000000E+00 0. -1.
         24    1    1    2    0    0 -0.21707461691E+02 -0.28017709987E+01 -0.10959946932E+04  0.10991590636E+04  0.80419002446E+02 0. -1.
        -24    1    1    2    0    0  0.21707461691E+02  0.28017709987E+01 -0.55847371338E+02  0.10032551347E+03  0.80419002446E+02 0.  1.
<mgrwt>
<rscale>  0 0.83344345E+02</rscale>
<asrwt>0</asrwt>
<pdfrwt beam="1">  1        2 0.18087125E+00 0.83344345E+02</pdfrwt>
<pdfrwt beam="2">  1       -2 0.36648092E-02 0.83344345E+02</pdfrwt>
<totfact> 0.61831158E+03</totfact>
</mgrwt>
</event>
<event>
 4    1  0.1437859E-001  0.1184532E+03  0.7546771E-02  0.1245671E+00
          2   -1    0    0  501    0  0.00000000000E+00  0.00000000000E+00  0.13787726152E+02  0.13787726152E+02  0.00000000000E+00 0. -1.
         -2   -1    0    0    0  501 -0.00000000000E+00 -0.00000000000E+00 -0.13936795733E+04  0.13936795733E+04  0.00000000000E+00 0.  1.
         24    1    1    2    0    0  0.86872642726E+02 -0.41341427968E+01 -0.32440639388E+03  0.34535586217E+03  0.80419002446E+02 0. -1.
        -24    1    1    2    0    0 -0.86872642726E+02  0.41341427968E+01 -0.10554854532E+04  0.10621114372E+04  0.80419002446E+02 0.  1.
<mgrwt>
<rscale>  0 0.11845321E+03</rscale>
<asrwt>0</asrwt>
<pdfrwt beam="1">  1        2 0.21211881E-02 0.11845321E+03</pdfrwt>
<pdfrwt beam="2">  1       -2 0.21441230E+00 0.11845321E+03</pdfrwt>
<totfact> 0.57480533E+02</totfact>
</mgrwt>
</event>
<event>
 4    1  0.1437859E-001  0.1309620E+03  0.7546771E-02  0.1226035E+00
         -2   -1    0    0    0  501 -0.00000000000E+00  0.00000000000E+00  0.17580038167E+04  0.17580038167E+04  0.00000000000E+00 0.  1.
          2   -1    0    0  501    0  0.00000000000E+00 -0.00000000000E+00 -0.34710341198E+03  0.34710341198E+03  0.00000000000E+00 0. -1.
         24    1    1    2    0    0 -0.99447525382E+02  0.28178472159E+02 -0.33220600608E+03  0.35708806061E+03  0.80419002446E+02 0. -1.
        -24    1    1    2    0    0  0.99447525382E+02 -0.28178472159E+02  0.17431064108E+04  0.17480191681E+04  0.80419002446E+02 0.  1.
<mgrwt>
<rscale>  0 0.13096203E+03</rscale>
<asrwt>0</asrwt>
<pdfrwt beam="1">  1        2 0.53400526E-01 0.13096203E+03</pdfrwt>
<pdfrwt beam="2">  1       -2 0.27046212E+00 0.13096203E+03</pdfrwt>
<totfact> 0.55040910E+00</totfact>
</mgrwt>
</event>
<event>
 4    1  0.1437859E-001  0.9013780E+02  0.7546771E-02  0.1302518E+00
          1   -1    0    0  501    0  0.00000000000E+00  0.00000000000E+00  0.31550712875E+03  0.31550712875E+03  0.00000000000E+00 0. -1.
         -1   -1    0    0    0  501 -0.00000000000E+00 -0.00000000000E+00 -0.27973570169E+02  0.27973570169E+02  0.00000000000E+00 0.  1.
         24    1    1    2    0    0 -0.16043216770E+02  0.37419536912E+02  0.95364626388E+02  0.13122208072E+03  0.80419002446E+02 0.  1.
        -24    1    1    2    0    0  0.16043216770E+02 -0.37419536912E+02  0.19216893220E+03  0.21225861821E+03  0.80419002446E+02 0. -1.
<mgrwt>
<rscale>  0 0.90137797E+02</rscale>
<asrwt>0</asrwt>
<pdfrwt beam="1">  1        1 0.48539556E-01 0.90137797E+02</pdfrwt>
<pdfrwt beam="2">  1       -1 0.43036264E-02 0.90137797E+02</pdfrwt>
<totfact> 0.16337259E+04</totfact>
</mgrwt>
</event>
<event>
 4    1  0.1437859E-001  0.1567186E+03  0.7546771E-02  0.1192452E+00
         -3   -1    0    0    0  501 -0.00000000000E+00  0.00000000000E+00  0.27490320814E+03  0.27490320814E+03  0.00000000000E+00 0.  1.
          3   -1    0    0  501    0  0.00000000000E+00 -0.00000000000E+00 -0.96385163695E+02  0.96385163695E+02  0.00000000000E+00 0. -1.
         24    1    1    2    0    0  0.12533809463E+03  0.48824934999E+02  0.13943820791E+03  0.20977068914E+03  0.80419002446E+02 0. -1.
        -24    1    1    2    0    0 -0.12533809463E+03 -0.48824934999E+02  0.39079836532E+02  0.16151768269E+03  0.80419002446E+02 0.  1.
<mgrwt>
<rscale>  0 0.15671863E+03</rscale>
<asrwt>0</asrwt>
<pdfrwt beam="1">  1        3 0.14828487E-01 0.15671863E+03</pdfrwt>
<pdfrwt beam="2">  1       -3 0.42292801E-01 0.15671863E+03</pdfrwt>
<totfact> 0.49912238E+02</totfact>
</mgrwt>
</event>
<event>
 4    1  0.1437859E-001  0.1182507E+03  0.7546771E-02  0.1246011E+00
         -2   -1    0    0    0  501 -0.00000000000E+00  0.00000000000E+00  0.11686374574E+03  0.11686374574E+03  0.00000000000E+00 0.  1.
          2   -1    0    0  501    0  0.00000000000E+00 -0.00000000000E+00 -0.12131052583E+03  0.12131052583E+03  0.00000000000E+00 0. -1.
         24    1    1    2    0    0 -0.68770239485E+02  0.52788710416E+02  0.11692795205E+02  0.11882731673E+03  0.80419002446E+02 0. -1.
        -24    1    1    2    0    0  0.68770239485E+02 -0.52788710416E+02 -0.16139575288E+02  0.11934695485E+03  0.80419002446E+02 0.  0.
<mgrwt>
<rscale>  0 0.11825064E+03</rscale>
<asrwt>0</asrwt>
<pdfrwt beam="1">  1        2 0.18663158E-01 0.11825065E+03</pdfrwt>
<pdfrwt beam="2">  1       -2 0.17979038E-01 0.11825065E+03</pdfrwt>
<totfact> 0.71137893E+03</totfact>
</mgrwt>
</event>
<event>
 4    1  0.1437859E-001  0.9896439E+02  0.7546771E-02  0.1282489E+00
          2   -1    0    0  501    0  0.00000000000E+00  0.00000000000E+00  0.36793845686E+04  0.36793845686E+04  0.00000000000E+00 0. -1.
         -2   -1    0    0    0  501 -0.00000000000E+00 -0.00000000000E+00 -0.26543569837E+02  0.26543569837E+02  0.00000000000E+00 0.  1.
         24    1    1    2    0    0 -0.11609122937E+02  0.56497455369E+02  0.35840210537E+04  0.35853871289E+04  0.80419002446E+02 0. -1.
        -24    1    1    2    0    0  0.11609122937E+02 -0.56497455369E+02  0.68819944989E+02  0.12054100954E+03  0.80419002446E+02 0.  1.
<mgrwt>
<rscale>  0 0.98964388E+02</rscale>
<asrwt>0</asrwt>
<pdfrwt beam="1">  1        2 0.56605876E+00 0.98964388E+02</pdfrwt>
<pdfrwt beam="2">  1       -2 0.40836291E-02 0.98964388E+02</pdfrwt>
<totfact> 0.22476242E+02</totfact>
</mgrwt>
</event>
<event>
 4    1  0.1437859E-001  0.1048361E+03  0.7546771E-02  0.1270443E+00
         -2   -1    0    0    0  501 -0.00000000000E+00  0.00000000000E+00  0.53483992709E+02  0.53483992709E+02  0.00000000000E+00 0.  1.
          2   -1    0    0  501    0  0.00000000000E+00 -0.00000000000E+00 -0.20587946989E+03  0.20587946989E+03  0.00000000000E+00 0. -1.
         24    1    1    2    0    0  0.41699564324E+02  0.52768574848E+02 -0.70579927889E+02  0.12638084638E+03  0.80419002446E+02 0. -1.
        -24    1    1    2    0    0 -0.41699564324E+02 -0.52768574848E+02 -0.81815549290E+02  0.13298261622E+03  0.80419002446E+02 0.  0.
<mgrwt>
<rscale>  0 0.10483604E+03</rscale>
<asrwt>0</asrwt>
<pdfrwt beam="1">  1        2 0.31673764E-01 0.10483605E+03</pdfrwt>
<pdfrwt beam="2">  1       -2 0.82283066E-02 0.10483605E+03</pdfrwt>
<totfact> 0.13679388E+04</totfact>
</mgrwt>
</event>
<event>
 4    1  0.1437859E-001  0.8098180E+02  0.7546771E-02  0.1326288E+00
         -1   -1    0    0    0  501 -0.00000000000E+00  0.00000000000E+00  0.10292635536E+03  0.10292635536E+03  0.00000000000E+00 0.  1.
          1   -1    0    0  501    0  0.00000000000E+00 -0.00000000000E+00 -0.11628530003E+03  0.11628530003E+03  0.00000000000E+00 0. -1.
         24    1    1    2    0    0 -0.66846220370E+01 -0.67934851253E+01  0.67015438634E+02  0.10511479716E+03  0.80419002446E+02 0.  1.
        -24    1    1    2    0    0  0.66846220370E+01  0.67934851253E+01 -0.80374383301E+02  0.11409685823E+03  0.80419002446E+02 0.  0.
<mgrwt>
<rscale>  0 0.80981798E+02</rscale>
<asrwt>0</asrwt>
<pdfrwt beam="1">  1        1 0.17890046E-01 0.80981798E+02</pdfrwt>
<pdfrwt beam="2">  1       -1 0.15834824E-01 0.80981798E+02</pdfrwt>
<totfact> 0.78739281E+03</totfact>
</mgrwt>
</event>
<event>
 4    1  0.1437859E-001  0.8633458E+02  0.7546771E-02  0.1311979E+00
          2   -1    0    0  501    0  0.00000000000E+00  0.00000000000E+00  0.36143859626E+02  0.36143859626E+02  0.00000000000E+00 0. -1.
         -2   -1    0    0    0  501 -0.00000000000E+00 -0.00000000000E+00 -0.27003147538E+03  0.27003147538E+03  0.00000000000E+00 0.  1.
         24    1    1    2    0    0 -0.12694875258E+01 -0.31382030611E+02 -0.42526224494E+02  0.96240008146E+02  0.80419002446E+02 0. -1.
        -24    1    1    2    0    0  0.12694875258E+01  0.31382030611E+02 -0.19136139126E+03  0.20993532686E+03  0.80419002446E+02 0.  1.
<mgrwt>
<rscale>  0 0.86334578E+02</rscale>
<asrwt>0</asrwt>
<pdfrwt beam="1">  1        2 0.55605936E-02 0.86334578E+02</pdfrwt>
<pdfrwt beam="2">  1       -2 0.41543305E-01 0.86334578E+02</pdfrwt>
<totfact> 0.68435599E+03</totfact>
</mgrwt>
</event>
<event>
 4    1  0.1437859E-001  0.8215859E+02  0.7546771E-02  0.1323035E+00
         -3   -1    0    0    0  501 -0.00000000000E+00  0.00000000000E+00  0.51021440310E+01  0.51021440310E+01  0.00000000000E+00 0.  1.
          3   -1    0    0  501    0  0.00000000000E+00 -0.00000000000E+00 -0.25450635462E+04  0.25450635462E+04  0.00000000000E+00 0. -1.
         24    1    1    2    0    0  0.48202520197E+01 -0.16111588425E+02 -0.38641357021E+03  0.39505123884E+03  0.80419002446E+02 0.  1.
        -24    1    1    2    0    0 -0.48202520197E+01  0.16111588425E+02 -0.21535478320E+04  0.21551144514E+04  0.80419002446E+02 0. -1.
<mgrwt>
<rscale>  0 0.82158591E+02</rscale>
<asrwt>0</asrwt>
<pdfrwt beam="1">  1        3 0.39154725E+00 0.82158591E+02</pdfrwt>
<pdfrwt beam="2">  1       -3 0.78494722E-03 0.82158591E+02</pdfrwt>
<totfact> 0.13680915E+02</totfact>
</mgrwt>
</event>
<event>
 4    1  0.1437859E-001  0.1334782E+03  0.7546771E-02  0.1222384E+00
          2   -1    0    0  501    0  0.00000000000E+00  0.00000000000E+00  0.11304992878E+04  0.11304992878E+04  0.00000000000E+00 0. -1.
         -2   -1    0    0    0  501 -0.00000000000E+00 -0.00000000000E+00 -0.18948377487E+02  0.18948377487E+02  0.00000000000E+00 0.  1.
         24    1    1    2    0    0 -0.25608459016E+02  0.10340893615E+03  0.79153713383E+03  0.80271255841E+03  0.80419002446E+02 0.  1.
        -24    1    1    2    0    0  0.25608459016E+02 -0.10340893615E+03  0.32001377653E+03  0.34673510692E+03  0.80419002446E+02 0. -1.
<mgrwt>
<rscale>  0 0.13347815E+03</rscale>
<asrwt>0</asrwt>
<pdfrwt beam="1">  1        2 0.17392292E+00 0.13347815E+03</pdfrwt>
<pdfrwt beam="2">  1       -2 0.29151359E-02 0.13347815E+03</pdfrwt>
<totfact> 0.93771013E+03</totfact>
</mgrwt>
</event>
<event>
 4    1  0.1437859E-001  0.9409375E+02  0.7546771E-02  0.1293230E+00
         -4   -1    0    0    0  501 -0.00000000000E+00  0.00000000000E+00  0.16628717084E+03  0.16628717084E+03  0.00000000000E+00 0.  1.
          4   -1    0    0  501    0  0.00000000000E+00 -0.00000000000E+00 -0.59713589716E+02  0.59713589716E+02  0.00000000000E+00 0. -1.
         24    1    1    2    0    0 -0.10359460281E+02  0.47739915255E+02  0.16089267039E+02  0.95459407049E+02  0.80419002446E+02 0. -1.
        -24    1    1    2    0    0  0.10359460281E+02 -0.47739915255E+02  0.90484314086E+02  0.13054135351E+03  0.80419002446E+02 0.  1.
<mgrwt>
<rscale>  0 0.94093750E+02</rscale>
<asrwt>0</asrwt>
<pdfrwt beam="1">  1        4 0.91867062E-02 0.94093750E+02</pdfrwt>
<pdfrwt beam="2">  1       -4 0.25582642E-01 0.94093750E+02</pdfrwt>
<totfact> 0.18908303E+03</totfact>
</mgrwt>
</event>
<event>
 4    1  0.1437859E-001  0.8370606E+02  0.7546771E-02  0.1318851E+00
         -2   -1    0    0    0  501 -0.00000000000E+00  0.00000000000E+00  0.22094807057E+02  0.22094807057E+02  0.00000000000E+00 0.  1.
          2   -1    0    0  501    0  0.00000000000E+00 -0.00000000000E+00 -0.11753213880E+04  0.11753213880E+04  0.00000000000E+00 0. -1.
         24    1    1    2    0    0 -0.14228498671E+02  0.18358621249E+02 -0.10882143320E+04  0.10914289429E+04  0.80419002446E+02 0.  0.
        -24    1    1    2    0    0  0.14228498671E+02 -0.18358621249E+02 -0.65012248980E+02  0.10598725216E+03  0.80419002446E+02 0.  1.
<mgrwt>
<rscale>  0 0.83706064E+02</rscale>
<asrwt>0</asrwt>
<pdfrwt beam="1">  1        2 0.18081873E+00 0.83706064E+02</pdfrwt>
<pdfrwt beam="2">  1       -2 0.33992001E-02 0.83706064E+02</pdfrwt>
<totfact> 0.69051234E+03</totfact>
</mgrwt>
</event>
<event>
 4    1  0.1437859E-001  0.9078763E+02  0.7546771E-02  0.1300955E+00
         -3   -1    0    0    0  501 -0.00000000000E+00  0.00000000000E+00  0.96566064786E+01  0.96566064786E+01  0.00000000000E+00 0.  1.
          3   -1    0    0  501    0  0.00000000000E+00 -0.00000000000E+00 -0.10815943158E+04  0.10815943158E+04  0.00000000000E+00 0. -1.
         24    1    1    2    0    0 -0.37555500771E+02 -0.19098747971E+02 -0.28543159589E+03  0.29952226912E+03  0.80419002446E+02 0.  1.
        -24    1    1    2    0    0  0.37555500771E+02  0.19098747971E+02 -0.78650611338E+03  0.79172865311E+03  0.80419002446E+02 0. -1.
<mgrwt>
<rscale>  0 0.90787630E+02</rscale>
<asrwt>0</asrwt>
<pdfrwt beam="1">  1        3 0.16639915E+00 0.90787630E+02</pdfrwt>
<pdfrwt beam="2">  1       -3 0.14856315E-02 0.90787630E+02</pdfrwt>
<totfact> 0.85984171E+02</totfact>
</mgrwt>
</event>
<event>
 4    1  0.1437859E-001  0.1010383E+03  0.7546771E-02  0.1278128E+00
         -2   -1    0    0    0  501 -0.00000000000E+00  0.00000000000E+00  0.13009046527E+02  0.13009046527E+02  0.00000000000E+00 0.  1.
          2   -1    0    0  501    0  0.00000000000E+00 -0.00000000000E+00 -0.79729408628E+03  0.79729408628E+03  0.00000000000E+00 0. -1.
         24    1    1    2    0    0 -0.47257007306E+02  0.38836795098E+02 -0.44297913635E+03  0.45435586558E+03  0.80419002446E+02 0. -1.
        -24    1    1    2    0    0  0.47257007306E+02 -0.38836795098E+02 -0.34130590340E+03  0.35594726722E+03  0.80419002446E+02 0.  1.
<mgrwt>
<rscale>  0 0.10103830E+03</rscale>
<asrwt>0</asrwt>
<pdfrwt beam="1">  1        2 0.12266061E+00 0.10103830E+03</pdfrwt>
<pdfrwt beam="2">  1       -2 0.20013921E-02 0.10103830E+03</pdfrwt>
<totfact> 0.25321110E+04</totfact>
</mgrwt>
</event>
<event>
 4    1  0.1437859E-001  0.8340515E+02  0.7546771E-02  0.1319657E+00
         -2   -1    0    0    0  501 -0.00000000000E+00  0.00000000000E+00  0.61930697333E+01  0.61930697333E+01  0.00000000000E+00 0.  1.
          2   -1    0    0  501    0  0.00000000000E+00 -0.00000000000E+00 -0.11308849848E+04  0.11308849848E+04  0.00000000000E+00 0. -1.
         24    1    1    2    0    0 -0.18573298295E+02  0.12009788848E+02 -0.60903473169E+03  0.61471922273E+03  0.80419002446E+02 0. -1.
        -24    1    1    2    0    0  0.18573298295E+02 -0.12009788848E+02 -0.51565718336E+03  0.52235883178E+03  0.80419002446E+02 0.  1.
<mgrwt>
<rscale>  0 0.83405146E+02</rscale>
<asrwt>0</asrwt>
<pdfrwt beam="1">  1        2 0.17398216E+00 0.83405146E+02</pdfrwt>
<pdfrwt beam="2">  1       -2 0.95278078E-03 0.83405146E+02</pdfrwt>
<totfact> 0.45056902E+04</totfact>
</mgrwt>
</event>
<event>
 4    1  0.1437859E-001  0.1631186E+03  0.7546771E-02  0.1185220E+00
          2   -1    0    0  501    0  0.00000000000E+00  0.00000000000E+00  0.37102658483E+04  0.37102658483E+04  0.00000000000E+00 0. -1.
         -2   -1    0    0    0  501 -0.00000000000E+00 -0.00000000000E+00 -0.38762080176E+02  0.38762080176E+02  0.00000000000E+00 0.  1.
         24    1    1    2    0    0  0.13996388291E+03  0.23464374933E+02  0.35280031646E+04  0.35317720780E+04  0.80419002446E+02 0. -1.
        -24    1    1    2    0    0 -0.13996388291E+03 -0.23464374933E+02  0.14350060352E+03  0.21725585050E+03  0.80419002446E+02 0.  1.
<mgrwt>
<rscale>  0 0.16311861E+03</rscale>
<asrwt>0</asrwt>
<pdfrwt beam="1">  1        2 0.57080985E+00 0.16311861E+03</pdfrwt>
<pdfrwt beam="2">  1       -2 0.59633999E-02 0.16311861E+03</pdfrwt>
<totfact> 0.11530363E+02</totfact>
</mgrwt>
</event>
<event>
 4    1  0.1437859E-001  0.8739888E+02  0.7546771E-02  0.1309276E+00
          2   -1    0    0  501    0  0.00000000000E+00  0.00000000000E+00  0.23796977370E+03  0.23796977370E+03  0.00000000000E+00 0. -1.
         -2   -1    0    0    0  501 -0.00000000000E+00 -0.00000000000E+00 -0.37695868437E+02  0.37695868437E+02  0.00000000000E+00 0.  1.
         24    1    1    2    0    0 -0.13031492978E+02  0.31646942591E+02  0.15324773807E+03  0.17641834928E+03  0.80419002446E+02 0. -1.
        -24    1    1    2    0    0  0.13031492978E+02 -0.31646942591E+02  0.47026167195E+02  0.99247292860E+02  0.80419002446E+02 0.  1.
<mgrwt>
<rscale>  0 0.87398883E+02</rscale>
<asrwt>0</asrwt>
<pdfrwt beam="1">  1        2 0.36610734E-01 0.87398883E+02</pdfrwt>
<pdfrwt beam="2">  1       -2 0.57993645E-02 0.87398883E+02</pdfrwt>
<totfact> 0.19574462E+04</totfact>
</mgrwt>
</event>
<event>
 4    1  0.1437859E-001  0.1191909E+03  0.7546771E-02  0.1244438E+00
         -2   -1    0    0    0  501 -0.00000000000E+00  0.00000000000E+00  0.18943169614E+03  0.18943169614E+03  0.00000000000E+00 0.  1.
          2   -1    0    0  501    0  0.00000000000E+00 -0.00000000000E+00 -0.76287402422E+02  0.76287402422E+02  0.00000000000E+00 0. -1.
         24    1    1    2    0    0  0.13246905135E+02  0.86970017343E+02  0.39281126952E+02  0.12549696132E+03  0.80419002446E+02 0. -1.
        -24    1    1    2    0    0 -0.13246905135E+02 -0.86970017343E+02  0.73863166763E+02  0.14022213724E+03  0.80419002446E+02 0.  0.
<mgrwt>
<rscale>  0 0.11919094E+03</rscale>
<asrwt>0</asrwt>
<pdfrwt beam="1">  1        2 0.11736524E-01 0.11919094E+03</pdfrwt>
<pdfrwt beam="2">  1       -2 0.29143338E-01 0.11919094E+03</pdfrwt>
<totfact> 0.53303230E+03</totfact>
</mgrwt>
</event>
<event>
 4    1  0.1437859E-001  0.1252454E+03  0.7546771E-02  0.1234686E+00
         -1   -1    0    0    0  501 -0.00000000000E+00  0.00000000000E+00  0.24052720891E+03  0.24052720891E+03  0.00000000000E+00 0.  1.
          1   -1    0    0  501    0  0.00000000000E+00 -0.00000000000E+00 -0.66117137916E+02  0.66117137916E+02  0.00000000000E+00 0. -1.
         24    1    1    2    0    0 -0.93057888983E+02  0.23652176027E+02  0.10509681400E+03  0.16349847828E+03  0.80419002446E+02 0. -1.
        -24    1    1    2    0    0  0.93057888983E+02 -0.23652176027E+02  0.69313257002E+02  0.14314586855E+03  0.80419002446E+02 0.  1.
<mgrwt>
<rscale>  0 0.12524541E+03</rscale>
<asrwt>0</asrwt>
<pdfrwt beam="1">  1        1 0.10171868E-01 0.12524541E+03</pdfrwt>
<pdfrwt beam="2">  1       -1 0.37004185E-01 0.12524541E+03</pdfrwt>
<totfact> 0.42337906E+03</totfact>
</mgrwt>
</event>
<event>
 4    1  0.1437859E-001  0.9860153E+02  0.7546771E-02  0.1283265E+00
          2   -1    0    0  501    0  0.00000000000E+00  0.00000000000E+00  0.22731294637E+03  0.22731294637E+03  0.00000000000E+00 0. -1.
         -2   -1    0    0    0  501 -0.00000000000E+00 -0.00000000000E+00 -0.43914963089E+02  0.43914963089E+02  0.00000000000E+00 0.  1.
         24    1    1    2    0    0  0.16498172852E+02 -0.54615491112E+02  0.69805009628E+02  0.12080975499E+03  0.80419002446E+02 0.  0.
        -24    1    1    2    0    0 -0.16498172852E+02  0.54615491112E+02  0.11359297365E+03  0.15041815447E+03  0.80419002446E+02 0.  1.
<mgrwt>
<rscale>  0 0.98601521E+02</rscale>
<asrwt>0</asrwt>
<pdfrwt beam="1">  1        2 0.34971222E-01 0.98601533E+02</pdfrwt>
<pdfrwt beam="2">  1       -2 0.67561483E-02 0.98601533E+02</pdfrwt>
<totfact> 0.16531432E+04</totfact>
</mgrwt>
</event>
<event>
 4    1  0.1437859E-001  0.8641302E+02  0.7546771E-02  0.1311778E+00
          3   -1    0    0  501    0  0.00000000000E+00  0.00000000000E+00  0.25765383220E+02  0.25765383220E+02  0.00000000000E+00 0. -1.
         -3   -1    0    0    0  501 -0.00000000000E+00 -0.00000000000E+00 -0.29012646122E+03  0.29012646122E+03  0.00000000000E+00 0.  1.
         24    1    1    2    0    0  0.31238840204E+02 -0.49118277225E+01 -0.12700952901E+03  0.15361844812E+03  0.80419002446E+02 0.  1.
        -24    1    1    2    0    0 -0.31238840204E+02  0.49118277225E+01 -0.13735154899E+03  0.16227339632E+03  0.80419002446E+02 0.  0.
<mgrwt>
<rscale>  0 0.86413014E+02</rscale>
<asrwt>0</asrwt>
<pdfrwt beam="1">  1        3 0.39639051E-02 0.86413025E+02</pdfrwt>
<pdfrwt beam="2">  1       -3 0.44634840E-01 0.86413025E+02</pdfrwt>
<totfact> 0.34359290E+03</totfact>
</mgrwt>
</event>
<event>
 4    1  0.1437859E-001  0.9322827E+02  0.7546771E-02  0.1295217E+00
          2   -1    0    0  501    0  0.00000000000E+00  0.00000000000E+00  0.10176837817E+03  0.10176837817E+03  0.00000000000E+00 0. -1.
         -2   -1    0    0    0  501 -0.00000000000E+00 -0.00000000000E+00 -0.13428783714E+03  0.13428783714E+03  0.00000000000E+00 0.  1.
         24    1    1    2    0    0  0.37692623007E+02 -0.28347136396E+02  0.54951110795E+02  0.10821799528E+03  0.80419002446E+02 0. -1.
        -24    1    1    2    0    0 -0.37692623007E+02  0.28347136396E+02 -0.87470569765E+02  0.12783822003E+03  0.80419002446E+02 0.  1.
<mgrwt>
<rscale>  0 0.93228268E+02</rscale>
<asrwt>0</asrwt>
<pdfrwt beam="1">  1        2 0.15656674E-01 0.93228268E+02</pdfrwt>
<pdfrwt beam="2">  1       -2 0.20659667E-01 0.93228268E+02</pdfrwt>
<totfact> 0.67619739E+03</totfact>
</mgrwt>
</event>
<event>
 4    1  0.1437859E-001  0.8645860E+02  0.7546771E-02  0.1311662E+00
          1   -1    0    0  501    0  0.00000000000E+00  0.00000000000E+00  0.10016805814E+02  0.10016805814E+02  0.00000000000E+00 0. -1.
         -1   -1    0    0    0  501 -0.00000000000E+00 -0.00000000000E+00 -0.16592819546E+04  0.16592819546E+04  0.00000000000E+00 0.  1.
         24    1    1    2    0    0 -0.89379154892E+01 -0.30462896268E+02 -0.14437682158E+04  0.14463546423E+04  0.80419002446E+02 0.  1.
        -24    1    1    2    0    0  0.89379154892E+01  0.30462896268E+02 -0.20549693299E+03  0.22294411813E+03  0.80419002446E+02 0. -1.
<mgrwt>
<rscale>  0 0.86458605E+02</rscale>
<asrwt>0</asrwt>
<pdfrwt beam="1">  1        1 0.15410471E-02 0.86458605E+02</pdfrwt>
<pdfrwt beam="2">  1       -1 0.25527414E+00 0.86458605E+02</pdfrwt>
<totfact> 0.62861837E+02</totfact>
</mgrwt>
</event>
<event>
 4    1  0.1437859E-001  0.9766058E+02  0.7546771E-02  0.1285294E+00
          2   -1    0    0  501    0  0.00000000000E+00  0.00000000000E+00  0.12191367180E+03  0.12191367180E+03  0.00000000000E+00 0. -1.
         -2   -1    0    0    0  501 -0.00000000000E+00 -0.00000000000E+00 -0.82941157982E+02  0.82941157982E+02  0.00000000000E+00 0.  1.
         24    1    1    2    0    0 -0.51058210352E+02 -0.21527375774E+02 -0.49193610257E+01  0.97784379219E+02  0.80419002446E+02 0.  0.
        -24    1    1    2    0    0  0.51058210352E+02  0.21527375774E+02  0.43891874843E+02  0.10707045056E+03  0.80419002446E+02 0.  0.
<mgrwt>
<rscale>  0 0.97660571E+02</rscale>
<asrwt>0</asrwt>
<pdfrwt beam="1">  1        2 0.18755949E-01 0.97660583E+02</pdfrwt>
<pdfrwt beam="2">  1       -2 0.12760178E-01 0.97660583E+02</pdfrwt>
<totfact> 0.12156086E+04</totfact>
</mgrwt>
</event>
<event>
 4    1  0.1437859E-001  0.8499074E+02  0.7546771E-02  0.1315457E+00
          1   -1    0    0  501    0  0.00000000000E+00  0.00000000000E+00  0.22594273098E+03  0.22594273098E+03  0.00000000000E+00 0. -1.
         -1   -1    0    0    0  501 -0.00000000000E+00 -0.00000000000E+00 -0.10418372272E+03  0.10418372272E+03  0.00000000000E+00 0.  1.
         24    1    1    2    0    0  0.21968292738E+02 -0.16540981662E+02 -0.76543605721E+02  0.11437809883E+03  0.80419002446E+02 0.  1.
        -24    1    1    2    0    0 -0.21968292738E+02  0.16540981662E+02  0.19830261399E+03  0.21574835487E+03  0.80419002446E+02 0. -1.
<mgrwt>
<rscale>  0 0.84990740E+02</rscale>
<asrwt>0</asrwt>
<pdfrwt beam="1">  1        1 0.34760420E-01 0.84990740E+02</pdfrwt>
<pdfrwt beam="2">  1       -1 0.16028265E-01 0.84990740E+02</pdfrwt>
<totfact> 0.34100721E+03</totfact>
</mgrwt>
</event>
<event>
 4    1  0.1437859E-001  0.9509618E+02  0.7546771E-02  0.1290960E+00
          1   -1    0    0  501    0  0.00000000000E+00  0.00000000000E+00  0.26868478636E+04  0.26868478636E+04  0.00000000000E+00 0. -1.
         -1   -1    0    0    0  501 -0.00000000000E+00 -0.00000000000E+00 -0.71746347625E+01  0.71746347625E+01  0.00000000000E+00 0.  1.
         24    1    1    2    0    0 -0.15568090323E+02  0.48308400237E+02  0.35838314204E+03  0.37078532795E+03  0.80419002446E+02 0.  1.
        -24    1    1    2    0    0  0.15568090323E+02 -0.48308400237E+02  0.23212900868E+04  0.23232371704E+04  0.80419002446E+02 0. -1.
<mgrwt>
<rscale>  0 0.95096177E+02</rscale>
<asrwt>0</asrwt>
<pdfrwt beam="1">  1        1 0.41336041E+00 0.95096177E+02</pdfrwt>
<pdfrwt beam="2">  1       -1 0.11037921E-02 0.95096177E+02</pdfrwt>
<totfact> 0.19572058E+03</totfact>
</mgrwt>
</event>
<event>
 4    1  0.1437859E-001  0.8790214E+02  0.7546771E-02  0.1308013E+00
          2   -1    0    0  501    0  0.00000000000E+00  0.00000000000E+00  0.28774901491E+03  0.28774901491E+03  0.00000000000E+00 0. -1.
         -2   -1    0    0    0  501 -0.00000000000E+00 -0.00000000000E+00 -0.32136457989E+02  0.32136457989E+02  0.00000000000E+00 0.  1.
         24    1    1    2    0    0  0.99207602003E+01  0.34075622772E+02  0.19266142878E+03  0.21176688043E+03  0.80419002446E+02 0. -1.
        -24    1    1    2    0    0 -0.99207602003E+01 -0.34075622772E+02  0.62951128141E+02  0.10811859248E+03  0.80419002446E+02 0.  1.
<mgrwt>
<rscale>  0 0.87902136E+02</rscale>
<asrwt>0</asrwt>
<pdfrwt beam="1">  1        2 0.44269078E-01 0.87902136E+02</pdfrwt>
<pdfrwt beam="2">  1       -2 0.49440706E-02 0.87902136E+02</pdfrwt>
<totfact> 0.20359368E+04</totfact>
</mgrwt>
</event>
<event>
 4    1  0.1437859E-001  0.1054350E+03  0.7546771E-02  0.1269265E+00
         -1   -1    0    0    0  501 -0.00000000000E+00  0.00000000000E+00  0.59249242394E+01  0.59249242394E+01  0.00000000000E+00 0.  1.
          1   -1    0    0  501    0  0.00000000000E+00 -0.00000000000E+00 -0.23193543963E+04  0.23193543963E+04  0.00000000000E+00 0. -1.
         24    1    1    2    0    0  0.68173475106E+02 -0.13010622427E+01 -0.16649016907E+04  0.16682368450E+04  0.80419002446E+02 0. -1.
        -24    1    1    2    0    0 -0.68173475106E+02  0.13010622427E+01 -0.64852778139E+03  0.65704247554E+03  0.80419002446E+02 0.  1.
<mgrwt>
<rscale>  0 0.10543498E+03</rscale>
<asrwt>0</asrwt>
<pdfrwt beam="1">  1        1 0.35682346E+00 0.10543499E+03</pdfrwt>
<pdfrwt beam="2">  1       -1 0.91152754E-03 0.10543499E+03</pdfrwt>
<totfact> 0.44381013E+03</totfact>
</mgrwt>
</event>
<event>
 4    1  0.1437859E-001  0.1385383E+03  0.7546771E-02  0.1215309E+00
          2   -1    0    0  501    0  0.00000000000E+00  0.00000000000E+00  0.28625969952E+04  0.28625969952E+04  0.00000000000E+00 0. -1.
         -2   -1    0    0    0  501 -0.00000000000E+00 -0.00000000000E+00 -0.89081477291E+01  0.89081477291E+01  0.00000000000E+00 0.  1.
         24    1    1    2    0    0 -0.32451781089E+02 -0.10803952104E+03  0.21409076227E+04  0.21453853549E+04  0.80419002446E+02 0. -1.
        -24    1    1    2    0    0  0.32451781089E+02  0.10803952104E+03  0.71278122479E+03  0.72611978803E+03  0.80419002446E+02 0.  1.
<mgrwt>
<rscale>  0 0.13853834E+03</rscale>
<asrwt>0</asrwt>
<pdfrwt beam="1">  1        2 0.44039881E+00 0.13853834E+03</pdfrwt>
<pdfrwt beam="2">  1       -2 0.13704865E-02 0.13853834E+03</pdfrwt>
<totfact> 0.34158370E+03</totfact>
</mgrwt>
</event>
<event>
 4    1  0.1437859E-001  0.8144240E+02  0.7546771E-02  0.1325007E+00
         -1   -1    0    0    0  501 -0.00000000000E+00  0.00000000000E+00  0.11887593754E+03  0.11887593754E+03  0.00000000000E+00 0.  1.
          1   -1    0    0  501    0  0.00000000000E+00 -0.00000000000E+00 -0.99566614420E+02  0.99566614420E+02  0.00000000000E+00 0. -1.
         24    1    1    2    0    0  0.27000361115E+01  0.12584036020E+02  0.82071422761E+02  0.11562258666E+03  0.80419002446E+02 0.  0.
        -24    1    1    2    0    0 -0.27000361115E+01 -0.12584036020E+02 -0.62762099643E+02  0.10281996530E+03  0.80419002446E+02 0. -1.
<mgrwt>
<rscale>  0 0.81442398E+02</rscale>
<asrwt>0</asrwt>
<pdfrwt beam="1">  1        1 0.15317941E-01 0.81442398E+02</pdfrwt>
<pdfrwt beam="2">  1       -1 0.18288606E-01 0.81442398E+02</pdfrwt>
<totfact> 0.76578171E+03</totfact>
</mgrwt>
</event>
<event>
 4    1  0.1437859E-001  0.8534491E+02  0.7546771E-02  0.1314533E+00
          1   -1    0    0  501    0  0.00000000000E+00  0.00000000000E+00  0.44543660201E+01  0.44543660201E+01  0.00000000000E+00 0. -1.
         -1   -1    0    0    0  501 -0.00000000000E+00 -0.00000000000E+00 -0.16600924053E+04  0.16600924053E+04  0.00000000000E+00 0.  1.
         24    1    1    2    0    0  0.22587391120E+02 -0.17502781502E+02 -0.92974473254E+03  0.93365358738E+03  0.80419002446E+02 0.  1.
        -24    1    1    2    0    0 -0.22587391120E+02  0.17502781502E+02 -0.72589330676E+03  0.73089318396E+03  0.80419002446E+02 0. -1.
<mgrwt>
<rscale>  0 0.85344909E+02</rscale>
<asrwt>0</asrwt>
<pdfrwt beam="1">  1        1 0.68528697E-03 0.85344909E+02</pdfrwt>
<pdfrwt beam="2">  1       -1 0.25539887E+00 0.85344909E+02</pdfrwt>
<totfact> 0.19228931E+03</totfact>
</mgrwt>
</event>
<event>
 4    1  0.1437859E-001  0.8340741E+02  0.7546771E-02  0.1319651E+00
          3   -1    0    0  501    0  0.00000000000E+00  0.00000000000E+00  0.47056313854E+02  0.47056313854E+02  0.00000000000E+00 0. -1.
         -3   -1    0    0    0  501 -0.00000000000E+00 -0.00000000000E+00 -0.21146453962E+03  0.21146453962E+03  0.00000000000E+00 0.  1.
         24    1    1    2    0    0  0.21700239887E+02  0.43220866988E+01 -0.15310632137E+03  0.17435120431E+03  0.80419002446E+02 0.  1.
        -24    1    1    2    0    0 -0.21700239887E+02 -0.43220866988E+01 -0.11301904400E+02  0.84169649174E+02  0.80419002446E+02 0. -1.
<mgrwt>
<rscale>  0 0.83407415E+02</rscale>
<asrwt>0</asrwt>
<pdfrwt beam="1">  1        3 0.72394330E-02 0.83407415E+02</pdfrwt>
<pdfrwt beam="2">  1       -3 0.32533005E-01 0.83407415E+02</pdfrwt>
<totfact> 0.24079393E+03</totfact>
</mgrwt>
</event>
<event>
 4    1  0.1437859E-001  0.1026263E+03  0.7546771E-02  0.1274868E+00
         -4   -1    0    0    0  501 -0.00000000000E+00  0.00000000000E+00  0.11627049996E+03  0.11627049996E+03  0.00000000000E+00 0.  1.
          4   -1    0    0  501    0  0.00000000000E+00 -0.00000000000E+00 -0.90721337243E+02  0.90721337243E+02  0.00000000000E+00 0. -1.
         24    1    1    2    0    0  0.62750243767E+02 -0.11284607999E+02  0.87357282774E+01  0.10299739984E+03  0.80419002446E+02 0. -1.
        -24    1    1    2    0    0 -0.62750243767E+02  0.11284607999E+02  0.16813434438E+02  0.10399443736E+03  0.80419002446E+02 0.  0.
<mgrwt>
<rscale>  0 0.10262627E+03</rscale>
<asrwt>0</asrwt>
<pdfrwt beam="1">  1        4 0.13957129E-01 0.10262627E+03</pdfrwt>
<pdfrwt beam="2">  1       -4 0.17887769E-01 0.10262627E+03</pdfrwt>
<totfact> 0.18147215E+03</totfact>
</mgrwt>
</event>
<event>
 4    1  0.1437859E-001  0.9129294E+02  0.7546771E-02  0.1299751E+00
          1   -1    0    0  501    0  0.00000000000E+00  0.00000000000E+00  0.22132253692E+03  0.22132253692E+03  0.00000000000E+00 0. -1.
         -1   -1    0    0    0  501 -0.00000000000E+00 -0.00000000000E+00 -0.19739490544E+03  0.19739490544E+03  0.00000000000E+00 0.  1.
         24    1    1    2    0    0 -0.56056238135E+01 -0.42845797492E+02 -0.17636931243E+03  0.19859641412E+03  0.80419002446E+02 0.  1.
        -24    1    1    2    0    0  0.56056238135E+01  0.42845797492E+02  0.20029694390E+03  0.22012102824E+03  0.80419002446E+02 0. -1.
<mgrwt>
<rscale>  0 0.91292942E+02</rscale>
<asrwt>0</asrwt>
<pdfrwt beam="1">  1        1 0.34049621E-01 0.91292942E+02</pdfrwt>
<pdfrwt beam="2">  1       -1 0.30368447E-01 0.91292942E+02</pdfrwt>
<totfact> 0.12582888E+03</totfact>
</mgrwt>
</event>
<event>
 4    1  0.1437859E-001  0.8925537E+02  0.7546771E-02  0.1304665E+00
          2   -1    0    0  501    0  0.00000000000E+00  0.00000000000E+00  0.31016021961E+03  0.31016021961E+03  0.00000000000E+00 0. -1.
         -2   -1    0    0    0  501 -0.00000000000E+00 -0.00000000000E+00 -0.33869652095E+02  0.33869652095E+02  0.00000000000E+00 0.  1.
         24    1    1    2    0    0  0.33151188670E+02 -0.20007576466E+02  0.22270357246E+03  0.23992374115E+03  0.80419002446E+02 0. -1.
        -24    1    1    2    0    0 -0.33151188670E+02  0.20007576466E+02  0.53586995059E+02  0.10410613056E+03  0.80419002446E+02 0.  1.
<mgrwt>
<rscale>  0 0.89255366E+02</rscale>
<asrwt>0</asrwt>
<pdfrwt beam="1">  1        2 0.47716955E-01 0.89255366E+02</pdfrwt>
<pdfrwt beam="2">  1       -2 0.52107159E-02 0.89255366E+02</pdfrwt>
<totfact> 0.17441212E+04</totfact>
</mgrwt>
</event>
<event>
 4    1  0.1437859E-001  0.9094853E+02  0.7546771E-02  0.1300571E+00
         -2   -1    0    0    0  501 -0.00000000000E+00  0.00000000000E+00  0.10768935097E+02  0.10768935097E+02  0.00000000000E+00 0.  1.
          2   -1    0    0  501    0  0.00000000000E+00 -0.00000000000E+00 -0.85798738514E+03  0.85798738514E+03  0.00000000000E+00 0. -1.
         24    1    1    2    0    0  0.12189142028E+02  0.40692061266E+02 -0.56420534247E+03  0.57148867308E+03  0.80419002446E+02 0. -1.
        -24    1    1    2    0    0 -0.12189142028E+02 -0.40692061266E+02 -0.28301310758E+03  0.29726764716E+03  0.80419002446E+02 0.  1.
<mgrwt>
<rscale>  0 0.90948529E+02</rscale>
<asrwt>0</asrwt>
<pdfrwt beam="1">  1        2 0.13199812E+00 0.90948529E+02</pdfrwt>
<pdfrwt beam="2">  1       -2 0.16567585E-02 0.90948529E+02</pdfrwt>
<totfact> 0.30013624E+04</totfact>
</mgrwt>
</event>
<event>
 4    1  0.1437859E-001  0.9150071E+02  0.7546771E-02  0.1299258E+00
          1   -1    0    0  501    0  0.00000000000E+00  0.00000000000E+00  0.15596021790E+04  0.15596021790E+04  0.00000000000E+00 0. -1.
         -1   -1    0    0    0  501 -0.00000000000E+00 -0.00000000000E+00 -0.12939464484E+02  0.12939464484E+02  0.00000000000E+00 0.  1.
         24    1    1    2    0    0  0.43414921149E+02  0.45065948260E+01  0.17188634084E+03  0.19472363723E+03  0.80419002446E+02 0.  1.
        -24    1    1    2    0    0 -0.43414921149E+02 -0.45065948260E+01  0.13747763737E+04  0.13778180063E+04  0.80419002446E+02 0. -1.
<mgrwt>
<rscale>  0 0.91500714E+02</rscale>
<asrwt>0</asrwt>
<pdfrwt beam="1">  1        1 0.23993865E+00 0.91500714E+02</pdfrwt>
<pdfrwt beam="2">  1       -1 0.19906881E-02 0.91500714E+02</pdfrwt>
<totfact> 0.43960767E+03</totfact>
</mgrwt>
</event>
<event>
 4    1  0.1437859E-001  0.8423189E+02  0.7546771E-02  0.1317454E+00
          1   -1    0    0  501    0  0.00000000000E+00  0.00000000000E+00  0.95257318166E+03  0.95257318166E+03  0.00000000000E+00 0. -1.
         -1   -1    0    0    0  501 -0.00000000000E+00 -0.00000000000E+00 -0.23044691245E+02  0.23044691245E+02  0.00000000000E+00 0.  1.
         24    1    1    2    0    0  0.50639958382E+01 -0.24538761528E+02  0.63457046223E+02  0.10545998076E+03  0.80419002446E+02 0.  1.
        -24    1    1    2    0    0 -0.50639958382E+01  0.24538761528E+02  0.86607144420E+03  0.87015789215E+03  0.80419002446E+02 0. -1.
<mgrwt>
<rscale>  0 0.84231887E+02</rscale>
<asrwt>0</asrwt>
<pdfrwt beam="1">  1        1 0.14654969E+00 0.84231887E+02</pdfrwt>
<pdfrwt beam="2">  1       -1 0.35453379E-02 0.84231887E+02</pdfrwt>
<totfact> 0.48808513E+03</totfact>
</mgrwt>
</event>
<event>
 4    1  0.1437859E-001  0.8133030E+02  0.7546771E-02  0.1325318E+00
         -1   -1    0    0    0  501 -0.00000000000E+00  0.00000000000E+00  0.47063454473E+02  0.47063454473E+02  0.00000000000E+00 0.  1.
          1   -1    0    0  501    0  0.00000000000E+00 -0.00000000000E+00 -0.19066262659E+03  0.19066262659E+03  0.00000000000E+00 0. -1.
         24    1    1    2    0    0 -0.64507005392E+01 -0.10285459557E+02 -0.10859722749E+02  0.82052128237E+02  0.80419002446E+02 0.  0.
        -24    1    1    2    0    0  0.64507005392E+01  0.10285459557E+02 -0.13273944937E+03  0.15567395283E+03  0.80419002446E+02 0. -1.
<mgrwt>
<rscale>  0 0.81330303E+02</rscale>
<asrwt>0</asrwt>
<pdfrwt beam="1">  1        1 0.29332712E-01 0.81330303E+02</pdfrwt>
<pdfrwt beam="2">  1       -1 0.72405315E-02 0.81330303E+02</pdfrwt>
<totfact> 0.13927822E+04</totfact>
</mgrwt>
</event>
<event>
 4    1  0.1437859E-001  0.1048317E+03  0.7546771E-02  0.1270452E+00
         -1   -1    0    0    0  501 -0.00000000000E+00  0.00000000000E+00  0.40013665903E+03  0.40013665903E+03  0.00000000000E+00 0.  1.
          1   -1    0    0  501    0  0.00000000000E+00 -0.00000000000E+00 -0.73528528207E+02  0.73528528207E+02  0.00000000000E+00 0. -1.
         24    1    1    2    0    0  0.27313831095E+02 -0.61452570460E+02  0.35075732704E+03  0.36608794328E+03  0.80419002446E+02 0.  1.
        -24    1    1    2    0    0 -0.27313831095E+02  0.61452570460E+02 -0.24149196220E+02  0.10757724396E+03  0.80419002446E+02 0. -1.
<mgrwt>
<rscale>  0 0.10483167E+03</rscale>
<asrwt>0</asrwt>
<pdfrwt beam="1">  1        1 0.11312081E-01 0.10483167E+03</pdfrwt>
<pdfrwt beam="2">  1       -1 0.61559485E-01 0.10483167E+03</pdfrwt>
<totfact> 0.14559082E+03</totfact>
</mgrwt>
</event>
<event>
 4    1  0.1437859E-001  0.1081827E+03  0.7546771E-02  0.1263973E+00
          2   -1    0    0  501    0  0.00000000000E+00  0.00000000000E+00  0.71598336284E+03  0.71598336284E+03  0.00000000000E+00 0. -1.
         -2   -1    0    0    0  501 -0.00000000000E+00 -0.00000000000E+00 -0.37398518471E+02  0.37398518471E+02  0.00000000000E+00 0.  1.
         24    1    1    2    0    0  0.58558802911E+02 -0.42510663422E+02  0.62191665913E+03  0.63125576177E+03  0.80419002446E+02 0. -1.
        -24    1    1    2    0    0 -0.58558802911E+02  0.42510663422E+02  0.56668185238E+02  0.12212611955E+03  0.80419002446E+02 0.  1.
<mgrwt>
<rscale>  0 0.10818274E+03</rscale>
<asrwt>0</asrwt>
<pdfrwt beam="1">  1        2 0.11015128E+00 0.10818274E+03</pdfrwt>
<pdfrwt beam="2">  1       -2 0.57536188E-02 0.10818274E+03</pdfrwt>
<totfact> 0.61469493E+03</totfact>
</mgrwt>
</event>
<event>
 4    1  0.1437859E-001  0.1623543E+03  0.7546771E-02  0.1186064E+00
         -2   -1    0    0    0  501 -0.00000000000E+00  0.00000000000E+00  0.13677677961E+03  0.13677677961E+03  0.00000000000E+00 0.  1.
          2   -1    0    0  501    0  0.00000000000E+00 -0.00000000000E+00 -0.67432888793E+03  0.67432888793E+03  0.00000000000E+00 0. -1.
         24    1    1    2    0    0  0.36149409932E+02  0.13632658762E+03 -0.61151311491E+03  0.63269836730E+03  0.80419002446E+02 0. -1.
        -24    1    1    2    0    0 -0.36149409932E+02 -0.13632658762E+03  0.73961006584E+02  0.17840730024E+03  0.80419002446E+02 0.  1.
<mgrwt>
<rscale>  0 0.16235435E+03</rscale>
<asrwt>0</asrwt>
<pdfrwt beam="1">  1        2 0.10374291E+00 0.16235435E+03</pdfrwt>
<pdfrwt beam="2">  1       -2 0.21042582E-01 0.16235435E+03</pdfrwt>
<totfact> 0.84787459E+02</totfact>
</mgrwt>
</event>
<event>
 4    1  0.1437859E-001  0.1120837E+03  0.7546771E-02  0.1256759E+00
          1   -1    0    0  501    0  0.00000000000E+00  0.00000000000E+00  0.87270699802E+02  0.87270699802E+02  0.00000000000E+00 0. -1.
         -1   -1    0    0    0  501 -0.00000000000E+00 -0.00000000000E+00 -0.14519547402E+03  0.14519547402E+03  0.00000000000E+00 0.  1.
         24    1    1    2    0    0  0.70721019886E+02  0.33076860883E+02 -0.39720609128E+02  0.11891376759E+03  0.80419002446E+02 0.  1.
        -24    1    1    2    0    0 -0.70721019886E+02 -0.33076860883E+02 -0.18204165094E+02  0.11355240623E+03  0.80419002446E+02 0. -1.
<mgrwt>
<rscale>  0 0.11208371E+03</rscale>
<asrwt>0</asrwt>
<pdfrwt beam="1">  1        1 0.13426262E-01 0.11208371E+03</pdfrwt>
<pdfrwt beam="2">  1       -1 0.22337765E-01 0.11208371E+03</pdfrwt>
<totfact> 0.67752861E+03</totfact>
</mgrwt>
</event>
<event>
 4    1  0.1437859E-001  0.1251603E+03  0.7546771E-02  0.1234819E+00
          1   -1    0    0  501    0  0.00000000000E+00  0.00000000000E+00  0.49367644276E+03  0.49367644276E+03  0.00000000000E+00 0. -1.
         -1   -1    0    0    0  501 -0.00000000000E+00 -0.00000000000E+00 -0.39536287711E+02  0.39536287711E+02  0.00000000000E+00 0.  1.
         24    1    1    2    0    0  0.69495676100E+02  0.66092606839E+02  0.10861520900E+03  0.16571771558E+03  0.80419002446E+02 0.  1.
        -24    1    1    2    0    0 -0.69495676100E+02 -0.66092606839E+02  0.34552494605E+03  0.36749501490E+03  0.80419002446E+02 0. -1.
<mgrwt>
<rscale>  0 0.12516029E+03</rscale>
<asrwt>0</asrwt>
<pdfrwt beam="1">  1        1 0.75950218E-01 0.12516029E+03</pdfrwt>
<pdfrwt beam="2">  1       -1 0.60825061E-02 0.12516029E+03</pdfrwt>
<totfact> 0.57531706E+03</totfact>
</mgrwt>
</event>
<event>
 4    1  0.1437859E-001  0.1029004E+03  0.7546771E-02  0.1274312E+00
         -2   -1    0    0    0  501 -0.00000000000E+00  0.00000000000E+00  0.17291053539E+02  0.17291053539E+02  0.00000000000E+00 0.  1.
          2   -1    0    0  501    0  0.00000000000E+00 -0.00000000000E+00 -0.91499293474E+03  0.91499293474E+03  0.00000000000E+00 0. -1.
         24    1    1    2    0    0 -0.73143406876E+01 -0.63779145815E+02 -0.71692909143E+03  0.72427606416E+03  0.80419002446E+02 0. -1.
        -24    1    1    2    0    0  0.73143406876E+01  0.63779145815E+02 -0.18077278977E+03  0.20800792412E+03  0.80419002446E+02 0.  1.
<mgrwt>
<rscale>  0 0.10290041E+03</rscale>
<asrwt>0</asrwt>
<pdfrwt beam="1">  1        2 0.14076814E+00 0.10290041E+03</pdfrwt>
<pdfrwt beam="2">  1       -2 0.26601622E-02 0.10290041E+03</pdfrwt>
<totfact> 0.14123319E+04</totfact>
</mgrwt>
</event>
<event>
 4    1  0.1437859E-001  0.9080127E+02  0.7546771E-02  0.1300923E+00
         -2   -1    0    0    0  501 -0.00000000000E+00  0.00000000000E+00  0.13845463250E+02  0.13845463250E+02  0.00000000000E+00 0.  1.
          2   -1    0    0  501    0  0.00000000000E+00 -0.00000000000E+00 -0.67581333260E+03  0.67581333260E+03  0.00000000000E+00 0. -1.
         24    1    1    2    0    0 -0.34602984659E+02 -0.24089155941E+02 -0.44986287544E+03  0.45893515515E+03  0.80419002446E+02 0. -1.
        -24    1    1    2    0    0  0.34602984659E+02  0.24089155941E+02 -0.21210499391E+03  0.23072364070E+03  0.80419002446E+02 0.  1.
<mgrwt>
<rscale>  0 0.90801266E+02</rscale>
<asrwt>0</asrwt>
<pdfrwt beam="1">  1        2 0.10397129E+00 0.90801266E+02</pdfrwt>
<pdfrwt beam="2">  1       -2 0.21300710E-02 0.90801266E+02</pdfrwt>
<totfact> 0.27879513E+04</totfact>
</mgrwt>
</event>
<event>
 4    1  0.1437859E-001  0.9895182E+02  0.7546771E-02  0.1282516E+00
         -2   -1    0    0    0  501 -0.00000000000E+00  0.00000000000E+00  0.21617620957E+02  0.21617620957E+02  0.00000000000E+00 0.  1.
          2   -1    0    0  501    0  0.00000000000E+00 -0.00000000000E+00 -0.57228699488E+03  0.57228699488E+03  0.00000000000E+00 0. -1.
         24    1    1    2    0    0  0.25668738374E+02 -0.51627141797E+02 -0.41094336383E+03  0.42268890467E+03  0.80419002446E+02 0.  0.
        -24    1    1    2    0    0 -0.25668738374E+02  0.51627141797E+02 -0.13972601009E+03  0.17121571117E+03  0.80419002446E+02 0. -1.
<mgrwt>
<rscale>  0 0.98951816E+02</rscale>
<asrwt>0</asrwt>
<pdfrwt beam="1">  1        2 0.88044141E-01 0.98951816E+02</pdfrwt>
<pdfrwt beam="2">  1       -2 0.33257883E-02 0.98951816E+02</pdfrwt>
<totfact> 0.17781749E+04</totfact>
</mgrwt>
</event>
<event>
 4    1  0.1437859E-001  0.9521697E+02  0.7546771E-02  0.1290688E+00
         -1   -1    0    0    0  501 -0.00000000000E+00  0.00000000000E+00  0.93954806348E+01  0.93954806348E+01  0.00000000000E+00 0.  1.
          1   -1    0    0  501    0  0.00000000000E+00 -0.00000000000E+00 -0.19197568519E+04  0.19197568519E+04  0.00000000000E+00 0. -1.
         24    1    1    2    0    0  0.49966552894E+02 -0.10119201248E+02 -0.27493042205E+03  0.29095189906E+03  0.80419002446E+02 0.  1.
        -24    1    1    2    0    0 -0.49966552894E+02  0.10119201248E+02 -0.16354309492E+04  0.16382004335E+04  0.80419002446E+02 0. -1.
<mgrwt>
<rscale>  0 0.95216966E+02</rscale>
<asrwt>0</asrwt>
<pdfrwt beam="1">  1        1 0.29534751E+00 0.95216966E+02</pdfrwt>
<pdfrwt beam="2">  1       -1 0.14454571E-02 0.95216966E+02</pdfrwt>
<totfact> 0.41191413E+03</totfact>
</mgrwt>
</event>
<event>
 4    1  0.1437859E-001  0.1154786E+03  0.7546771E-02  0.1250748E+00
          3   -1    0    0  501    0  0.00000000000E+00  0.00000000000E+00  0.38278446214E+03  0.38278446214E+03  0.00000000000E+00 0. -1.
         -3   -1    0    0    0  501 -0.00000000000E+00 -0.00000000000E+00 -0.37087453067E+02  0.37087453067E+02  0.00000000000E+00 0.  1.
         24    1    1    2    0    0 -0.62656364140E+02 -0.54242732715E+02  0.22455509082E+03  0.25250801727E+03  0.80419002446E+02 0. -1.
        -24    1    1    2    0    0  0.62656364140E+02  0.54242732715E+02  0.12114191826E+03  0.16736389794E+03  0.80419002446E+02 0.  1.
<mgrwt>
<rscale>  0 0.11547863E+03</rscale>
<asrwt>0</asrwt>
<pdfrwt beam="1">  1        3 0.58889914E-01 0.11547864E+03</pdfrwt>
<pdfrwt beam="2">  1       -3 0.57057623E-02 0.11547864E+03</pdfrwt>
<totfact> 0.11844386E+03</totfact>
</mgrwt>
</event>
<event>
 4    1  0.1437859E-001  0.8394786E+02  0.7546771E-02  0.1318207E+00
          1   -1    0    0  501    0  0.00000000000E+00  0.00000000000E+00  0.66270612401E+02  0.66270612401E+02  0.00000000000E+00 0. -1.
         -1   -1    0    0    0  501 -0.00000000000E+00 -0.00000000000E+00 -0.13481916687E+03  0.13481916687E+03  0.00000000000E+00 0.  1.
         24    1    1    2    0    0  0.17836920253E+02 -0.16182461371E+02 -0.80485210282E+02  0.11629751850E+03  0.80419002446E+02 0.  1.
        -24    1    1    2    0    0 -0.17836920253E+02  0.16182461371E+02  0.11936655816E+02  0.84792260771E+02  0.80419002446E+02 0. -1.
<mgrwt>
<rscale>  0 0.83947863E+02</rscale>
<asrwt>0</asrwt>
<pdfrwt beam="1">  1        1 0.10195479E-01 0.83947863E+02</pdfrwt>
<pdfrwt beam="2">  1       -1 0.20741410E-01 0.83947863E+02</pdfrwt>
<totfact> 0.10638050E+04</totfact>
</mgrwt>
</event>
<event>
 4    1  0.1437859E-001  0.8662332E+02  0.7546771E-02  0.1311241E+00
         -1   -1    0    0    0  501 -0.00000000000E+00  0.00000000000E+00  0.29906024185E+02  0.29906024185E+02  0.00000000000E+00 0.  1.
          1   -1    0    0  501    0  0.00000000000E+00 -0.00000000000E+00 -0.88609284263E+03  0.88609284263E+03  0.00000000000E+00 0. -1.
         24    1    1    2    0    0  0.23861181850E+02  0.21610816902E+02 -0.40321726897E+02  0.95548108410E+02  0.80419002446E+02 0.  1.
        -24    1    1    2    0    0 -0.23861181850E+02 -0.21610816902E+02 -0.81586509154E+03  0.82045075840E+03  0.80419002446E+02 0. -1.
<mgrwt>
<rscale>  0 0.86623319E+02</rscale>
<asrwt>0</asrwt>
<pdfrwt beam="1">  1        1 0.13632199E+00 0.86623319E+02</pdfrwt>
<pdfrwt beam="2">  1       -1 0.46009264E-02 0.86623319E+02</pdfrwt>
<totfact> 0.37544465E+03</totfact>
</mgrwt>
</event>
<event>
 4    1  0.1437859E-001  0.1054433E+03  0.7546771E-02  0.1269249E+00
          3   -1    0    0  501    0  0.00000000000E+00  0.00000000000E+00  0.94548801808E+03  0.94548801808E+03  0.00000000000E+00 0. -1.
         -3   -1    0    0    0  501 -0.00000000000E+00 -0.00000000000E+00 -0.18491030781E+02  0.18491030781E+02  0.00000000000E+00 0.  1.
         24    1    1    2    0    0 -0.18000388470E+02  0.65780322499E+02  0.17268116007E+03  0.20232909779E+03  0.80419002446E+02 0.  1.
        -24    1    1    2    0    0  0.18000388470E+02 -0.65780322499E+02  0.75431582723E+03  0.76164995108E+03  0.80419002446E+02 0. -1.
<mgrwt>
<rscale>  0 0.10544326E+03</rscale>
<asrwt>0</asrwt>
<pdfrwt beam="1">  1        3 0.14545966E+00 0.10544326E+03</pdfrwt>
<pdfrwt beam="2">  1       -3 0.28447747E-02 0.10544326E+03</pdfrwt>
<totfact> 0.46064769E+02</totfact>
</mgrwt>
</event>
<event>
 4    1  0.1437859E-001  0.8333889E+02  0.7546771E-02  0.1319835E+00
         -2   -1    0    0    0  501 -0.00000000000E+00  0.00000000000E+00  0.20290272380E+02  0.20290272380E+02  0.00000000000E+00 0.  1.
          2   -1    0    0  501    0  0.00000000000E+00 -0.00000000000E+00 -0.38856355349E+03  0.38856355349E+03  0.00000000000E+00 0. -1.
         24    1    1    2    0    0  0.18648911708E+02 -0.11417951599E+02 -0.11359836195E+03  0.14088986947E+03  0.80419002446E+02 0.  1.
        -24    1    1    2    0    0 -0.18648911708E+02  0.11417951599E+02 -0.25467491916E+03  0.26796395640E+03  0.80419002446E+02 0. -1.
<mgrwt>
<rscale>  0 0.83338882E+02</rscale>
<asrwt>0</asrwt>
<pdfrwt beam="1">  1        2 0.59779008E-01 0.83338892E+02</pdfrwt>
<pdfrwt beam="2">  1       -2 0.31215804E-02 0.83338892E+02</pdfrwt>
<totfact> 0.29036801E+04</totfact>
</mgrwt>
</event>
<event>
 4    1  0.1437859E-001  0.1222091E+03  0.7546771E-02  0.1239497E+00
         -1   -1    0    0    0  501 -0.00000000000E+00  0.00000000000E+00  0.26472126563E+04  0.26472126563E+04  0.00000000000E+00 0.  1.
          1   -1    0    0  501    0  0.00000000000E+00 -0.00000000000E+00 -0.80391805176E+01  0.80391805176E+01  0.00000000000E+00 0. -1.
         24    1    1    2    0    0  0.89664770587E+02  0.20689928084E+02  0.20445863549E+04  0.20482354413E+04  0.80419002446E+02 0.  1.
        -24    1    1    2    0    0 -0.89664770587E+02 -0.20689928084E+02  0.59458712081E+03  0.60701639549E+03  0.80419002446E+02 0. -1.
<mgrwt>
<rscale>  0 0.12220908E+03</rscale>
<asrwt>0</asrwt>
<pdfrwt beam="1">  1        1 0.12367991E-02 0.12220908E+03</pdfrwt>
<pdfrwt beam="2">  1       -1 0.40726279E+00 0.12220908E+03</pdfrwt>
<totfact> 0.96085541E+01</totfact>
</mgrwt>
</event>
<event>
 4    1  0.1437859E-001  0.8471189E+02  0.7546771E-02  0.1316188E+00
          1   -1    0    0  501    0  0.00000000000E+00  0.00000000000E+00  0.13528062247E+03  0.13528062247E+03  0.00000000000E+00 0. -1.
         -1   -1    0    0    0  501 -0.00000000000E+00 -0.00000000000E+00 -0.86650861501E+02  0.86650861501E+02  0.00000000000E+00 0.  1.
         24    1    1    2    0    0  0.13861895181E+02  0.22731849737E+02 -0.44789104953E+02  0.95823634910E+02  0.80419002446E+02 0.  1.
        -24    1    1    2    0    0 -0.13861895181E+02 -0.22731849737E+02  0.93418865923E+02  0.12610784906E+03  0.80419002446E+02 0. -1.
<mgrwt>
<rscale>  0 0.84711895E+02</rscale>
<asrwt>0</asrwt>
<pdfrwt beam="1">  1        1 0.20812403E-01 0.84711895E+02</pdfrwt>
<pdfrwt beam="2">  1       -1 0.13330902E-01 0.84711895E+02</pdfrwt>
<totfact> 0.85278697E+03</totfact>
</mgrwt>
</event>
<event>
 4    1  0.1437859E-001  0.9021188E+02  0.7546771E-02  0.1302339E+00
         -2   -1    0    0    0  501 -0.00000000000E+00  0.00000000000E+00  0.99723405315E+01  0.99723405315E+01  0.00000000000E+00 0.  1.
          2   -1    0    0  501    0  0.00000000000E+00 -0.00000000000E+00 -0.14328632554E+04  0.14328632554E+04  0.00000000000E+00 0. -1.
         24    1    1    2    0    0 -0.35282671795E+02 -0.20642197540E+02 -0.11847627119E+04  0.11881922684E+04  0.80419002446E+02 0.  0.
        -24    1    1    2    0    0  0.35282671795E+02  0.20642197540E+02 -0.23812820299E+03  0.25464332755E+03  0.80419002446E+02 0.  0.
<mgrwt>
<rscale>  0 0.90211879E+02</rscale>
<asrwt>0</asrwt>
<pdfrwt beam="1">  1        2 0.22044048E+00 0.90211879E+02</pdfrwt>
<pdfrwt beam="2">  1       -2 0.15342063E-02 0.90211879E+02</pdfrwt>
<totfact> 0.15950301E+04</totfact>
</mgrwt>
</event>
<event>
 4    1  0.1437859E-001  0.8691947E+02  0.7546771E-02  0.1310488E+00
          2   -1    0    0  501    0  0.00000000000E+00  0.00000000000E+00  0.40299825025E+03  0.40299825025E+03  0.00000000000E+00 0. -1.
         -2   -1    0    0    0  501 -0.00000000000E+00 -0.00000000000E+00 -0.23980894282E+02  0.23980894282E+02  0.00000000000E+00 0.  1.
         24    1    1    2    0    0 -0.50765290187E+01  0.32588453172E+02  0.28924603955E+03  0.30202361791E+03  0.80419002446E+02 0. -1.
        -24    1    1    2    0    0  0.50765290187E+01 -0.32588453172E+02  0.89771316416E+02  0.12495552662E+03  0.80419002446E+02 0.  1.
<mgrwt>
<rscale>  0 0.86919471E+02</rscale>
<asrwt>0</asrwt>
<pdfrwt beam="1">  1        2 0.61999726E-01 0.86919471E+02</pdfrwt>
<pdfrwt beam="2">  1       -2 0.36893686E-02 0.86919471E+02</pdfrwt>
<totfact> 0.22006753E+04</totfact>
</mgrwt>
</event>
<event>
 4    1  0.1437859E-001  0.1257907E+03  0.7546771E-02  0.1233839E+00
          1   -1    0    0  501    0  0.00000000000E+00  0.00000000000E+00  0.11332723661E+04  0.11332723661E+04  0.00000000000E+00 0. -1.
         -1   -1    0    0    0  501 -0.00000000000E+00 -0.00000000000E+00 -0.54547438878E+02  0.54547438878E+02  0.00000000000E+00 0.  1.
         24    1    1    2    0    0 -0.38944341846E+02  0.88540482442E+02  0.27072402778E+02  0.12867093588E+03  0.80419002446E+02 0.  1.
        -24    1    1    2    0    0  0.38944341846E+02 -0.88540482442E+02  0.10516525245E+04  0.10591488691E+04  0.80419002446E+02 0. -1.
<mgrwt>
<rscale>  0 0.12579068E+03</rscale>
<asrwt>0</asrwt>
<pdfrwt beam="1">  1        1 0.17434958E+00 0.12579068E+03</pdfrwt>
<pdfrwt beam="2">  1       -1 0.83919145E-02 0.12579068E+03</pdfrwt>
<totfact> 0.10284337E+03</totfact>
</mgrwt>
</event>
<event>
 4    1  0.1437859E-001  0.8292779E+02  0.7546771E-02  0.1320942E+00
         -2   -1    0    0    0  501 -0.00000000000E+00  0.00000000000E+00  0.97783600273E+02  0.97783600273E+02  0.00000000000E+00 0.  1.
          2   -1    0    0  501    0  0.00000000000E+00 -0.00000000000E+00 -0.83959397769E+02  0.83959397769E+02  0.00000000000E+00 0. -1.
         24    1    1    2    0    0 -0.19450131028E+02  0.56120805954E+01 -0.29701961599E+02  0.88086466173E+02  0.80419002446E+02 0.  1.
        -24    1    1    2    0    0  0.19450131028E+02 -0.56120805954E+01  0.43526164103E+02  0.93656531868E+02  0.80419002446E+02 0.  0.
<mgrwt>
<rscale>  0 0.82927794E+02</rscale>
<asrwt>0</asrwt>
<pdfrwt beam="1">  1        2 0.12916830E-01 0.82927794E+02</pdfrwt>
<pdfrwt beam="2">  1       -2 0.15043631E-01 0.82927794E+02</pdfrwt>
<totfact> 0.14104077E+04</totfact>
</mgrwt>
</event>
<event>
 4    1  0.1437859E-001  0.1057033E+03  0.7546771E-02  0.1268740E+00
         -2   -1    0    0    0  501 -0.00000000000E+00  0.00000000000E+00  0.21577953732E+03  0.21577953732E+03  0.00000000000E+00 0.  1.
          2   -1    0    0  501    0  0.00000000000E+00 -0.00000000000E+00 -0.63164288735E+02  0.63164288735E+02  0.00000000000E+00 0. -1.
         24    1    1    2    0    0  0.46009746287E+02 -0.50882926158E+02  0.17097870251E+02  0.10707717800E+03  0.80419002446E+02 0. -1.
        -24    1    1    2    0    0 -0.46009746287E+02  0.50882926158E+02  0.13551737834E+03  0.17186664806E+03  0.80419002446E+02 0.  1.
<mgrwt>
<rscale>  0 0.10570329E+03</rscale>
<asrwt>0</asrwt>
<pdfrwt beam="1">  1        2 0.97175830E-02 0.10570329E+03</pdfrwt>
<pdfrwt beam="2">  1       -2 0.33196852E-01 0.10570329E+03</pdfrwt>
<totfact> 0.52503341E+03</totfact>
</mgrwt>
</event>
<event>
 4    1  0.1437859E-001  0.8836731E+02  0.7546771E-02  0.1306854E+00
          1   -1    0    0  501    0  0.00000000000E+00  0.00000000000E+00  0.26710241380E+04  0.26710241380E+04  0.00000000000E+00 0. -1.
         -1   -1    0    0    0  501 -0.00000000000E+00 -0.00000000000E+00 -0.85647235881E+01  0.85647235881E+01  0.00000000000E+00 0.  1.
         24    1    1    2    0    0 -0.34183811210E+02 -0.13154166872E+02  0.24388424933E+03  0.25939989992E+03  0.80419002446E+02 0.  1.
        -24    1    1    2    0    0  0.34183811210E+02  0.13154166872E+02  0.24185751651E+04  0.24201889617E+04  0.80419002446E+02 0. -1.
<mgrwt>
<rscale>  0 0.88367307E+02</rscale>
<asrwt>0</asrwt>
<pdfrwt beam="1">  1        1 0.41092612E+00 0.88367307E+02</pdfrwt>
<pdfrwt beam="2">  1       -1 0.13176519E-02 0.88367307E+02</pdfrwt>
<totfact> 0.15607669E+03</totfact>
</mgrwt>
</event>
<event>
 4    1  0.1437859E-001  0.8675925E+02  0.7546771E-02  0.1310895E+00
         -1   -1    0    0    0  501 -0.00000000000E+00  0.00000000000E+00  0.30978612516E+02  0.30978612516E+02  0.00000000000E+00 0.  1.
          1   -1    0    0  501    0  0.00000000000E+00 -0.00000000000E+00 -0.34113075060E+03  0.34113075060E+03  0.00000000000E+00 0. -1.
         24    1    1    2    0    0  0.15544792371E+01 -0.32519769367E+02 -0.55276632887E+02  0.10287212403E+03  0.80419002446E+02 0.  1.
        -24    1    1    2    0    0 -0.15544792371E+01  0.32519769367E+02 -0.25487550519E+03  0.26923723908E+03  0.80419002446E+02 0. -1.
<mgrwt>
<rscale>  0 0.86759252E+02</rscale>
<asrwt>0</asrwt>
<pdfrwt beam="1">  1        1 0.52481653E-01 0.86759252E+02</pdfrwt>
<pdfrwt beam="2">  1       -1 0.47659404E-02 0.86759252E+02</pdfrwt>
<totfact> 0.12748019E+04</totfact>
</mgrwt>
</event>
<event>
 4    1  0.1437859E-001  0.8713621E+02  0.7546771E-02  0.1309939E+00
         -1   -1    0    0    0  501 -0.00000000000E+00  0.00000000000E+00  0.65775735804E+02  0.65775735804E+02  0.00000000000E+00 0.  1.
          1   -1    0    0  501    0  0.00000000000E+00 -0.00000000000E+00 -0.48897983475E+03  0.48897983475E+03  0.00000000000E+00 0. -1.
         24    1    1    2    0    0 -0.33299895960E+02  0.40767700020E+01  0.30834715030E+02  0.92431048517E+02  0.80419002446E+02 0.  1.
        -24    1    1    2    0    0  0.33299895960E+02 -0.40767700020E+01 -0.45403881398E+03  0.46232452204E+03  0.80419002446E+02 0. -1.
<mgrwt>
<rscale>  0 0.87136210E+02</rscale>
<asrwt>0</asrwt>
<pdfrwt beam="1">  1        1 0.75227666E-01 0.87136210E+02</pdfrwt>
<pdfrwt beam="2">  1       -1 0.10119344E-01 0.87136210E+02</pdfrwt>
<totfact> 0.26677246E+03</totfact>
</mgrwt>
</event>
<event>
 4    1  0.1437859E-001  0.9460582E+02  0.7546771E-02  0.1292066E+00
          2   -1    0    0  501    0  0.00000000000E+00  0.00000000000E+00  0.44100614516E+03  0.44100614516E+03  0.00000000000E+00 0. -1.
         -2   -1    0    0    0  501 -0.00000000000E+00 -0.00000000000E+00 -0.20559798199E+02  0.20559798199E+02  0.00000000000E+00 0.  1.
         24    1    1    2    0    0 -0.12112763915E+02  0.48335509076E+02  0.18403630610E+03  0.20692901779E+03  0.80419002446E+02 0. -1.
        -24    1    1    2    0    0  0.12112763915E+02 -0.48335509076E+02  0.23641004086E+03  0.25463692556E+03  0.80419002446E+02 0.  0.
<mgrwt>
<rscale>  0 0.94605807E+02</rscale>
<asrwt>0</asrwt>
<pdfrwt beam="1">  1        2 0.67847092E-01 0.94605819E+02</pdfrwt>
<pdfrwt beam="2">  1       -2 0.31630462E-02 0.94605819E+02</pdfrwt>
<totfact> 0.25276815E+04</totfact>
</mgrwt>
</event>
<event>
 4    1  0.1917802E-001  0.1008586E+03  0.7546771E-02  0.1278501E+00
         -1   -1    0    0    0  501 -0.00000000000E+00  0.00000000000E+00  0.17211572583E+03  0.17211572583E+03  0.00000000000E+00 0.  1.
          1   -1    0    0  501    0  0.00000000000E+00 -0.00000000000E+00 -0.51128732815E+03  0.51128732815E+03  0.00000000000E+00 0. -1.
         24    1    1    2    0    0  0.57947859635E+02  0.18635793155E+02  0.15175984229E+03  0.18221831112E+03  0.80419002446E+02 0.  1.
        -24    1    1    2    0    0 -0.57947859635E+02 -0.18635793155E+02 -0.49093144460E+03  0.50118474286E+03  0.80419002446E+02 0. -1.
<mgrwt>
<rscale>  0 0.10085863E+03</rscale>
<asrwt>0</asrwt>
<pdfrwt beam="1">  1        1 0.78659588E-01 0.10085863E+03</pdfrwt>
<pdfrwt beam="2">  1       -1 0.26479343E-01 0.10085863E+03</pdfrwt>
<totfact> 0.56008802E+02</totfact>
</mgrwt>
</event>
<event>
 4    1  0.1437859E-001  0.8095349E+02  0.7546771E-02  0.1326367E+00
          3   -1    0    0  501    0  0.00000000000E+00  0.00000000000E+00  0.23655162508E+02  0.23655162508E+02  0.00000000000E+00 0. -1.
         -3   -1    0    0    0  501 -0.00000000000E+00 -0.00000000000E+00 -0.36521217449E+03  0.36521217449E+03  0.00000000000E+00 0.  1.
         24    1    1    2    0    0 -0.86827841780E+01  0.32955119924E+01 -0.26631303513E+03  0.27834528876E+03  0.80419002446E+02 0.  1.
        -24    1    1    2    0    0  0.86827841780E+01 -0.32955119924E+01 -0.75243976857E+02  0.11052204824E+03  0.80419002446E+02 0.  0.
<mgrwt>
<rscale>  0 0.80953487E+02</rscale>
<asrwt>0</asrwt>
<pdfrwt beam="1">  1        3 0.36392561E-02 0.80953487E+02</pdfrwt>
<pdfrwt beam="2">  1       -3 0.56186483E-01 0.80953487E+02</pdfrwt>
<totfact> 0.24531847E+03</totfact>
</mgrwt>
</event>
<event>
 4    1  0.1437859E-001  0.8598578E+02  0.7546771E-02  0.1312875E+00
         -2   -1    0    0    0  501 -0.00000000000E+00  0.00000000000E+00  0.59943797908E+01  0.59943797908E+01  0.00000000000E+00 0.  1.
          2   -1    0    0  501    0  0.00000000000E+00 -0.00000000000E+00 -0.16204200460E+04  0.16204200460E+04  0.00000000000E+00 0. -1.
         24    1    1    2    0    0 -0.19396460679E+02 -0.23454544309E+02 -0.12046294983E+04  0.12076944077E+04  0.80419002446E+02 0. -1.
        -24    1    1    2    0    0  0.19396460679E+02  0.23454544309E+02 -0.40979616785E+03  0.41872001800E+03  0.80419002446E+02 0.  1.
<mgrwt>
<rscale>  0 0.85985780E+02</rscale>
<asrwt>0</asrwt>
<pdfrwt beam="1">  1        2 0.24929570E+00 0.85985780E+02</pdfrwt>
<pdfrwt beam="2">  1       -2 0.92221114E-03 0.85985780E+02</pdfrwt>
<totfact> 0.26267998E+04</totfact>
</mgrwt>
</event>
<event>
 4    1  0.1437859E-001  0.8707985E+02  0.7546771E-02  0.1310081E+00
         -2   -1    0    0    0  501 -0.00000000000E+00  0.00000000000E+00  0.29431163384E+03  0.29431163384E+03  0.00000000000E+00 0.  1.
          2   -1    0    0  501    0  0.00000000000E+00 -0.00000000000E+00 -0.30894575749E+02  0.30894575749E+02  0.00000000000E+00 0. -1.
         24    1    1    2    0    0 -0.30933799228E+02 -0.12600973949E+02  0.65451185113E+02  0.10893465044E+03  0.80419002446E+02 0. -1.
        -24    1    1    2    0    0  0.30933799228E+02  0.12600973949E+02  0.19796587297E+03  0.21627155915E+03  0.80419002446E+02 0.  1.
<mgrwt>
<rscale>  0 0.87079851E+02</rscale>
<asrwt>0</asrwt>
<pdfrwt beam="1">  1        2 0.47530119E-02 0.87079851E+02</pdfrwt>
<pdfrwt beam="2">  1       -2 0.45278711E-01 0.87079851E+02</pdfrwt>
<totfact> 0.71124463E+03</totfact>
</mgrwt>
</event>
<event>
 4    1  0.1437859E-001  0.1227459E+03  0.7546771E-02  0.1238635E+00
         -2   -1    0    0    0  501 -0.00000000000E+00  0.00000000000E+00  0.45753425702E+02  0.45753425702E+02  0.00000000000E+00 0.  1.
          2   -1    0    0  501    0  0.00000000000E+00 -0.00000000000E+00 -0.40162000508E+03  0.40162000508E+03  0.00000000000E+00 0. -1.
         24    1    1    2    0    0 -0.65876029506E+02 -0.65266336604E+02 -0.27285475846E+03  0.29919271569E+03  0.80419002446E+02 0. -1.
        -24    1    1    2    0    0  0.65876029506E+02  0.65266336604E+02 -0.83011820923E+02  0.14818071509E+03  0.80419002446E+02 0.  0.
<mgrwt>
<rscale>  0 0.12274592E+03</rscale>
<asrwt>0</asrwt>
<pdfrwt beam="1">  1        2 0.61787694E-01 0.12274592E+03</pdfrwt>
<pdfrwt beam="2">  1       -2 0.70389885E-02 0.12274592E+03</pdfrwt>
<totfact> 0.86772349E+03</totfact>
</mgrwt>
</event>
<event>
 4    1  0.1437859E-001  0.8725946E+02  0.7546771E-02  0.1309627E+00
          3   -1    0    0  501    0  0.00000000000E+00  0.00000000000E+00  0.17057574608E+03  0.17057574608E+03  0.00000000000E+00 0. -1.
         -3   -1    0    0    0  501 -0.00000000000E+00 -0.00000000000E+00 -0.64920791677E+02  0.64920791677E+02  0.00000000000E+00 0.  1.
         24    1    1    2    0    0  0.31193628467E+02 -0.13189185178E+02 -0.12987263472E+02  0.88220644010E+02  0.80419002446E+02 0.  1.
        -24    1    1    2    0    0 -0.31193628467E+02  0.13189185178E+02  0.11864221788E+03  0.14727589375E+03  0.80419002446E+02 0. -1.
<mgrwt>
<rscale>  0 0.87259458E+02</rscale>
<asrwt>0</asrwt>
<pdfrwt beam="1">  1        3 0.26242422E-01 0.87259458E+02</pdfrwt>
<pdfrwt beam="2">  1       -3 0.99878142E-02 0.87259458E+02</pdfrwt>
<totfact> 0.21387950E+03</totfact>
</mgrwt>
</event>
<event>
 4    1  0.1437859E-001  0.8903790E+02  0.7546771E-02  0.1305198E+00
          2   -1    0    0  501    0  0.00000000000E+00  0.00000000000E+00  0.89130065601E+03  0.89130065601E+03  0.00000000000E+00 0. -1.
         -2   -1    0    0    0  501 -0.00000000000E+00 -0.00000000000E+00 -0.20809543007E+02  0.20809543007E+02  0.00000000000E+00 0.  1.
         24    1    1    2    0    0  0.10798497376E+02 -0.36659575267E+02  0.78033552372E+03  0.78539880159E+03  0.80419002446E+02 0. -1.
        -24    1    1    2    0    0 -0.10798497376E+02  0.36659575267E+02  0.90155589280E+02  0.12671139742E+03  0.80419002446E+02 0.  1.
<mgrwt>
<rscale>  0 0.89037902E+02</rscale>
<asrwt>0</asrwt>
<pdfrwt beam="1">  1        2 0.13712315E+00 0.89037902E+02</pdfrwt>
<pdfrwt beam="2">  1       -2 0.32014688E-02 0.89037902E+02</pdfrwt>
<totfact> 0.11041223E+04</totfact>
</mgrwt>
</event>
<event>
 4    1  0.1437859E-001  0.9366425E+02  0.7546771E-02  0.1294213E+00
          2   -1    0    0  501    0  0.00000000000E+00  0.00000000000E+00  0.20902379236E+04  0.20902379236E+04  0.00000000000E+00 0. -1.
         -2   -1    0    0    0  501 -0.00000000000E+00 -0.00000000000E+00 -0.42328321027E+01  0.42328321027E+01  0.00000000000E+00 0.  1.
         24    1    1    2    0    0  0.61260732656E+00  0.48014544733E+02  0.94681647327E+03  0.95143808091E+03  0.80419002446E+02 0. -1.
        -24    1    1    2    0    0 -0.61260732656E+00 -0.48014544733E+02  0.11391886183E+04  0.11430326748E+04  0.80419002446E+02 0.  1.
<mgrwt>
<rscale>  0 0.93664240E+02</rscale>
<asrwt>0</asrwt>
<pdfrwt beam="1">  1        2 0.32157424E+00 0.93664252E+02</pdfrwt>
<pdfrwt beam="2">  1       -2 0.65120661E-03 0.93664252E+02</pdfrwt>
<totfact> 0.25065970E+04</totfact>
</mgrwt>
</event>
<event>
 4    1  0.1437859E-001  0.8270810E+02  0.7546771E-02  0.1321537E+00
         -2   -1    0    0    0  501 -0.00000000000E+00  0.00000000000E+00  0.98206739156E+02  0.98206739156E+02  0.00000000000E+00 0.  1.
          2   -1    0    0  501    0  0.00000000000E+00 -0.00000000000E+00 -0.79380473914E+02  0.79380473914E+02  0.00000000000E+00 0. -1.
         24    1    1    2    0    0  0.17112325180E+02 -0.89767853467E+01 -0.21666163221E+02  0.85498847544E+02  0.80419002446E+02 0. -1.
        -24    1    1    2    0    0 -0.17112325180E+02  0.89767853467E+01  0.40492428463E+02  0.92088365527E+02  0.80419002446E+02 0.  1.
<mgrwt>
<rscale>  0 0.82708103E+02</rscale>
<asrwt>0</asrwt>
<pdfrwt beam="1">  1        2 0.12212381E-01 0.82708103E+02</pdfrwt>
<pdfrwt beam="2">  1       -2 0.15108729E-01 0.82708103E+02</pdfrwt>
<totfact> 0.14958091E+04</totfact>
</mgrwt>
</event>
<event>
 4    1  0.1437859E-001  0.1240495E+03  0.7546771E-02  0.1236562E+00
         -1   -1    0    0    0  501 -0.00000000000E+00  0.00000000000E+00  0.15311634717E+02  0.15311634717E+02  0.00000000000E+00 0.  1.
          1   -1    0    0  501    0  0.00000000000E+00 -0.00000000000E+00 -0.15747137810E+04  0.15747137810E+04  0.00000000000E+00 0. -1.
         24    1    1    2    0    0 -0.47767163927E+02  0.81482324791E+02 -0.30151241358E+03  0.32603377540E+03  0.80419002446E+02 0.  1.
        -24    1    1    2    0    0  0.47767163927E+02 -0.81482324791E+02 -0.12578897327E+04  0.12639916403E+04  0.80419002446E+02 0.  0.
<mgrwt>
<rscale>  0 0.12404954E+03</rscale>
<asrwt>0</asrwt>
<pdfrwt beam="1">  1        1 0.24226363E+00 0.12404954E+03</pdfrwt>
<pdfrwt beam="2">  1       -1 0.23556364E-02 0.12404954E+03</pdfrwt>
<totfact> 0.34043507E+03</totfact>
</mgrwt>
</event>
<event>
 4    1  0.1437859E-001  0.1008618E+03  0.7546771E-02  0.1278494E+00
         -1   -1    0    0    0  501 -0.00000000000E+00  0.00000000000E+00  0.10372372616E+03  0.10372372616E+03  0.00000000000E+00 0.  1.
          1   -1    0    0  501    0  0.00000000000E+00 -0.00000000000E+00 -0.20690804020E+03  0.20690804020E+03  0.00000000000E+00 0. -1.
         24    1    1    2    0    0 -0.14305432199E+02  0.59171224334E+02  0.61049764954E+02  0.11789897767E+03  0.80419002446E+02 0.  1.
        -24    1    1    2    0    0  0.14305432199E+02 -0.59171224334E+02 -0.16423407900E+03  0.19273278870E+03  0.80419002446E+02 0. -1.
<mgrwt>
<rscale>  0 0.10086176E+03</rscale>
<asrwt>0</asrwt>
<pdfrwt beam="1">  1        1 0.31832006E-01 0.10086176E+03</pdfrwt>
<pdfrwt beam="2">  1       -1 0.15957497E-01 0.10086176E+03</pdfrwt>
<totfact> 0.38643595E+03</totfact>
</mgrwt>
</event>
<event>
 4    1  0.1437859E-001  0.1067258E+03  0.7546771E-02  0.1266756E+00
          2   -1    0    0  501    0  0.00000000000E+00  0.00000000000E+00  0.16857022255E+04  0.16857022255E+04  0.00000000000E+00 0. -1.
         -2   -1    0    0    0  501 -0.00000000000E+00 -0.00000000000E+00 -0.85113830753E+01  0.85113830753E+01  0.00000000000E+00 0.  1.
         24    1    1    2    0    0 -0.67858875075E+02  0.17842721603E+02  0.12231799627E+04  0.12278271974E+04  0.80419002446E+02 0. -1.
        -24    1    1    2    0    0  0.67858875075E+02 -0.17842721603E+02  0.45401087978E+03  0.46638641121E+03  0.80419002446E+02 0.  1.
<mgrwt>
<rscale>  0 0.10672584E+03</rscale>
<asrwt>0</asrwt>
<pdfrwt beam="1">  1        2 0.25933854E+00 0.10672584E+03</pdfrwt>
<pdfrwt beam="2">  1       -2 0.13094449E-02 0.10672584E+03</pdfrwt>
<totfact> 0.15012383E+04</totfact>
</mgrwt>
</event>
<event>
 4    1  0.1437859E-001  0.8250918E+02  0.7546771E-02  0.1322078E+00
          2   -1    0    0  501    0  0.00000000000E+00  0.00000000000E+00  0.16565397224E+03  0.16565397224E+03  0.00000000000E+00 0. -1.
         -2   -1    0    0    0  501 -0.00000000000E+00 -0.00000000000E+00 -0.91756133269E+02  0.91756133269E+02  0.00000000000E+00 0.  1.
         24    1    1    2    0    0 -0.13601380989E+02  0.12472019986E+02  0.13258239455E+03  0.15615971359E+03  0.80419002446E+02 0. -1.
        -24    1    1    2    0    0  0.13601380989E+02 -0.12472019986E+02 -0.58684555580E+02  0.10125039193E+03  0.80419002446E+02 0.  1.
<mgrwt>
<rscale>  0 0.82509180E+02</rscale>
<asrwt>0</asrwt>
<pdfrwt beam="1">  1        2 0.25485226E-01 0.82509180E+02</pdfrwt>
<pdfrwt beam="2">  1       -2 0.14116328E-01 0.82509180E+02</pdfrwt>
<totfact> 0.72595041E+03</totfact>
</mgrwt>
</event>
<event>
 4    1  0.1437859E-001  0.1083160E+03  0.7546771E-02  0.1263721E+00
         -1   -1    0    0    0  501 -0.00000000000E+00  0.00000000000E+00  0.43610310491E+02  0.43610310491E+02  0.00000000000E+00 0.  1.
          1   -1    0    0  501    0  0.00000000000E+00 -0.00000000000E+00 -0.62299436514E+03  0.62299436514E+03  0.00000000000E+00 0. -1.
         24    1    1    2    0    0 -0.60121176194E+02  0.40627351048E+02 -0.38458336886E+02  0.11494084179E+03  0.80419002446E+02 0.  1.
        -24    1    1    2    0    0  0.60121176194E+02 -0.40627351048E+02 -0.54092571776E+03  0.55166383384E+03  0.80419002446E+02 0. -1.
<mgrwt>
<rscale>  0 0.10831599E+03</rscale>
<asrwt>0</asrwt>
<pdfrwt beam="1">  1        1 0.95845283E-01 0.10831599E+03</pdfrwt>
<pdfrwt beam="2">  1       -1 0.67092788E-02 0.10831599E+03</pdfrwt>
<totfact> 0.36239716E+03</totfact>
</mgrwt>
</event>
<event>
 4    1  0.1437859E-001  0.9059761E+02  0.7546771E-02  0.1301411E+00
          3   -1    0    0  501    0  0.00000000000E+00  0.00000000000E+00  0.42457912828E+02  0.42457912828E+02  0.00000000000E+00 0. -1.
         -3   -1    0    0    0  501 -0.00000000000E+00 -0.00000000000E+00 -0.19821891512E+03  0.19821891512E+03  0.00000000000E+00 0.  1.
         24    1    1    2    0    0 -0.39028389740E+02 -0.14747608763E+02 -0.58960373678E+02  0.10809370374E+03  0.80419002446E+02 0. -1.
        -24    1    1    2    0    0  0.39028389740E+02  0.14747608763E+02 -0.96800628612E+02  0.13258312421E+03  0.80419002446E+02 0.  1.
<mgrwt>
<rscale>  0 0.90597600E+02</rscale>
<asrwt>0</asrwt>
<pdfrwt beam="1">  1        3 0.65319866E-02 0.90597612E+02</pdfrwt>
<pdfrwt beam="2">  1       -3 0.30495218E-01 0.90597612E+02</pdfrwt>
<totfact> 0.32537000E+03</totfact>
</mgrwt>
</event>
<event>
 4    1  0.1437859E-001  0.8538839E+02  0.7546771E-02  0.1314420E+00
          2   -1    0    0  501    0  0.00000000000E+00  0.00000000000E+00  0.28201898034E+02  0.28201898034E+02  0.00000000000E+00 0. -1.
         -2   -1    0    0    0  501 -0.00000000000E+00 -0.00000000000E+00 -0.44441083085E+03  0.44441083085E+03  0.00000000000E+00 0.  1.
         24    1    1    2    0    0  0.20273784243E+02  0.20320796998E+02 -0.55279401461E+02  0.10172015188E+03  0.80419002446E+02 0. -1.
        -24    1    1    2    0    0 -0.20273784243E+02 -0.20320796998E+02 -0.36092953136E+03  0.37089257701E+03  0.80419002446E+02 0.  1.
<mgrwt>
<rscale>  0 0.85388390E+02</rscale>
<asrwt>0</asrwt>
<pdfrwt beam="1">  1        2 0.43387533E-02 0.85388390E+02</pdfrwt>
<pdfrwt beam="2">  1       -2 0.68370901E-01 0.85388390E+02</pdfrwt>
<totfact> 0.34967572E+03</totfact>
</mgrwt>
</event>
<event>
 4    1  0.1437859E-001  0.9678021E+02  0.7546771E-02  0.1287216E+00
          4   -1    0    0  501    0  0.00000000000E+00  0.00000000000E+00  0.62424338627E+03  0.62424338627E+03  0.00000000000E+00 0. -1.
         -4   -1    0    0    0  501 -0.00000000000E+00 -0.00000000000E+00 -0.12019005151E+03  0.12019005151E+03  0.00000000000E+00 0.  1.
         24    1    1    2    0    0  0.16250682319E+02 -0.51333299814E+02  0.60023553805E+03  0.60798775434E+03  0.80419002446E+02 0. -1.
        -24    1    1    2    0    0 -0.16250682319E+02  0.51333299814E+02 -0.96182203284E+02  0.13644568344E+03  0.80419002446E+02 0.  1.
<mgrwt>
<rscale>  0 0.96780206E+02</rscale>
<asrwt>0</asrwt>
<pdfrwt beam="1">  1        4 0.96037443E-01 0.96780206E+02</pdfrwt>
<pdfrwt beam="2">  1       -4 0.18490777E-01 0.96780206E+02</pdfrwt>
<totfact> 0.39165321E+01</totfact>
</mgrwt>
</event>
<event>
 4    1  0.1437859E-001  0.8947705E+02  0.7546771E-02  0.1304123E+00
          2   -1    0    0  501    0  0.00000000000E+00  0.00000000000E+00  0.81815830540E+02  0.81815830540E+02  0.00000000000E+00 0. -1.
         -2   -1    0    0    0  501 -0.00000000000E+00 -0.00000000000E+00 -0.12839910679E+03  0.12839910679E+03  0.00000000000E+00 0.  1.
         24    1    1    2    0    0 -0.15247275232E+02  0.36144753733E+02 -0.74555568927E+02  0.11646746944E+03  0.80419002446E+02 0.  0.
        -24    1    1    2    0    0  0.15247275232E+02 -0.36144753733E+02  0.27972292677E+02  0.93747467893E+02  0.80419002446E+02 0.  0.
<mgrwt>
<rscale>  0 0.89477039E+02</rscale>
<asrwt>0</asrwt>
<pdfrwt beam="1">  1        2 0.12587051E-01 0.89477051E+02</pdfrwt>
<pdfrwt beam="2">  1       -2 0.19753709E-01 0.89477051E+02</pdfrwt>
<totfact> 0.93683469E+03</totfact>
</mgrwt>
</event>
<event>
 4    1  0.1437859E-001  0.8656985E+02  0.7546771E-02  0.1311378E+00
         -1   -1    0    0    0  501 -0.00000000000E+00  0.00000000000E+00  0.99276288388E+01  0.99276288388E+01  0.00000000000E+00 0.  1.
          1   -1    0    0  501    0  0.00000000000E+00 -0.00000000000E+00 -0.13383184561E+04  0.13383184561E+04  0.00000000000E+00 0. -1.
         24    1    1    2    0    0  0.32048729495E+02 -0.44819781781E-01 -0.21910261301E+03  0.23558500388E+03  0.80419002446E+02 0.  1.
        -24    1    1    2    0    0 -0.32048729495E+02  0.44819781781E-01 -0.11092882143E+04  0.11126610811E+04  0.80419002446E+02 0. -1.
<mgrwt>
<rscale>  0 0.86569851E+02</rscale>
<asrwt>0</asrwt>
<pdfrwt beam="1">  1        1 0.20589512E+00 0.86569851E+02</pdfrwt>
<pdfrwt beam="2">  1       -1 0.15273277E-02 0.86569851E+02</pdfrwt>
<totfact> 0.88653049E+03</totfact>
</mgrwt>
</event>
<event>
 4    1  0.1437859E-001  0.8530014E+02  0.7546771E-02  0.1314650E+00
         -1   -1    0    0    0  501 -0.00000000000E+00  0.00000000000E+00  0.37795443251E+03  0.37795443251E+03  0.00000000000E+00 0.  1.
          1   -1    0    0  501    0  0.00000000000E+00 -0.00000000000E+00 -0.21756567221E+02  0.21756567221E+02  0.00000000000E+00 0. -1.
         24    1    1    2    0    0  0.31956331728E+01 -0.28261019380E+02  0.24591742919E+03  0.26029117392E+03  0.80419002446E+02 0.  0.
        -24    1    1    2    0    0 -0.31956331728E+01  0.28261019380E+02  0.11028043610E+03  0.13941982581E+03  0.80419002446E+02 0.  0.
<mgrwt>
<rscale>  0 0.85300136E+02</rscale>
<asrwt>0</asrwt>
<pdfrwt beam="1">  1        1 0.33471645E-02 0.85300136E+02</pdfrwt>
<pdfrwt beam="2">  1       -1 0.58146831E-01 0.85300136E+02</pdfrwt>
<totfact> 0.81660376E+03</totfact>
</mgrwt>
</event>
<event>
 4    1  0.1437859E-001  0.8580523E+02  0.7546771E-02  0.1313340E+00
          1   -1    0    0  501    0  0.00000000000E+00  0.00000000000E+00  0.26263145449E+02  0.26263145449E+02  0.00000000000E+00 0. -1.
         -1   -1    0    0    0  501 -0.00000000000E+00 -0.00000000000E+00 -0.61110004850E+03  0.61110004850E+03  0.00000000000E+00 0.  1.
         24    1    1    2    0    0 -0.25512597770E+02  0.15634206329E+02 -0.52687327863E+03  0.53381456401E+03  0.80419002446E+02 0.  1.
        -24    1    1    2    0    0  0.25512597770E+02 -0.15634206329E+02 -0.57963624413E+02  0.10354862994E+03  0.80419002446E+02 0. -1.
<mgrwt>
<rscale>  0 0.85805227E+02</rscale>
<asrwt>0</asrwt>
<pdfrwt beam="1">  1        1 0.40404839E-02 0.85805227E+02</pdfrwt>
<pdfrwt beam="2">  1       -1 0.94015392E-01 0.85805227E+02</pdfrwt>
<totfact> 0.24380279E+03</totfact>
</mgrwt>
</event>
<event>
 4    1  0.1437859E-001  0.1050117E+03  0.7546771E-02  0.1270097E+00
          2   -1    0    0  501    0  0.00000000000E+00  0.00000000000E+00  0.38688367723E+02  0.38688367723E+02  0.00000000000E+00 0. -1.
         -2   -1    0    0    0  501 -0.00000000000E+00 -0.00000000000E+00 -0.31886741413E+03  0.31886741413E+03  0.00000000000E+00 0.  1.
         24    1    1    2    0    0 -0.21731431791E+02 -0.63937281222E+02 -0.81853665499E+02  0.13314454389E+03  0.80419002446E+02 0. -1.
        -24    1    1    2    0    0  0.21731431791E+02  0.63937281222E+02 -0.19832538091E+03  0.22441123796E+03  0.80419002446E+02 0.  1.
<mgrwt>
<rscale>  0 0.10501165E+03</rscale>
<asrwt>0</asrwt>
<pdfrwt beam="1">  1        2 0.59520566E-02 0.10501165E+03</pdfrwt>
<pdfrwt beam="2">  1       -2 0.49056525E-01 0.10501165E+03</pdfrwt>
<totfact> 0.46374915E+03</totfact>
</mgrwt>
</event>
<event>
 4    1  0.1437859E-001  0.1424561E+03  0.7546771E-02  0.1210062E+00
          2   -1    0    0  501    0  0.00000000000E+00  0.00000000000E+00  0.45582051808E+03  0.45582051808E+03  0.00000000000E+00 0. -1.
         -2   -1    0    0    0  501 -0.00000000000E+00 -0.00000000000E+00 -0.49960105937E+02  0.49960105937E+02  0.00000000000E+00 0.  1.
         24    1    1    2    0    0  0.51035511348E+02 -0.10593344872E+03  0.28636960532E+03  0.31984572184E+03  0.80419002446E+02 0. -1.
        -24    1    1    2    0    0 -0.51035511348E+02  0.10593344872E+03  0.11949080683E+03  0.18593490218E+03  0.80419002446E+02 0.  1.
<mgrwt>
<rscale>  0 0.14245608E+03</rscale>
<asrwt>0</asrwt>
<pdfrwt beam="1">  1        2 0.70126231E-01 0.14245608E+03</pdfrwt>
<pdfrwt beam="2">  1       -2 0.76861705E-02 0.14245608E+03</pdfrwt>
<totfact> 0.66813223E+03</totfact>
</mgrwt>
</event>
<event>
 4    1  0.1437859E-001  0.1381897E+03  0.7546771E-02  0.1215786E+00
         -1   -1    0    0    0  501 -0.00000000000E+00  0.00000000000E+00  0.67716643147E+03  0.67716643147E+03  0.00000000000E+00 0.  1.
          1   -1    0    0  501    0  0.00000000000E+00 -0.00000000000E+00 -0.30127038351E+02  0.30127038351E+02  0.00000000000E+00 0. -1.
         24    1    1    2    0    0 -0.10795568409E+03 -0.31220844156E+02  0.23408876007E+03  0.27183438778E+03  0.80419002446E+02 0.  1.
        -24    1    1    2    0    0  0.10795568409E+03  0.31220844156E+02  0.41295063305E+03  0.43545908203E+03  0.80419002446E+02 0. -1.
<mgrwt>
<rscale>  0 0.13818969E+03</rscale>
<asrwt>0</asrwt>
<pdfrwt beam="1">  1        1 0.46349295E-02 0.13818971E+03</pdfrwt>
<pdfrwt beam="2">  1       -1 0.10417944E+00 0.13818971E+03</pdfrwt>
<totfact> 0.16578328E+03</totfact>
</mgrwt>
</event>
<event>
 4    1  0.1437859E-001  0.8899276E+02  0.7546771E-02  0.1305309E+00
         -2   -1    0    0    0  501 -0.00000000000E+00  0.00000000000E+00  0.90526114752E+01  0.90526114752E+01  0.00000000000E+00 0.  1.
          2   -1    0    0  501    0  0.00000000000E+00 -0.00000000000E+00 -0.90753673767E+03  0.90753673767E+03  0.00000000000E+00 0. -1.
         24    1    1    2    0    0  0.15543667955E+02 -0.34797830350E+02 -0.53621296395E+03  0.54354765502E+03  0.80419002446E+02 0.  0.
        -24    1    1    2    0    0 -0.15543667955E+02  0.34797830350E+02 -0.36227116225E+03  0.37304169413E+03  0.80419002446E+02 0.  1.
<mgrwt>
<rscale>  0 0.88992756E+02</rscale>
<asrwt>0</asrwt>
<pdfrwt beam="1">  1        2 0.13962109E+00 0.88992756E+02</pdfrwt>
<pdfrwt beam="2">  1       -2 0.13927090E-02 0.88992756E+02</pdfrwt>
<totfact> 0.35719929E+04</totfact>
</mgrwt>
</event>
<event>
 4    1  0.1437859E-001  0.2186358E+03  0.7546771E-02  0.1134904E+00
         -1   -1    0    0    0  501 -0.00000000000E+00  0.00000000000E+00  0.67411016830E+02  0.67411016830E+02  0.00000000000E+00 0.  1.
          1   -1    0    0  501    0  0.00000000000E+00 -0.00000000000E+00 -0.81689977013E+03  0.81689977013E+03  0.00000000000E+00 0. -1.
         24    1    1    2    0    0 -0.11546766064E+03  0.16733688053E+03 -0.21412969974E+03  0.30602803222E+03  0.80419002446E+02 0.  1.
        -24    1    1    2    0    0  0.11546766064E+03 -0.16733688053E+03 -0.53535905356E+03  0.57828275474E+03  0.80419002446E+02 0. -1.
<mgrwt>
<rscale>  0 0.21863583E+03</rscale>
<asrwt>0</asrwt>
<pdfrwt beam="1">  1        1 0.12567689E+00 0.21863583E+03</pdfrwt>
<pdfrwt beam="2">  1       -1 0.10370926E-01 0.21863583E+03</pdfrwt>
<totfact> 0.12847981E+03</totfact>
</mgrwt>
</event>
<event>
 4    1  0.1437859E-001  0.1031776E+03  0.7546771E-02  0.1273752E+00
         -2   -1    0    0    0  501 -0.00000000000E+00  0.00000000000E+00  0.91383633708E+01  0.91383633708E+01  0.00000000000E+00 0.  1.
          2   -1    0    0  501    0  0.00000000000E+00 -0.00000000000E+00 -0.35275291621E+04  0.35275291621E+04  0.00000000000E+00 0. -1.
         24    1    1    2    0    0 -0.50415498171E+02 -0.40455981766E+02 -0.32063776888E+04  0.32080373296E+04  0.80419002446E+02 0. -1.
        -24    1    1    2    0    0  0.50415498171E+02  0.40455981766E+02 -0.31201310993E+03  0.32863019588E+03  0.80419002446E+02 0.  1.
<mgrwt>
<rscale>  0 0.10317764E+03</rscale>
<asrwt>0</asrwt>
<pdfrwt beam="1">  1        2 0.54269738E+00 0.10317764E+03</pdfrwt>
<pdfrwt beam="2">  1       -2 0.14059005E-02 0.10317764E+03</pdfrwt>
<totfact> 0.13230339E+03</totfact>
</mgrwt>
</event>
<event>
 4    1  0.1437859E-001  0.9454940E+02  0.7546771E-02  0.1292194E+00
         -2   -1    0    0    0  501 -0.00000000000E+00  0.00000000000E+00  0.76710470864E+01  0.76710470864E+01  0.00000000000E+00 0.  1.
          2   -1    0    0  501    0  0.00000000000E+00 -0.00000000000E+00 -0.11744978292E+04  0.11744978292E+04  0.00000000000E+00 0. -1.
         24    1    1    2    0    0  0.28310097065E+02  0.40876728449E+02 -0.53129625485E+03  0.53964367401E+03  0.80419002446E+02 0.  1.
        -24    1    1    2    0    0 -0.28310097065E+02 -0.40876728449E+02 -0.63553052723E+03  0.64252520225E+03  0.80419002446E+02 0. -1.
<mgrwt>
<rscale>  0 0.94549388E+02</rscale>
<asrwt>0</asrwt>
<pdfrwt beam="1">  1        2 0.18069190E+00 0.94549400E+02</pdfrwt>
<pdfrwt beam="2">  1       -2 0.11801616E-02 0.94549400E+02</pdfrwt>
<totfact> 0.31882310E+04</totfact>
</mgrwt>
</event>
<event>
 4    1  0.1437859E-001  0.8973785E+02  0.7546771E-02  0.1303488E+00
         -3   -1    0    0    0  501 -0.00000000000E+00  0.00000000000E+00  0.75208889790E+01  0.75208889790E+01  0.00000000000E+00 0.  1.
          3   -1    0    0  501    0  0.00000000000E+00 -0.00000000000E+00 -0.16823423117E+04  0.16823423117E+04  0.00000000000E+00 0. -1.
         24    1    1    2    0    0  0.23978525743E+02 -0.31791453323E+02 -0.32796189523E+03  0.34001748025E+03  0.80419002446E+02 0.  1.
        -24    1    1    2    0    0 -0.23978525743E+02  0.31791453323E+02 -0.13468595275E+04  0.13498457204E+04  0.80419002446E+02 0.  1.
<mgrwt>
<rscale>  0 0.89737852E+02</rscale>
<asrwt>0</asrwt>
<pdfrwt beam="1">  1        3 0.25882247E+00 0.89737852E+02</pdfrwt>
<pdfrwt beam="2">  1       -3 0.11570573E-02 0.89737852E+02</pdfrwt>
<totfact> 0.36542062E+02</totfact>
</mgrwt>
</event>
<event>
 4    1  0.1437859E-001  0.8705725E+02  0.7546771E-02  0.1310139E+00
         -2   -1    0    0    0  501 -0.00000000000E+00  0.00000000000E+00  0.67220223964E+02  0.67220223964E+02  0.00000000000E+00 0.  1.
          2   -1    0    0  501    0  0.00000000000E+00 -0.00000000000E+00 -0.19315122529E+03  0.19315122529E+03  0.00000000000E+00 0. -1.
         24    1    1    2    0    0  0.59339341685E+01 -0.32810626992E+02 -0.14695995331E+03  0.17081039971E+03  0.80419002446E+02 0. -1.
        -24    1    1    2    0    0 -0.59339341685E+01  0.32810626992E+02  0.21028951988E+02  0.89561049539E+02  0.80419002446E+02 0.  1.
<mgrwt>
<rscale>  0 0.87057250E+02</rscale>
<asrwt>0</asrwt>
<pdfrwt beam="1">  1        2 0.29715573E-01 0.87057250E+02</pdfrwt>
<pdfrwt beam="2">  1       -2 0.10341573E-01 0.87057250E+02</pdfrwt>
<totfact> 0.10107823E+04</totfact>
</mgrwt>
</event>
<event>
 4    1  0.1437859E-001  0.8290733E+02  0.7546771E-02  0.1320998E+00
         -2   -1    0    0    0  501 -0.00000000000E+00  0.00000000000E+00  0.25896567373E+02  0.25896567373E+02  0.00000000000E+00 0.  1.
          2   -1    0    0  501    0  0.00000000000E+00 -0.00000000000E+00 -0.27255570426E+03  0.27255570426E+03  0.00000000000E+00 0. -1.
         24    1    1    2    0    0 -0.14171214621E+02  0.14338272178E+02 -0.14746468736E+03  0.16917286823E+03  0.80419002446E+02 0. -1.
        -24    1    1    2    0    0  0.14171214621E+02 -0.14338272178E+02 -0.99194449529E+02  0.12927940340E+03  0.80419002446E+02 0.  1.
<mgrwt>
<rscale>  0 0.82907330E+02</rscale>
<asrwt>0</asrwt>
<pdfrwt beam="1">  1        2 0.41931650E-01 0.82907330E+02</pdfrwt>
<pdfrwt beam="2">  1       -2 0.39840869E-02 0.82907330E+02</pdfrwt>
<totfact> 0.29423278E+04</totfact>
</mgrwt>
</event>
<event>
 4    1  0.1437859E-001  0.1447080E+03  0.7546771E-02  0.1207131E+00
          2   -1    0    0  501    0  0.00000000000E+00  0.00000000000E+00  0.37207844853E+03  0.37207844853E+03  0.00000000000E+00 0. -1.
         -2   -1    0    0    0  501 -0.00000000000E+00 -0.00000000000E+00 -0.67910561967E+02  0.67910561967E+02  0.00000000000E+00 0.  1.
         24    1    1    2    0    0 -0.67825077613E+02 -0.99362774392E+02  0.24312795819E+03  0.28293395359E+03  0.80419002446E+02 0. -1.
        -24    1    1    2    0    0  0.67825077613E+02  0.99362774392E+02  0.61039928369E+02  0.15705505690E+03  0.80419002446E+02 0.  1.
<mgrwt>
<rscale>  0 0.14470804E+03</rscale>
<asrwt>0</asrwt>
<pdfrwt beam="1">  1        2 0.57242837E-01 0.14470804E+03</pdfrwt>
<pdfrwt beam="2">  1       -2 0.10447779E-01 0.14470804E+03</pdfrwt>
<totfact> 0.51522674E+03</totfact>
</mgrwt>
</event>
<event>
 4    1  0.1437859E-001  0.8926523E+02  0.7546771E-02  0.1304641E+00
         -2   -1    0    0    0  501 -0.00000000000E+00  0.00000000000E+00  0.42042979894E+01  0.42042979894E+01  0.00000000000E+00 0.  1.
          2   -1    0    0  501    0  0.00000000000E+00 -0.00000000000E+00 -0.21433255410E+04  0.21433255410E+04  0.00000000000E+00 0. -1.
         24    1    1    2    0    0 -0.20675104969E+02  0.32765863829E+02 -0.70426871940E+03  0.70990330812E+03  0.80419002446E+02 0.  1.
        -24    1    1    2    0    0  0.20675104969E+02 -0.32765863829E+02 -0.14348525236E+04  0.14376265309E+04  0.80419002446E+02 0. -1.
<mgrwt>
<rscale>  0 0.89265221E+02</rscale>
<asrwt>0</asrwt>
<pdfrwt beam="1">  1        2 0.32974294E+00 0.89265233E+02</pdfrwt>
<pdfrwt beam="2">  1       -2 0.64681400E-03 0.89265233E+02</pdfrwt>
<totfact> 0.23716750E+04</totfact>
</mgrwt>
</event>
<event>
 4    1  0.1437859E-001  0.1296387E+03  0.7546771E-02  0.1227993E+00
          1   -1    0    0  501    0  0.00000000000E+00  0.00000000000E+00  0.11082586571E+04  0.11082586571E+04  0.00000000000E+00 0. -1.
         -1   -1    0    0    0  501 -0.00000000000E+00 -0.00000000000E+00 -0.53655047786E+02  0.53655047786E+02  0.00000000000E+00 0.  1.
         24    1    1    2    0    0 -0.87537761651E+02  0.51731145609E+02  0.35244551116E+02  0.13434420523E+03  0.80419002446E+02 0.  1.
        -24    1    1    2    0    0  0.87537761651E+02 -0.51731145609E+02  0.10193590582E+04  0.10275694996E+04  0.80419002446E+02 0. -1.
<mgrwt>
<rscale>  0 0.12963868E+03</rscale>
<asrwt>0</asrwt>
<pdfrwt beam="1">  1        1 0.17050131E+00 0.12963868E+03</pdfrwt>
<pdfrwt beam="2">  1       -1 0.82546236E-02 0.12963868E+03</pdfrwt>
<totfact> 0.10975390E+03</totfact>
</mgrwt>
</event>
<event>
 4    1  0.1437859E-001  0.1098041E+03  0.7546771E-02  0.1260933E+00
          1   -1    0    0  501    0  0.00000000000E+00  0.00000000000E+00  0.85787963191E+02  0.85787963191E+02  0.00000000000E+00 0. -1.
         -1   -1    0    0    0  501 -0.00000000000E+00 -0.00000000000E+00 -0.14220690506E+03  0.14220690506E+03  0.00000000000E+00 0.  1.
         24    1    1    2    0    0  0.39105825130E+02  0.63721754416E+02 -0.40538513125E+02  0.11704834277E+03  0.80419002446E+02 0.  1.
        -24    1    1    2    0    0 -0.39105825130E+02 -0.63721754416E+02 -0.15880428746E+02  0.11094652548E+03  0.80419002446E+02 0. -1.
<mgrwt>
<rscale>  0 0.10980411E+03</rscale>
<asrwt>0</asrwt>
<pdfrwt beam="1">  1        1 0.13198148E-01 0.10980411E+03</pdfrwt>
<pdfrwt beam="2">  1       -1 0.21877985E-01 0.10980411E+03</pdfrwt>
<totfact> 0.71524837E+03</totfact>
</mgrwt>
</event>
<event>
 4    1  0.1437859E-001  0.8069188E+02  0.7546771E-02  0.1327099E+00
          1   -1    0    0  501    0  0.00000000000E+00  0.00000000000E+00  0.10883933796E+03  0.10883933796E+03  0.00000000000E+00 0. -1.
         -1   -1    0    0    0  501 -0.00000000000E+00 -0.00000000000E+00 -0.68442445670E+02  0.68442445670E+02  0.00000000000E+00 0.  1.
         24    1    1    2    0    0  0.38226216128E+01 -0.54176275551E+01 -0.11256701521E+02  0.81473261920E+02  0.80419002446E+02 0.  0.
        -24    1    1    2    0    0 -0.38226216128E+01  0.54176275551E+01  0.51653593810E+02  0.95808521710E+02  0.80419002446E+02 0. -1.
<mgrwt>
<rscale>  0 0.80691877E+02</rscale>
<asrwt>0</asrwt>
<pdfrwt beam="1">  1        1 0.16744513E-01 0.80691877E+02</pdfrwt>
<pdfrwt beam="2">  1       -1 0.10529607E-01 0.80691877E+02</pdfrwt>
<totfact> 0.15969896E+04</totfact>
</mgrwt>
</event>
<event>
 4    1  0.1437859E-001  0.8416035E+02  0.7546771E-02  0.1317643E+00
          2   -1    0    0  501    0  0.00000000000E+00  0.00000000000E+00  0.71401071342E+03  0.71401071342E+03  0.00000000000E+00 0. -1.
         -2   -1    0    0    0  501 -0.00000000000E+00 -0.00000000000E+00 -0.13066511617E+02  0.13066511617E+02  0.00000000000E+00 0.  1.
         24    1    1    2    0    0  0.18214037271E+02 -0.16852206803E+02  0.52886909832E+03  0.53552356357E+03  0.80419002446E+02 0. -1.
        -24    1    1    2    0    0 -0.18214037271E+02  0.16852206803E+02  0.17207510348E+03  0.19155366147E+03  0.80419002446E+02 0.  1.
<mgrwt>
<rscale>  0 0.84160347E+02</rscale>
<asrwt>0</asrwt>
<pdfrwt beam="1">  1        2 0.10984777E+00 0.84160347E+02</pdfrwt>
<pdfrwt beam="2">  1       -2 0.20102331E-02 0.84160347E+02</pdfrwt>
<totfact> 0.28195868E+04</totfact>
</mgrwt>
</event>
<event>
 4    1  0.1437859E-001  0.1370492E+03  0.7546771E-02  0.1217355E+00
         -2   -1    0    0    0  501 -0.00000000000E+00  0.00000000000E+00  0.12064728548E+02  0.12064728548E+02  0.00000000000E+00 0.  1.
          2   -1    0    0  501    0  0.00000000000E+00 -0.00000000000E+00 -0.21495618601E+04  0.21495618601E+04  0.00000000000E+00 0. -1.
         24    1    1    2    0    0  0.85319780335E+02 -0.70963482756E+02 -0.16363088053E+04  0.16420380638E+04  0.80419002446E+02 0.  0.
        -24    1    1    2    0    0 -0.85319780335E+02  0.70963482756E+02 -0.50118832628E+03  0.51958852485E+03  0.80419002446E+02 0.  1.
<mgrwt>
<rscale>  0 0.13704925E+03</rscale>
<asrwt>0</asrwt>
<pdfrwt beam="1">  1        2 0.33070197E+00 0.13704925E+03</pdfrwt>
<pdfrwt beam="2">  1       -2 0.18561113E-02 0.13704925E+03</pdfrwt>
<totfact> 0.53181116E+03</totfact>
</mgrwt>
</event>
<event>
 4    1  0.1437859E-001  0.8570080E+02  0.7546771E-02  0.1313610E+00
          1   -1    0    0  501    0  0.00000000000E+00  0.00000000000E+00  0.11040771380E+03  0.11040771380E+03  0.00000000000E+00 0. -1.
         -1   -1    0    0    0  501 -0.00000000000E+00 -0.00000000000E+00 -0.12968386945E+03  0.12968386945E+03  0.00000000000E+00 0.  1.
         24    1    1    2    0    0  0.13685577681E+02 -0.26270076452E+02 -0.93415842884E+02  0.12677203008E+03  0.80419002446E+02 0.  1.
        -24    1    1    2    0    0 -0.13685577681E+02  0.26270076452E+02  0.74139687241E+02  0.11331955318E+03  0.80419002446E+02 0. -1.
<mgrwt>
<rscale>  0 0.85700805E+02</rscale>
<asrwt>0</asrwt>
<pdfrwt beam="1">  1        1 0.16985802E-01 0.85700805E+02</pdfrwt>
<pdfrwt beam="2">  1       -1 0.19951365E-01 0.85700805E+02</pdfrwt>
<totfact> 0.58800849E+03</totfact>
</mgrwt>
</event>
<event>
 4    1  0.1437859E-001  0.8448832E+02  0.7546771E-02  0.1316776E+00
         -2   -1    0    0    0  501 -0.00000000000E+00  0.00000000000E+00  0.23215807359E+02  0.23215807359E+02  0.00000000000E+00 0.  1.
          2   -1    0    0  501    0  0.00000000000E+00 -0.00000000000E+00 -0.34133181613E+03  0.34133181613E+03  0.00000000000E+00 0. -1.
         24    1    1    2    0    0 -0.31111066888E+01  0.25717318552E+02 -0.21646440485E+03  0.23236848749E+03  0.80419002446E+02 0. -1.
        -24    1    1    2    0    0  0.31111066888E+01 -0.25717318552E+02 -0.10165160392E+03  0.13217913599E+03  0.80419002446E+02 0.  1.
<mgrwt>
<rscale>  0 0.84488315E+02</rscale>
<asrwt>0</asrwt>
<pdfrwt beam="1">  1        2 0.52512587E-01 0.84488315E+02</pdfrwt>
<pdfrwt beam="2">  1       -2 0.35716627E-02 0.84488315E+02</pdfrwt>
<totfact> 0.27369952E+04</totfact>
</mgrwt>
</event>
<event>
 4    1  0.1437859E-001  0.8319290E+02  0.7546771E-02  0.1320227E+00
          2   -1    0    0  501    0  0.00000000000E+00  0.00000000000E+00  0.38162823587E+02  0.38162823587E+02  0.00000000000E+00 0. -1.
         -2   -1    0    0    0  501 -0.00000000000E+00 -0.00000000000E+00 -0.19407704069E+03  0.19407704069E+03  0.00000000000E+00 0.  1.
         24    1    1    2    0    0  0.17440868166E+02  0.12233500083E+02 -0.48228100396E+02  0.96161364533E+02  0.80419002446E+02 0.  1.
        -24    1    1    2    0    0 -0.17440868166E+02 -0.12233500083E+02 -0.10768611671E+03  0.13607849974E+03  0.80419002446E+02 0.  1.
<mgrwt>
<rscale>  0 0.83192899E+02</rscale>
<asrwt>0</asrwt>
<pdfrwt beam="1">  1        2 0.58712036E-02 0.83192899E+02</pdfrwt>
<pdfrwt beam="2">  1       -2 0.29858007E-01 0.83192899E+02</pdfrwt>
<totfact> 0.11644226E+04</totfact>
</mgrwt>
</event>
<event>
 4    1  0.1437859E-001  0.8837836E+02  0.7546771E-02  0.1306827E+00
          1   -1    0    0  501    0  0.00000000000E+00  0.00000000000E+00  0.28200374203E+02  0.28200374203E+02  0.00000000000E+00 0. -1.
         -1   -1    0    0    0  501 -0.00000000000E+00 -0.00000000000E+00 -0.41099424443E+03  0.41099424443E+03  0.00000000000E+00 0.  1.
         24    1    1    2    0    0 -0.81510892925E+01  0.35736236758E+02 -0.31679660511E+03  0.32889333200E+03  0.80419002446E+02 0.  1.
        -24    1    1    2    0    0  0.81510892925E+01 -0.35736236758E+02 -0.65997265118E+02  0.11030128663E+03  0.80419002446E+02 0. -1.
<mgrwt>
<rscale>  0 0.88378362E+02</rscale>
<asrwt>0</asrwt>
<pdfrwt beam="1">  1        1 0.43385191E-02 0.88378362E+02</pdfrwt>
<pdfrwt beam="2">  1       -1 0.63229884E-01 0.88378362E+02</pdfrwt>
<totfact> 0.49173975E+03</totfact>
</mgrwt>
</event>
<event>
 4    1  0.1437859E-001  0.1052032E+03  0.7546771E-02  0.1269720E+00
         -1   -1    0    0    0  501 -0.00000000000E+00  0.00000000000E+00  0.92794631451E+01  0.92794631451E+01  0.00000000000E+00 0.  1.
          1   -1    0    0  501    0  0.00000000000E+00 -0.00000000000E+00 -0.14984489906E+04  0.14984489906E+04  0.00000000000E+00 0. -1.
         24    1    1    2    0    0 -0.35022433646E+02  0.58085498347E+02 -0.40406109508E+03  0.41753213109E+03  0.80419002446E+02 0.  1.
        -24    1    1    2    0    0  0.35022433646E+02 -0.58085498347E+02 -0.10851084324E+04  0.10901963227E+04  0.80419002446E+02 0. -1.
<mgrwt>
<rscale>  0 0.10520319E+03</rscale>
<asrwt>0</asrwt>
<pdfrwt beam="1">  1        1 0.23053037E+00 0.10520319E+03</pdfrwt>
<pdfrwt beam="2">  1       -1 0.14276112E-02 0.10520319E+03</pdfrwt>
<totfact> 0.77690184E+03</totfact>
</mgrwt>
</event>
<event>
 4    1  0.1437859E-001  0.1127068E+03  0.7546771E-02  0.1255638E+00
         -2   -1    0    0    0  501 -0.00000000000E+00  0.00000000000E+00  0.89156939652E+02  0.89156939652E+02  0.00000000000E+00 0.  1.
          2   -1    0    0  501    0  0.00000000000E+00 -0.00000000000E+00 -0.14734597057E+03  0.14734597057E+03  0.00000000000E+00 0. -1.
         24    1    1    2    0    0 -0.12116303243E+02 -0.78030704760E+02 -0.50590471235E+02  0.12354030688E+03  0.80419002446E+02 0.  0.
        -24    1    1    2    0    0  0.12116303243E+02  0.78030704760E+02 -0.75985596801E+01  0.11296260334E+03  0.80419002446E+02 0.  1.
<mgrwt>
<rscale>  0 0.11270675E+03</rscale>
<asrwt>0</asrwt>
<pdfrwt beam="1">  1        2 0.22668611E-01 0.11270675E+03</pdfrwt>
<pdfrwt beam="2">  1       -2 0.13716452E-01 0.11270675E+03</pdfrwt>
<totfact> 0.88730253E+03</totfact>
</mgrwt>
</event>
<event>
 4    1  0.1437859E-001  0.8476732E+02  0.7546771E-02  0.1316042E+00
          2   -1    0    0  501    0  0.00000000000E+00  0.00000000000E+00  0.39949979498E+02  0.39949979498E+02  0.00000000000E+00 0. -1.
         -2   -1    0    0    0  501 -0.00000000000E+00 -0.00000000000E+00 -0.23474882094E+03  0.23474882094E+03  0.00000000000E+00 0.  1.
         24    1    1    2    0    0  0.11110177085E+02 -0.24389483381E+02 -0.30985740987E+02  0.90253061075E+02  0.80419002446E+02 0. -1.
        -24    1    1    2    0    0 -0.11110177085E+02  0.24389483381E+02 -0.16381310045E+03  0.18444573936E+03  0.80419002446E+02 0.  1.
<mgrwt>
<rscale>  0 0.84767322E+02</rscale>
<asrwt>0</asrwt>
<pdfrwt beam="1">  1        2 0.61461509E-02 0.84767322E+02</pdfrwt>
<pdfrwt beam="2">  1       -2 0.36115202E-01 0.84767322E+02</pdfrwt>
<totfact> 0.78063828E+03</totfact>
</mgrwt>
</event>
<event>
 4    1  0.1437859E-001  0.1293101E+03  0.7546771E-02  0.1228483E+00
         -2   -1    0    0    0  501 -0.00000000000E+00  0.00000000000E+00  0.31024269056E+04  0.31024269056E+04  0.00000000000E+00 0.  1.
          2   -1    0    0  501    0  0.00000000000E+00 -0.00000000000E+00 -0.27381142590E+02  0.27381142590E+02  0.00000000000E+00 0. -1.
         24    1    1    2    0    0  0.34431090199E+02  0.95228062147E+02  0.13506785193E+03  0.18698776530E+03  0.80419002446E+02 0. -1.
        -24    1    1    2    0    0 -0.34431090199E+02 -0.95228062147E+02  0.29399779111E+04  0.29428202829E+04  0.80419002446E+02 0.  1.
<mgrwt>
<rscale>  0 0.12931009E+03</rscale>
<asrwt>0</asrwt>
<pdfrwt beam="1">  1        2 0.42124859E-02 0.12931009E+03</pdfrwt>
<pdfrwt beam="2">  1       -2 0.47729617E+00 0.12931009E+03</pdfrwt>
<totfact> 0.58989675E+00</totfact>
</mgrwt>
</event>
<event>
 4    1  0.1437859E-001  0.9397125E+02  0.7546771E-02  0.1293510E+00
          2   -1    0    0  501    0  0.00000000000E+00  0.00000000000E+00  0.43038260051E+03  0.43038260051E+03  0.00000000000E+00 0. -1.
         -2   -1    0    0    0  501 -0.00000000000E+00 -0.00000000000E+00 -0.25674777267E+03  0.25674777267E+03  0.00000000000E+00 0.  1.
         24    1    1    2    0    0  0.45164725974E+02 -0.17986871718E+02  0.41636877655E+03  0.42684136873E+03  0.80419002446E+02 0. -1.
        -24    1    1    2    0    0 -0.45164725974E+02  0.17986871718E+02 -0.24273394871E+03  0.26028900445E+03  0.80419002446E+02 0.  1.
<mgrwt>
<rscale>  0 0.93971251E+02</rscale>
<asrwt>0</asrwt>
<pdfrwt beam="1">  1        2 0.66212708E-01 0.93971251E+02</pdfrwt>
<pdfrwt beam="2">  1       -2 0.39499657E-01 0.93971251E+02</pdfrwt>
<totfact> 0.45319768E+02</totfact>
</mgrwt>
</event>
<event>
 4    1  0.1437859E-001  0.9525412E+02  0.7546771E-02  0.1290605E+00
          2   -1    0    0  501    0  0.00000000000E+00  0.00000000000E+00  0.31753556261E+03  0.31753556261E+03  0.00000000000E+00 0. -1.
         -2   -1    0    0    0  501 -0.00000000000E+00 -0.00000000000E+00 -0.29362848916E+02  0.29362848916E+02  0.00000000000E+00 0.  1.
         24    1    1    2    0    0  0.15758395773E+02 -0.48557182034E+02  0.11566143667E+03  0.14983628016E+03  0.80419002446E+02 0.  1.
        -24    1    1    2    0    0 -0.15758395773E+02  0.48557182034E+02  0.17251127702E+03  0.19706213136E+03  0.80419002446E+02 0. -1.
<mgrwt>
<rscale>  0 0.95254109E+02</rscale>
<asrwt>0</asrwt>
<pdfrwt beam="1">  1        2 0.48851623E-01 0.95254120E+02</pdfrwt>
<pdfrwt beam="2">  1       -2 0.45173616E-02 0.95254120E+02</pdfrwt>
<totfact> 0.21175510E+04</totfact>
</mgrwt>
</event>
<event>
 4    1  0.1437859E-001  0.8737810E+02  0.7546771E-02  0.1309328E+00
          1   -1    0    0  501    0  0.00000000000E+00  0.00000000000E+00  0.31972415385E+02  0.31972415385E+02  0.00000000000E+00 0. -1.
         -1   -1    0    0    0  501 -0.00000000000E+00 -0.00000000000E+00 -0.31728980847E+03  0.31728980847E+03  0.00000000000E+00 0.  1.
         24    1    1    2    0    0  0.15436867184E+02  0.30486380991E+02 -0.22951616396E+03  0.24558624100E+03  0.80419002446E+02 0.  1.
        -24    1    1    2    0    0 -0.15436867184E+02 -0.30486380991E+02 -0.55801229117E+02  0.10367598285E+03  0.80419002446E+02 0. -1.
<mgrwt>
<rscale>  0 0.87378099E+02</rscale>
<asrwt>0</asrwt>
<pdfrwt beam="1">  1        1 0.49188332E-02 0.87378099E+02</pdfrwt>
<pdfrwt beam="2">  1       -1 0.48813816E-01 0.87378099E+02</pdfrwt>
<totfact> 0.66843006E+03</totfact>
</mgrwt>
</event>
<event>
 4    1  0.1437859E-001  0.1693275E+03  0.7546771E-02  0.1178551E+00
         -2   -1    0    0    0  501 -0.00000000000E+00  0.00000000000E+00  0.28783121521E+02  0.28783121521E+02  0.00000000000E+00 0.  1.
          2   -1    0    0  501    0  0.00000000000E+00 -0.00000000000E+00 -0.11917780288E+04  0.11917780288E+04  0.00000000000E+00 0. -1.
         24    1    1    2    0    0  0.14696660575E+03 -0.24604998823E+02 -0.82876478017E+03  0.84588584689E+03  0.80419002446E+02 0. -1.
        -24    1    1    2    0    0 -0.14696660575E+03  0.24604998823E+02 -0.33423012707E+03  0.37467530339E+03  0.80419002446E+02 0.  1.
<mgrwt>
<rscale>  0 0.16932751E+03</rscale>
<asrwt>0</asrwt>
<pdfrwt beam="1">  1        2 0.18335046E+00 0.16932751E+03</pdfrwt>
<pdfrwt beam="2">  1       -2 0.44281727E-02 0.16932751E+03</pdfrwt>
<totfact> 0.47007665E+03</totfact>
</mgrwt>
</event>
<event>
 4    1  0.1437859E-001  0.1146879E+03  0.7546771E-02  0.1252127E+00
          3   -1    0    0  501    0  0.00000000000E+00  0.00000000000E+00  0.82563726144E+03  0.82563726144E+03  0.00000000000E+00 0. -1.
         -3   -1    0    0    0  501 -0.00000000000E+00 -0.00000000000E+00 -0.48939582728E+02  0.48939582728E+02  0.00000000000E+00 0.  1.
         24    1    1    2    0    0  0.64534237561E+02  0.50213748441E+02  0.29219677164E+02  0.11835156880E+03  0.80419002446E+02 0.  1.
        -24    1    1    2    0    0 -0.64534237561E+02 -0.50213748441E+02  0.74747800155E+03  0.75622527537E+03  0.80419002446E+02 0. -1.
<mgrwt>
<rscale>  0 0.11468786E+03</rscale>
<asrwt>0</asrwt>
<pdfrwt beam="1">  1        3 0.12702111E+00 0.11468786E+03</pdfrwt>
<pdfrwt beam="2">  1       -3 0.75291671E-02 0.11468786E+03</pdfrwt>
<totfact> 0.14014976E+02</totfact>
</mgrwt>
</event>
<event>
 4    1  0.1437859E-001  0.1031939E+03  0.7546771E-02  0.1273720E+00
         -1   -1    0    0    0  501 -0.00000000000E+00  0.00000000000E+00  0.77767669121E+02  0.77767669121E+02  0.00000000000E+00 0.  1.
          1   -1    0    0  501    0  0.00000000000E+00 -0.00000000000E+00 -0.54062452719E+03  0.54062452719E+03  0.00000000000E+00 0. -1.
         24    1    1    2    0    0  0.47721358056E+02  0.43639789779E+02  0.35755816106E+02  0.10921288205E+03  0.80419002446E+02 0.  1.
        -24    1    1    2    0    0 -0.47721358056E+02 -0.43639789779E+02 -0.49861267418E+03  0.50917931426E+03  0.80419002446E+02 0. -1.
<mgrwt>
<rscale>  0 0.10319387E+03</rscale>
<asrwt>0</asrwt>
<pdfrwt beam="1">  1        1 0.83173001E-01 0.10319387E+03</pdfrwt>
<pdfrwt beam="2">  1       -1 0.11964257E-01 0.10319387E+03</pdfrwt>
<totfact> 0.18277107E+03</totfact>
</mgrwt>
</event>
<event>
 4    1  0.1437859E-001  0.1198851E+03  0.7546771E-02  0.1243287E+00
         -2   -1    0    0    0  501 -0.00000000000E+00  0.00000000000E+00  0.46962127251E+02  0.46962127251E+02  0.00000000000E+00 0.  1.
          2   -1    0    0  501    0  0.00000000000E+00 -0.00000000000E+00 -0.30821139960E+03  0.30821139960E+03  0.00000000000E+00 0. -1.
         24    1    1    2    0    0  0.17836049268E+02  0.87103887985E+02 -0.14552033973E+03  0.18854335625E+03  0.80419002446E+02 0.  0.
        -24    1    1    2    0    0 -0.17836049268E+02 -0.87103887985E+02 -0.11572893261E+03  0.16663017060E+03  0.80419002446E+02 0.  1.
<mgrwt>
<rscale>  0 0.11988506E+03</rscale>
<asrwt>0</asrwt>
<pdfrwt beam="1">  1        2 0.47417138E-01 0.11988506E+03</pdfrwt>
<pdfrwt beam="2">  1       -2 0.72249428E-02 0.11988506E+03</pdfrwt>
<totfact> 0.11016054E+04</totfact>
</mgrwt>
</event>
<event>
 4    1  0.1437859E-001  0.1029636E+03  0.7546771E-02  0.1274184E+00
          1   -1    0    0  501    0  0.00000000000E+00  0.00000000000E+00  0.24576552571E+04  0.24576552571E+04  0.00000000000E+00 0. -1.
         -1   -1    0    0    0  501 -0.00000000000E+00 -0.00000000000E+00 -0.46412609427E+01  0.46412609427E+01  0.00000000000E+00 0.  1.
         24    1    1    2    0    0 -0.49312104199E+02  0.41262710535E+02  0.89942315903E+03  0.90529748142E+03  0.80419002446E+02 0.  0.
        -24    1    1    2    0    0  0.49312104199E+02 -0.41262710535E+02  0.15535908371E+04  0.15569990366E+04  0.80419002446E+02 0. -1.
<mgrwt>
<rscale>  0 0.10296364E+03</rscale>
<asrwt>0</asrwt>
<pdfrwt beam="1">  1        1 0.37809977E+00 0.10296364E+03</pdfrwt>
<pdfrwt beam="2">  1       -1 0.71404211E-03 0.10296364E+03</pdfrwt>
<totfact> 0.51051519E+03</totfact>
</mgrwt>
</event>
<event>
 4    1  0.1437859E-001  0.9932634E+02  0.7546771E-02  0.1281719E+00
         -2   -1    0    0    0  501 -0.00000000000E+00  0.00000000000E+00  0.77483231514E+01  0.77483231514E+01  0.00000000000E+00 0.  1.
          2   -1    0    0  501    0  0.00000000000E+00 -0.00000000000E+00 -0.16148647096E+04  0.16148647096E+04  0.00000000000E+00 0. -1.
         24    1    1    2    0    0  0.11527767357E+02  0.57145573837E+02 -0.11766977278E+04  0.11808824093E+04  0.80419002446E+02 0.  1.
        -24    1    1    2    0    0 -0.11527767357E+02 -0.57145573837E+02 -0.43041865872E+03  0.44173062353E+03  0.80419002446E+02 0.  0.
<mgrwt>
<rscale>  0 0.99326341E+02</rscale>
<asrwt>0</asrwt>
<pdfrwt beam="1">  1        2 0.24844087E+00 0.99326341E+02</pdfrwt>
<pdfrwt beam="2">  1       -2 0.11920490E-02 0.99326341E+02</pdfrwt>
<totfact> 0.18565196E+04</totfact>
</mgrwt>
</event>
<event>
 4    1  0.1437859E-001  0.1047450E+03  0.7546771E-02  0.1270623E+00
         -2   -1    0    0    0  501 -0.00000000000E+00  0.00000000000E+00  0.57970171799E+03  0.57970171799E+03  0.00000000000E+00 0.  1.
          2   -1    0    0  501    0  0.00000000000E+00 -0.00000000000E+00 -0.18934777712E+02  0.18934777712E+02  0.00000000000E+00 0. -1.
         24    1    1    2    0    0 -0.14041934906E+02  0.65628673186E+02  0.28677722730E+03  0.30530753796E+03  0.80419002446E+02 0.  1.
        -24    1    1    2    0    0  0.14041934906E+02 -0.65628673186E+02  0.27398971297E+03  0.29332895774E+03  0.80419002446E+02 0. -1.
<mgrwt>
<rscale>  0 0.10474501E+03</rscale>
<asrwt>0</asrwt>
<pdfrwt beam="1">  1        2 0.29130432E-02 0.10474502E+03</pdfrwt>
<pdfrwt beam="2">  1       -2 0.89184866E-01 0.10474502E+03</pdfrwt>
<totfact> 0.33885570E+03</totfact>
</mgrwt>
</event>
<event>
 4    1  0.1437859E-001  0.8697254E+02  0.7546771E-02  0.1310353E+00
          4   -1    0    0  501    0  0.00000000000E+00  0.00000000000E+00  0.26703795258E+03  0.26703795258E+03  0.00000000000E+00 0. -1.
         -4   -1    0    0    0  501 -0.00000000000E+00 -0.00000000000E+00 -0.28330893501E+02  0.28330893501E+02  0.00000000000E+00 0.  1.
         24    1    1    2    0    0 -0.88490569385E+01  0.31917022608E+02  0.11748913557E+03  0.14617768322E+03  0.80419002446E+02 0.  1.
        -24    1    1    2    0    0  0.88490569385E+01 -0.31917022608E+02  0.12121792351E+03  0.14919116286E+03  0.80419002446E+02 0. -1.
<mgrwt>
<rscale>  0 0.86972524E+02</rscale>
<asrwt>0</asrwt>
<pdfrwt beam="1">  1        4 0.41082760E-01 0.86972535E+02</pdfrwt>
<pdfrwt beam="2">  1       -4 0.43585992E-02 0.86972535E+02</pdfrwt>
<totfact> 0.25217337E+03</totfact>
</mgrwt>
</event>
<event>
 4    1  0.1437859E-001  0.1005479E+03  0.7546771E-02  0.1279148E+00
         -2   -1    0    0    0  501 -0.00000000000E+00  0.00000000000E+00  0.37975228391E+03  0.37975228391E+03  0.00000000000E+00 0.  1.
          2   -1    0    0  501    0  0.00000000000E+00 -0.00000000000E+00 -0.26634145531E+02  0.26634145531E+02  0.00000000000E+00 0. -1.
         24    1    1    2    0    0 -0.27049793642E+02 -0.53953403575E+02  0.18084526796E+03  0.20691758744E+03  0.80419002446E+02 0. -1.
        -24    1    1    2    0    0  0.27049793642E+02  0.53953403575E+02  0.17227287042E+03  0.19946884200E+03  0.80419002446E+02 0.  1.
<mgrwt>
<rscale>  0 0.10054790E+03</rscale>
<asrwt>0</asrwt>
<pdfrwt beam="1">  1        2 0.40975611E-02 0.10054791E+03</pdfrwt>
<pdfrwt beam="2">  1       -2 0.58423424E-01 0.10054791E+03</pdfrwt>
<totfact> 0.52875371E+03</totfact>
</mgrwt>
</event>
<event>
 4    1  0.1437859E-001  0.1012627E+03  0.7546771E-02  0.1277663E+00
         -2   -1    0    0    0  501 -0.00000000000E+00  0.00000000000E+00  0.13645414337E+03  0.13645414337E+03  0.00000000000E+00 0.  1.
          2   -1    0    0  501    0  0.00000000000E+00 -0.00000000000E+00 -0.82180721945E+02  0.82180721945E+02  0.00000000000E+00 0. -1.
         24    1    1    2    0    0  0.60948283555E+02 -0.84986754086E+01 -0.48443714637E+01  0.10137852160E+03  0.80419002446E+02 0. -1.
        -24    1    1    2    0    0 -0.60948283555E+02  0.84986754086E+01  0.59117792892E+02  0.11725634372E+03  0.80419002446E+02 0.  1.
<mgrwt>
<rscale>  0 0.10126271E+03</rscale>
<asrwt>0</asrwt>
<pdfrwt beam="1">  1        2 0.12643188E-01 0.10126271E+03</pdfrwt>
<pdfrwt beam="2">  1       -2 0.20992945E-01 0.10126271E+03</pdfrwt>
<totfact> 0.85078805E+03</totfact>
</mgrwt>
</event>
<event>
 4    1  0.1437859E-001  0.9518641E+02  0.7546771E-02  0.1290757E+00
          1   -1    0    0  501    0  0.00000000000E+00  0.00000000000E+00  0.11114079302E+04  0.11114079302E+04  0.00000000000E+00 0. -1.
         -1   -1    0    0    0  501 -0.00000000000E+00 -0.00000000000E+00 -0.10105297438E+02  0.10105297438E+02  0.00000000000E+00 0.  1.
         24    1    1    2    0    0  0.49462898798E+02 -0.12110293193E+02  0.30412775703E+03  0.31867561267E+03  0.80419002446E+02 0.  1.
        -24    1    1    2    0    0 -0.49462898798E+02  0.12110293193E+02  0.79717487575E+03  0.80283761499E+03  0.80419002446E+02 0. -1.
<mgrwt>
<rscale>  0 0.95186415E+02</rscale>
<asrwt>0</asrwt>
<pdfrwt beam="1">  1        1 0.17098574E+00 0.95186415E+02</pdfrwt>
<pdfrwt beam="2">  1       -1 0.15546620E-02 0.95186415E+02</pdfrwt>
<totfact> 0.12342354E+04</totfact>
</mgrwt>
</event>
<event>
 4    1  0.1437859E-001  0.2109932E+03  0.7546771E-02  0.1140782E+00
          1   -1    0    0  501    0  0.00000000000E+00  0.00000000000E+00  0.14080457446E+03  0.14080457446E+03  0.00000000000E+00 0. -1.
         -1   -1    0    0    0  501 -0.00000000000E+00 -0.00000000000E+00 -0.36668450587E+03  0.36668450587E+03  0.00000000000E+00 0.  1.
         24    1    1    2    0    0 -0.10351802731E+03  0.16533282456E+03 -0.20712019600E+03  0.29566351889E+03  0.80419002446E+02 0.  1.
        -24    1    1    2    0    0  0.10351802731E+03 -0.16533282456E+03 -0.18759735409E+02  0.21182556144E+03  0.80419002446E+02 0. -1.
<mgrwt>
<rscale>  0 0.21099322E+03</rscale>
<asrwt>0</asrwt>
<pdfrwt beam="1">  1        1 0.21662243E-01 0.21099322E+03</pdfrwt>
<pdfrwt beam="2">  1       -1 0.56413000E-01 0.21099322E+03</pdfrwt>
<totfact> 0.75311716E+02</totfact>
</mgrwt>
</event>
<event>
 4    1  0.1437859E-001  0.9401775E+02  0.7546771E-02  0.1293404E+00
          1   -1    0    0  501    0  0.00000000000E+00  0.00000000000E+00  0.31986229803E+04  0.31986229803E+04  0.00000000000E+00 0. -1.
         -1   -1    0    0    0  501 -0.00000000000E+00 -0.00000000000E+00 -0.70490577235E+01  0.70490577235E+01  0.00000000000E+00 0.  1.
         24    1    1    2    0    0  0.11717513370E+01  0.48690325487E+02  0.34602255711E+03  0.35856791097E+03  0.80419002446E+02 0.  1.
        -24    1    1    2    0    0 -0.11717513370E+01 -0.48690325487E+02  0.28455513654E+04  0.28471041270E+04  0.80419002446E+02 0. -1.
<mgrwt>
<rscale>  0 0.94017747E+02</rscale>
<asrwt>0</asrwt>
<pdfrwt beam="1">  1        1 0.49209468E+00 0.94017747E+02</pdfrwt>
<pdfrwt beam="2">  1       -1 0.10844730E-02 0.94017747E+02</pdfrwt>
<totfact> 0.90490554E+02</totfact>
</mgrwt>
</event>
<event>
 4    1  0.1437859E-001  0.9219070E+02  0.7546771E-02  0.1297632E+00
          3   -1    0    0  501    0  0.00000000000E+00  0.00000000000E+00  0.46041574926E+02  0.46041574926E+02  0.00000000000E+00 0. -1.
         -3   -1    0    0    0  501 -0.00000000000E+00 -0.00000000000E+00 -0.28591396656E+03  0.28591396656E+03  0.00000000000E+00 0.  1.
         24    1    1    2    0    0 -0.44860455189E+02  0.44101311103E+01 -0.21874003979E+03  0.23737382050E+03  0.80419002446E+02 0.  1.
        -24    1    1    2    0    0  0.44860455189E+02 -0.44101311103E+01 -0.21132351842E+02  0.94581720987E+02  0.80419002446E+02 0. -1.
<mgrwt>
<rscale>  0 0.92190703E+02</rscale>
<asrwt>0</asrwt>
<pdfrwt beam="1">  1        3 0.70833193E-02 0.92190703E+02</pdfrwt>
<pdfrwt beam="2">  1       -3 0.43986763E-01 0.92190703E+02</pdfrwt>
<totfact> 0.14383876E+03</totfact>
</mgrwt>
</event>
<event>
 4    1  0.1437859E-001  0.8355984E+02  0.7546771E-02  0.1319242E+00
          3   -1    0    0  501    0  0.00000000000E+00  0.00000000000E+00  0.57615677760E+02  0.57615677760E+02  0.00000000000E+00 0. -1.
         -3   -1    0    0    0  501 -0.00000000000E+00 -0.00000000000E+00 -0.12690735366E+03  0.12690735366E+03  0.00000000000E+00 0.  1.
         24    1    1    2    0    0 -0.20433364987E+02  0.98746044686E+01 -0.54234513864E+02  0.99617411463E+02  0.80419002446E+02 0.  1.
        -24    1    1    2    0    0  0.20433364987E+02 -0.98746044686E+01 -0.15057162040E+02  0.84905619962E+02  0.80419002446E+02 0. -1.
<mgrwt>
<rscale>  0 0.83559836E+02</rscale>
<asrwt>0</asrwt>
<pdfrwt beam="1">  1        3 0.88639505E-02 0.83559836E+02</pdfrwt>
<pdfrwt beam="2">  1       -3 0.19524208E-01 0.83559836E+02</pdfrwt>
<totfact> 0.43376699E+03</totfact>
</mgrwt>
</event>
<event>
 4    1  0.1437859E-001  0.8580219E+02  0.7546771E-02  0.1313348E+00
          1   -1    0    0  501    0  0.00000000000E+00  0.00000000000E+00  0.12191668326E+04  0.12191668326E+04  0.00000000000E+00 0. -1.
         -1   -1    0    0    0  501 -0.00000000000E+00 -0.00000000000E+00 -0.60632011163E+01  0.60632011163E+01  0.00000000000E+00 0.  1.
         24    1    1    2    0    0  0.12001546614E+02 -0.27400057555E+02  0.56750040194E+03  0.57395010447E+03  0.80419002446E+02 0.  1.
        -24    1    1    2    0    0 -0.12001546614E+02  0.27400057555E+02  0.64560322951E+03  0.65127992920E+03  0.80419002446E+02 0. -1.
<mgrwt>
<rscale>  0 0.85802192E+02</rscale>
<asrwt>0</asrwt>
<pdfrwt beam="1">  1        1 0.18756393E+00 0.85802192E+02</pdfrwt>
<pdfrwt beam="2">  1       -1 0.93280114E-03 0.85802192E+02</pdfrwt>
<totfact> 0.21299508E+04</totfact>
</mgrwt>
</event>
<event>
 4    1  0.1437859E-001  0.8953663E+02  0.7546771E-02  0.1303978E+00
          2   -1    0    0  501    0  0.00000000000E+00  0.00000000000E+00  0.34926750586E+02  0.34926750586E+02  0.00000000000E+00 0. -1.
         -2   -1    0    0    0  501 -0.00000000000E+00 -0.00000000000E+00 -0.31540048431E+03  0.31540048431E+03  0.00000000000E+00 0.  1.
         24    1    1    2    0    0 -0.31007131912E+02 -0.24251800744E+02 -0.48840370835E+02  0.10199112631E+03  0.80419002446E+02 0.  0.
        -24    1    1    2    0    0  0.31007131912E+02  0.24251800744E+02 -0.23163336289E+03  0.24833610858E+03  0.80419002446E+02 0.  0.
<mgrwt>
<rscale>  0 0.89536630E+02</rscale>
<asrwt>0</asrwt>
<pdfrwt beam="1">  1        2 0.53733464E-02 0.89536630E+02</pdfrwt>
<pdfrwt beam="2">  1       -2 0.48523150E-01 0.89536630E+02</pdfrwt>
<totfact> 0.53266814E+03</totfact>
</mgrwt>
</event>
<event>
 4    1  0.1437859E-001  0.1024104E+03  0.7546771E-02  0.1275307E+00
          2   -1    0    0  501    0  0.00000000000E+00  0.00000000000E+00  0.19890220219E+03  0.19890220219E+03  0.00000000000E+00 0. -1.
         -2   -1    0    0    0  501 -0.00000000000E+00 -0.00000000000E+00 -0.96123777989E+02  0.96123777989E+02  0.00000000000E+00 0.  1.
         24    1    1    2    0    0  0.41570788472E+02  0.47880551519E+02  0.15050300681E+03  0.18204133783E+03  0.80419002446E+02 0. -1.
        -24    1    1    2    0    0 -0.41570788472E+02 -0.47880551519E+02 -0.47724582601E+02  0.11298464235E+03  0.80419002446E+02 0.  1.
<mgrwt>
<rscale>  0 0.10241042E+03</rscale>
<asrwt>0</asrwt>
<pdfrwt beam="1">  1        2 0.30600339E-01 0.10241042E+03</pdfrwt>
<pdfrwt beam="2">  1       -2 0.14788274E-01 0.10241042E+03</pdfrwt>
<totfact> 0.56251392E+03</totfact>
</mgrwt>
</event>
<event>
 4    1  0.1525607E-001  0.8354878E+02  0.7546771E-02  0.1319272E+00
          1   -1    0    0  501    0  0.00000000000E+00  0.00000000000E+00  0.23069940844E+04  0.23069940844E+04  0.00000000000E+00 0. -1.
         -1   -1    0    0    0  501 -0.00000000000E+00 -0.00000000000E+00 -0.12890960853E+02  0.12890960853E+02  0.00000000000E+00 0.  1.
         24    1    1    2    0    0 -0.16433748763E+02  0.15592142842E+02  0.13232997376E+03  0.15649799017E+03  0.80419002446E+02 0.  1.
        -24    1    1    2    0    0  0.16433748763E+02 -0.15592142842E+02  0.21617731498E+04  0.21633870551E+04  0.80419002446E+02 0. -1.
<mgrwt>
<rscale>  0 0.83548782E+02</rscale>
<asrwt>0</asrwt>
<pdfrwt beam="1">  1        1 0.35492184E+00 0.83548782E+02</pdfrwt>
<pdfrwt beam="2">  1       -1 0.19832266E-02 0.83548782E+02</pdfrwt>
<totfact> 0.14977065E+03</totfact>
</mgrwt>
</event>
<event>
 4    1  0.1437859E-001  0.1084676E+03  0.7546771E-02  0.1263434E+00
         -1   -1    0    0    0  501 -0.00000000000E+00  0.00000000000E+00  0.54908356622E+02  0.54908356622E+02  0.00000000000E+00 0.  1.
          1   -1    0    0  501    0  0.00000000000E+00 -0.00000000000E+00 -0.22507839715E+03  0.22507839715E+03  0.00000000000E+00 0. -1.
         24    1    1    2    0    0  0.73017810386E+01 -0.72420128340E+02 -0.11576278082E+03  0.15863867238E+03  0.80419002446E+02 0.  0.
        -24    1    1    2    0    0 -0.73017810386E+01  0.72420128340E+02 -0.54407259703E+02  0.12134808139E+03  0.80419002446E+02 0.  0.
<mgrwt>
<rscale>  0 0.10846755E+03</rscale>
<asrwt>0</asrwt>
<pdfrwt beam="1">  1        1 0.34627446E-01 0.10846757E+03</pdfrwt>
<pdfrwt beam="2">  1       -1 0.84474394E-02 0.10846757E+03</pdfrwt>
<totfact> 0.92717197E+03</totfact>
</mgrwt>
</event>
<event>
 4    1  0.1437859E-001  0.8337039E+02  0.7546771E-02  0.1319750E+00
          2   -1    0    0  501    0  0.00000000000E+00  0.00000000000E+00  0.21917159237E+04  0.21917159237E+04  0.00000000000E+00 0. -1.
         -2   -1    0    0    0  501 -0.00000000000E+00 -0.00000000000E+00 -0.99224796202E+01  0.99224796202E+01  0.00000000000E+00 0.  1.
         24    1    1    2    0    0 -0.21429181679E+02  0.49190375655E+01  0.19989163177E+04  0.20006541600E+04  0.80419002446E+02 0. -1.
        -24    1    1    2    0    0  0.21429181679E+02 -0.49190375655E+01  0.18287712632E+03  0.20098424327E+03  0.80419002446E+02 0.  1.
<mgrwt>
<rscale>  0 0.83370395E+02</rscale>
<asrwt>0</asrwt>
<pdfrwt beam="1">  1        2 0.33718668E+00 0.83370395E+02</pdfrwt>
<pdfrwt beam="2">  1       -2 0.15265371E-02 0.83370395E+02</pdfrwt>
<totfact> 0.66385343E+03</totfact>
</mgrwt>
</event>
<event>
 4    1  0.1437859E-001  0.9568165E+02  0.7546771E-02  0.1289648E+00
          4   -1    0    0  501    0  0.00000000000E+00  0.00000000000E+00  0.60443533604E+02  0.60443533604E+02  0.00000000000E+00 0. -1.
         -4   -1    0    0    0  501 -0.00000000000E+00 -0.00000000000E+00 -0.28822898590E+03  0.28822898590E+03  0.00000000000E+00 0.  1.
         24    1    1    2    0    0  0.46160834277E+02  0.23599572990E+02  0.61974372429E+01  0.95882149795E+02  0.80419002446E+02 0. -1.
        -24    1    1    2    0    0 -0.46160834277E+02 -0.23599572990E+02 -0.23398288954E+03  0.25279036971E+03  0.80419002446E+02 0.  1.
<mgrwt>
<rscale>  0 0.95681651E+02</rscale>
<asrwt>0</asrwt>
<pdfrwt beam="1">  1        4 0.92990050E-02 0.95681651E+02</pdfrwt>
<pdfrwt beam="2">  1       -4 0.44342922E-01 0.95681651E+02</pdfrwt>
<totfact> 0.65194204E+02</totfact>
</mgrwt>
</event>
<event>
 4    1  0.1437859E-001  0.8476944E+02  0.7546771E-02  0.1316037E+00
          2   -1    0    0  501    0  0.00000000000E+00  0.00000000000E+00  0.57875301962E+03  0.57875301962E+03  0.00000000000E+00 0. -1.
         -2   -1    0    0    0  501 -0.00000000000E+00 -0.00000000000E+00 -0.21442124368E+02  0.21442124368E+02  0.00000000000E+00 0.  1.
         24    1    1    2    0    0 -0.22078298927E+02  0.15204945271E+02  0.47336028180E+03  0.48089064660E+03  0.80419002446E+02 0. -1.
        -24    1    1    2    0    0  0.22078298927E+02 -0.15204945271E+02  0.83950613445E+02  0.11930449739E+03  0.80419002446E+02 0.  0.
<mgrwt>
<rscale>  0 0.84769438E+02</rscale>
<asrwt>0</asrwt>
<pdfrwt beam="1">  1        2 0.89038914E-01 0.84769438E+02</pdfrwt>
<pdfrwt beam="2">  1       -2 0.32987888E-02 0.84769438E+02</pdfrwt>
<totfact> 0.17517243E+04</totfact>
</mgrwt>
</event>
<event>
 4    1  0.1437859E-001  0.1153293E+03  0.7546771E-02  0.1251007E+00
         -2   -1    0    0    0  501 -0.00000000000E+00  0.00000000000E+00  0.93535588894E+01  0.93535588894E+01  0.00000000000E+00 0.  1.
          2   -1    0    0  501    0  0.00000000000E+00 -0.00000000000E+00 -0.17676047218E+04  0.17676047218E+04  0.00000000000E+00 0. -1.
         24    1    1    2    0    0 -0.31653890445E+02  0.76365306010E+02 -0.12719865232E+04  0.12772041967E+04  0.80419002446E+02 0.  1.
        -24    1    1    2    0    0  0.31653890445E+02 -0.76365306010E+02 -0.48626463968E+03  0.49975408403E+03  0.80419002446E+02 0. -1.
<mgrwt>
<rscale>  0 0.11532929E+03</rscale>
<asrwt>0</asrwt>
<pdfrwt beam="1">  1        2 0.27193890E+00 0.11532929E+03</pdfrwt>
<pdfrwt beam="2">  1       -2 0.14390106E-02 0.11532929E+03</pdfrwt>
<totfact> 0.11965477E+04</totfact>
</mgrwt>
</event>
<event>
 4    1  0.1437859E-001  0.1192907E+03  0.7546771E-02  0.1244272E+00
         -1   -1    0    0    0  501 -0.00000000000E+00  0.00000000000E+00  0.65444468429E+02  0.65444468429E+02  0.00000000000E+00 0.  1.
          1   -1    0    0  501    0  0.00000000000E+00 -0.00000000000E+00 -0.21751753947E+03  0.21751753947E+03  0.00000000000E+00 0. -1.
         24    1    1    2    0    0  0.26540184998E+01 -0.88068178525E+02 -0.73370204446E+02  0.14004803011E+03  0.80419002446E+02 0.  1.
        -24    1    1    2    0    0 -0.26540184998E+01  0.88068178525E+02 -0.78702866596E+02  0.14291397779E+03  0.80419002446E+02 0. -1.
<mgrwt>
<rscale>  0 0.11929067E+03</rscale>
<asrwt>0</asrwt>
<pdfrwt beam="1">  1        1 0.33464237E-01 0.11929067E+03</pdfrwt>
<pdfrwt beam="2">  1       -1 0.10068380E-01 0.11929067E+03</pdfrwt>
<totfact> 0.74699091E+03</totfact>
</mgrwt>
</event>
<event>
 4    1  0.1437859E-001  0.8181068E+02  0.7546771E-02  0.1323990E+00
          2   -1    0    0  501    0  0.00000000000E+00  0.00000000000E+00  0.11423713444E+03  0.11423713444E+03  0.00000000000E+00 0. -1.
         -2   -1    0    0    0  501 -0.00000000000E+00 -0.00000000000E+00 -0.59222679954E+02  0.59222679954E+02  0.00000000000E+00 0.  1.
         24    1    1    2    0    0 -0.13329835561E+02  0.69344231886E+01  0.36481888928E+02  0.89576307778E+02  0.80419002446E+02 0. -1.
        -24    1    1    2    0    0  0.13329835561E+02 -0.69344231886E+01  0.18532565553E+02  0.83883506611E+02  0.80419002446E+02 0.  1.
<mgrwt>
<rscale>  0 0.81810676E+02</rscale>
<asrwt>0</asrwt>
<pdfrwt beam="1">  1        2 0.17574944E-01 0.81810676E+02</pdfrwt>
<pdfrwt beam="2">  1       -2 0.91111815E-02 0.81810676E+02</pdfrwt>
<totfact> 0.21748480E+04</totfact>
</mgrwt>
</event>
<event>
 4    1  0.1437859E-001  0.8460668E+02  0.7546771E-02  0.1316464E+00
         -2   -1    0    0    0  501 -0.00000000000E+00  0.00000000000E+00  0.13402736143E+02  0.13402736143E+02  0.00000000000E+00 0.  1.
          2   -1    0    0  501    0  0.00000000000E+00 -0.00000000000E+00 -0.74856982498E+03  0.74856982498E+03  0.00000000000E+00 0. -1.
         24    1    1    2    0    0  0.12804348270E+02 -0.22959165737E+02 -0.57151520085E+03  0.57774381466E+03  0.80419002446E+02 0. -1.
        -24    1    1    2    0    0 -0.12804348270E+02  0.22959165737E+02 -0.16365188799E+03  0.18422874646E+03  0.80419002446E+02 0.  1.
<mgrwt>
<rscale>  0 0.84606682E+02</rscale>
<asrwt>0</asrwt>
<pdfrwt beam="1">  1        2 0.11516461E+00 0.84606682E+02</pdfrwt>
<pdfrwt beam="2">  1       -2 0.20619590E-02 0.84606682E+02</pdfrwt>
<totfact> 0.25727622E+04</totfact>
</mgrwt>
</event>
