<event>
 4    1  0.4880711E-008  0.2568968E+03  0.7818608E-02  0.1109022E+00
          2   -1    0    0  501    0  0.00000000000E+00  0.00000000000E+00  0.20927606950E+04  0.20927606950E+04  0.25500000000E-02 0. -1.
         -2   -1    0    0    0  501 -0.00000000000E+00 -0.00000000000E+00 -0.69098620163E+02  0.69098620210E+02  0.25500000000E-02 0.  1.
    8880022    1    1    2    0    0 -0.21967556429E+02  0.20523582193E+03  0.21485665022E+03  0.33490199954E+03  0.15294330000E+03 0.  0.
    8880022    1    1    2    0    0  0.21967556429E+02 -0.20523582193E+03  0.18088054246E+04  0.18269573157E+04  0.15294330000E+03 0. -1.
<mgrwt>
<rscale>  0 0.25689681E+03</rscale>
<asrwt>0</asrwt>
<pdfrwt beam="1">  1        2 0.32196324E+00 0.25689681E+03</pdfrwt>
<pdfrwt beam="2">  1       -2 0.10630555E-01 0.25689681E+03</pdfrwt>
<totfact> 0.40134861E+02</totfact>
</mgrwt>
</event>
<event>
 4    1  0.4880711E-008  0.6293568E+03  0.7818608E-02  0.9846305E-01
         -2   -1    0    0    0  501 -0.00000000000E+00  0.00000000000E+00  0.18940571836E+03  0.18940571838E+03  0.25500000000E-02 0.  1.
          2   -1    0    0  501    0  0.00000000000E+00 -0.00000000000E+00 -0.30159536027E+04  0.30159536027E+04  0.25500000000E-02 0. -1.
    8880022    1    1    2    0    0  0.55930420989E+03 -0.24469809866E+03 -0.23007190411E+04  0.23852459240E+04  0.15294330000E+03 0.  0.
    8880022    1    1    2    0    0 -0.55930420989E+03  0.24469809866E+03 -0.52582884318E+03  0.82011339706E+03  0.15294330000E+03 0.  0.
<mgrwt>
<rscale>  0 0.62935682E+03</rscale>
<asrwt>0</asrwt>
<pdfrwt beam="1">  1        2 0.46399283E+00 0.62935682E+03</pdfrwt>
<pdfrwt beam="2">  1       -2 0.29139343E-01 0.62935682E+03</pdfrwt>
<totfact> 0.19949242E+01</totfact>
</mgrwt>
</event>
<event>
 4    1  0.4880711E-008  0.2673394E+03  0.7818608E-02  0.1102812E+00
          2   -1    0    0  501    0  0.00000000000E+00  0.00000000000E+00  0.23435287966E+04  0.23435287966E+04  0.25500000000E-02 0. -1.
         -2   -1    0    0    0  501 -0.00000000000E+00 -0.00000000000E+00 -0.47624305537E+02  0.47624305605E+02  0.25500000000E-02 0.  1.
    8880022    1    1    2    0    0 -0.21628705391E+03 -0.36036596198E+02  0.18649350945E+04  0.18839992796E+04  0.15294330000E+03 0.  0.
    8880022    1    1    2    0    0  0.21628705391E+03  0.36036596198E+02  0.43096939655E+03  0.50715382256E+03  0.15294330000E+03 0.  1.
<mgrwt>
<rscale>  0 0.26733945E+03</rscale>
<asrwt>0</asrwt>
<pdfrwt beam="1">  1        2 0.36054290E+00 0.26733945E+03</pdfrwt>
<pdfrwt beam="2">  1       -2 0.73268161E-02 0.26733945E+03</pdfrwt>
<totfact> 0.53021383E+02</totfact>
</mgrwt>
</event>
<event>
 4    1  0.4880711E-008  0.5991204E+03  0.7818608E-02  0.9907233E-01
          2   -1    0    0  501    0  0.00000000000E+00  0.00000000000E+00  0.27118916353E+04  0.27118916353E+04  0.25500000000E-02 0. -1.
         -2   -1    0    0    0  501 -0.00000000000E+00 -0.00000000000E+00 -0.38049936869E+03  0.38049936869E+03  0.25500000000E-02 0.  1.
    8880022    1    1    2    0    0 -0.34734660458E+03 -0.46357731327E+03  0.24143311464E+04  0.24875570600E+04  0.15294330000E+03 0.  0.
    8880022    1    1    2    0    0  0.34734660458E+03  0.46357731327E+03 -0.82938879756E+02  0.60483394406E+03  0.15294330000E+03 0.  0.
<mgrwt>
<rscale>  0 0.59912039E+03</rscale>
<asrwt>0</asrwt>
<pdfrwt beam="1">  1        2 0.41721410E+00 0.59912039E+03</pdfrwt>
<pdfrwt beam="2">  1       -2 0.58538364E-01 0.59912039E+03</pdfrwt>
<totfact> 0.77536719E+00</totfact>
</mgrwt>
</event>
<event>
 4    1  0.4880711E-008  0.2010466E+03  0.7818608E-02  0.1148859E+00
          2   -1    0    0  501    0  0.00000000000E+00  0.00000000000E+00  0.12484092652E+04  0.12484092652E+04  0.25500000000E-02 0. -1.
         -2   -1    0    0    0  501 -0.00000000000E+00 -0.00000000000E+00 -0.12905074519E+03  0.12905074521E+03  0.25500000000E-02 0.  1.
    8880022    1    1    2    0    0  0.10410330957E+03 -0.78680247042E+02 -0.36426120116E+02  0.20431983648E+03  0.15294330000E+03 0.  1.
    8880022    1    1    2    0    0 -0.10410330957E+03  0.78680247042E+02  0.11557846402E+04  0.11731401740E+04  0.15294330000E+03 0.  0.
<mgrwt>
<rscale>  0 0.20104659E+03</rscale>
<asrwt>0</asrwt>
<pdfrwt beam="1">  1        2 0.19206296E+00 0.20104659E+03</pdfrwt>
<pdfrwt beam="2">  1       -2 0.19853961E-01 0.20104659E+03</pdfrwt>
<totfact> 0.40575393E+02</totfact>
</mgrwt>
</event>
<event>
 4    1  0.4880711E-008  0.3968926E+03  0.7818608E-02  0.1044861E+00
         -2   -1    0    0    0  501 -0.00000000000E+00  0.00000000000E+00  0.20558348619E+04  0.20558348619E+04  0.25500000000E-02 0.  1.
          2   -1    0    0  501    0  0.00000000000E+00 -0.00000000000E+00 -0.20532288037E+03  0.20532288038E+03  0.25500000000E-02 0. -1.
    8880022    1    1    2    0    0 -0.16856215546E+02 -0.36585233280E+03  0.18203562633E+04  0.18631212091E+04  0.15294330000E+03 0.  1.
    8880022    1    1    2    0    0  0.16856215546E+02  0.36585233280E+03  0.30155718257E+02  0.39803653322E+03  0.15294330000E+03 0.  0.
<mgrwt>
<rscale>  0 0.39689257E+03</rscale>
<asrwt>0</asrwt>
<pdfrwt beam="1">  1        2 0.31588135E-01 0.39689257E+03</pdfrwt>
<pdfrwt beam="2">  1       -2 0.31628229E+00 0.39689257E+03</pdfrwt>
<totfact> 0.47060001E+00</totfact>
</mgrwt>
</event>
<event>
 4    1  0.4880711E-008  0.1142910E+04  0.7818608E-02  0.9164349E-01
          2   -1    0    0  501    0  0.00000000000E+00  0.00000000000E+00  0.89696679921E+03  0.89696679921E+03  0.25500000000E-02 0. -1.
         -2   -1    0    0    0  501 -0.00000000000E+00 -0.00000000000E+00 -0.30823633549E+04  0.30823633549E+04  0.25500000000E-02 0.  1.
    8880022    1    1    2    0    0 -0.43568388529E+03  0.10454812622E+04  0.35243605270E+03  0.11960160291E+04  0.15294330000E+03 0.  0.
    8880022    1    1    2    0    0  0.43568388529E+03 -0.10454812622E+04 -0.25378326084E+04  0.27833141251E+04  0.15294330000E+03 0.  0.
<mgrwt>
<rscale>  0 0.11429100E+04</rscale>
<asrwt>0</asrwt>
<pdfrwt beam="1">  1        2 0.13799489E+00 0.11429100E+04</pdfrwt>
<pdfrwt beam="2">  1       -2 0.47420974E+00 0.11429100E+04</pdfrwt>
<totfact> 0.70351748E-02</totfact>
</mgrwt>
</event>
<event>
 4    1  0.4880711E-008  0.5796983E+03  0.7818608E-02  0.9948444E-01
         -2   -1    0    0    0  501 -0.00000000000E+00  0.00000000000E+00  0.17799663952E+03  0.17799663954E+03  0.25500000000E-02 0.  1.
          2   -1    0    0  501    0  0.00000000000E+00 -0.00000000000E+00 -0.40728664832E+04  0.40728664832E+04  0.25500000000E-02 0. -1.
    8880022    1    1    2    0    0 -0.24463740460E+02  0.55862330080E+03 -0.39070347863E+03  0.69907033124E+03  0.15294330000E+03 0.  0.
    8880022    1    1    2    0    0  0.24463740460E+02 -0.55862330080E+03 -0.35041663650E+04  0.35517927915E+04  0.15294330000E+03 0.  0.
<mgrwt>
<rscale>  0 0.57969830E+03</rscale>
<asrwt>0</asrwt>
<pdfrwt beam="1">  1        2 0.62659478E+00 0.57969830E+03</pdfrwt>
<pdfrwt beam="2">  1       -2 0.27384101E-01 0.57969830E+03</pdfrwt>
<totfact> 0.41924234E+00</totfact>
</mgrwt>
</event>
<event>
 4    1  0.4880711E-008  0.7565756E+03  0.7818608E-02  0.9625090E-01
         -2   -1    0    0    0  501 -0.00000000000E+00  0.00000000000E+00  0.69898735981E+03  0.69898735982E+03  0.25500000000E-02 0.  1.
          2   -1    0    0  501    0  0.00000000000E+00 -0.00000000000E+00 -0.14614536142E+04  0.14614536142E+04  0.25500000000E-02 0. -1.
    8880022    1    1    2    0    0  0.22731805108E+03  0.70522444245E+03  0.33502855378E+03  0.82743627878E+03  0.15294330000E+03 0.  0.
    8880022    1    1    2    0    0 -0.22731805108E+03 -0.70522444245E+03 -0.10974948082E+04  0.13330046953E+04  0.15294330000E+03 0.  0.
<mgrwt>
<rscale>  0 0.75657562E+03</rscale>
<asrwt>0</asrwt>
<pdfrwt beam="1">  1        2 0.22483902E+00 0.75657562E+03</pdfrwt>
<pdfrwt beam="2">  1       -2 0.10753652E+00 0.75657562E+03</pdfrwt>
<totfact> 0.94784639E+00</totfact>
</mgrwt>
</event>
<event>
 4    1  0.4880711E-008  0.7375374E+03  0.7818608E-02  0.9655108E-01
          2   -1    0    0  501    0  0.00000000000E+00  0.00000000000E+00  0.39783879953E+04  0.39783879953E+04  0.25500000000E-02 0. -1.
         -2   -1    0    0    0  501 -0.00000000000E+00 -0.00000000000E+00 -0.15170340362E+03  0.15170340364E+03  0.25500000000E-02 0.  1.
    8880022    1    1    2    0    0 -0.38432898699E+02  0.72048086493E+03  0.25621340106E+04  0.26661755579E+04  0.15294330000E+03 0.  0.
    8880022    1    1    2    0    0  0.38432898699E+02 -0.72048086493E+03  0.12645505811E+04  0.14639158410E+04  0.15294330000E+03 0.  0.
<mgrwt>
<rscale>  0 0.73753740E+03</rscale>
<asrwt>0</asrwt>
<pdfrwt beam="1">  1        2 0.61205972E+00 0.73753740E+03</pdfrwt>
<pdfrwt beam="2">  1       -2 0.23338984E-01 0.73753740E+03</pdfrwt>
<totfact> 0.63860262E+00</totfact>
</mgrwt>
</event>
<event>
 4    1  0.4880711E-008  0.6063377E+03  0.7818608E-02  0.9892344E-01
         -2   -1    0    0    0  501 -0.00000000000E+00  0.00000000000E+00  0.10664456355E+04  0.10664456355E+04  0.25500000000E-02 0.  1.
          2   -1    0    0  501    0  0.00000000000E+00 -0.00000000000E+00 -0.86965186895E+03  0.86965186896E+03  0.25500000000E-02 0. -1.
    8880022    1    1    2    0    0 -0.25863759946E+03  0.52665006862E+03  0.85048398444E+03  0.10444943099E+04  0.15294330000E+03 0.  0.
    8880022    1    1    2    0    0  0.25863759946E+03 -0.52665006862E+03 -0.65369021787E+03  0.89160319458E+03  0.15294330000E+03 0.  0.
<mgrwt>
<rscale>  0 0.60633766E+03</rscale>
<asrwt>0</asrwt>
<pdfrwt beam="1">  1        2 0.13379260E+00 0.60633766E+03</pdfrwt>
<pdfrwt beam="2">  1       -2 0.16406856E+00 0.60633766E+03</pdfrwt>
<totfact> 0.75097738E+00</totfact>
</mgrwt>
</event>
<event>
 4    1  0.4880711E-008  0.1109059E+04  0.7818608E-02  0.9196407E-01
          2   -1    0    0  501    0  0.00000000000E+00  0.00000000000E+00  0.13980629596E+04  0.13980629596E+04  0.25500000000E-02 0. -1.
         -2   -1    0    0    0  501 -0.00000000000E+00 -0.00000000000E+00 -0.99218225015E+03  0.99218225015E+03  0.25500000000E-02 0.  1.
    8880022    1    1    2    0    0 -0.71565645748E+03 -0.83333974128E+03 -0.19928764370E+03  0.11268214177E+04  0.15294330000E+03 0.  0.
    8880022    1    1    2    0    0  0.71565645748E+03  0.83333974128E+03  0.60516835311E+03  0.12634237920E+04  0.15294330000E+03 0.  0.
<mgrwt>
<rscale>  0 0.11090586E+04</rscale>
<asrwt>0</asrwt>
<pdfrwt beam="1">  1        2 0.21508661E+00 0.11090586E+04</pdfrwt>
<pdfrwt beam="2">  1       -2 0.15264342E+00 0.11090586E+04</pdfrwt>
<totfact> 0.40688640E+00</totfact>
</mgrwt>
</event>
<event>
 4    1  0.4880711E-008  0.4066732E+03  0.7818608E-02  0.1041493E+00
          2   -1    0    0  501    0  0.00000000000E+00  0.00000000000E+00  0.48365618677E+03  0.48365618677E+03  0.25500000000E-02 0. -1.
         -2   -1    0    0    0  501 -0.00000000000E+00 -0.00000000000E+00 -0.12949932998E+04  0.12949932998E+04  0.25500000000E-02 0.  1.
    8880022    1    1    2    0    0  0.99391788069E+02  0.36347308278E+03  0.35726097310E+03  0.54131180050E+03  0.15294330000E+03 0.  0.
    8880022    1    1    2    0    0 -0.99391788069E+02 -0.36347308278E+03 -0.11685980861E+04  0.12373376860E+04  0.15294330000E+03 0.  1.
<mgrwt>
<rscale>  0 0.40667316E+03</rscale>
<asrwt>0</asrwt>
<pdfrwt beam="1">  1        2 0.74408644E-01 0.40667316E+03</pdfrwt>
<pdfrwt beam="2">  1       -2 0.19922974E+00 0.40667316E+03</pdfrwt>
<totfact> 0.92282127E+00</totfact>
</mgrwt>
</event>
<event>
 4    1  0.4880711E-008  0.9082557E+03  0.7818608E-02  0.9415320E-01
         -2   -1    0    0    0  501 -0.00000000000E+00  0.00000000000E+00  0.98830646087E+03  0.98830646087E+03  0.25500000000E-02 0.  1.
          2   -1    0    0  501    0  0.00000000000E+00 -0.00000000000E+00 -0.11284409347E+04  0.11284409347E+04  0.25500000000E-02 0. -1.
    8880022    1    1    2    0    0  0.89521314994E+03  0.11406121572E+02  0.46992825742E+03  0.10226245174E+04  0.15294330000E+03 0.  0.
    8880022    1    1    2    0    0 -0.89521314994E+03 -0.11406121572E+02 -0.61006273121E+03  0.10941228781E+04  0.15294330000E+03 0.  0.
<mgrwt>
<rscale>  0 0.90825566E+03</rscale>
<asrwt>0</asrwt>
<pdfrwt beam="1">  1        2 0.17360630E+00 0.90825566E+03</pdfrwt>
<pdfrwt beam="2">  1       -2 0.15204715E+00 0.90825566E+03</pdfrwt>
<totfact> 0.60530298E+00</totfact>
</mgrwt>
</event>
<event>
 4    1  0.4880711E-008  0.4171015E+03  0.7818608E-02  0.1038014E+00
         -2   -1    0    0    0  501 -0.00000000000E+00  0.00000000000E+00  0.41957324376E+03  0.41957324377E+03  0.25500000000E-02 0.  1.
          2   -1    0    0  501    0  0.00000000000E+00 -0.00000000000E+00 -0.67923975142E+03  0.67923975143E+03  0.25500000000E-02 0. -1.
    8880022    1    1    2    0    0  0.20007302541E+03  0.33249483688E+03  0.21307139293E+03  0.46837282538E+03  0.15294330000E+03 0.  0.
    8880022    1    1    2    0    0 -0.20007302541E+03 -0.33249483688E+03 -0.47273790059E+03  0.63044016982E+03  0.15294330000E+03 0.  0.
<mgrwt>
<rscale>  0 0.41710153E+03</rscale>
<asrwt>0</asrwt>
<pdfrwt beam="1">  1        2 0.10449842E+00 0.41710153E+03</pdfrwt>
<pdfrwt beam="2">  1       -2 0.64549730E-01 0.41710153E+03</pdfrwt>
<totfact> 0.98024931E+01</totfact>
</mgrwt>
</event>
<event>
 4    1  0.4880711E-008  0.4020214E+03  0.7818608E-02  0.1043082E+00
         -2   -1    0    0    0  501 -0.00000000000E+00  0.00000000000E+00  0.20845416881E+03  0.20845416883E+03  0.25500000000E-02 0.  1.
          2   -1    0    0  501    0  0.00000000000E+00 -0.00000000000E+00 -0.14761812233E+04  0.14761812233E+04  0.25500000000E-02 0. -1.
    8880022    1    1    2    0    0 -0.17773621008E+03 -0.32655684158E+03 -0.12142514807E+04  0.12790730404E+04  0.15294330000E+03 0.  0.
    8880022    1    1    2    0    0  0.17773621008E+03  0.32655684158E+03 -0.53475573770E+02  0.40556235176E+03  0.15294330000E+03 0.  0.
<mgrwt>
<rscale>  0 0.40202137E+03</rscale>
<asrwt>0</asrwt>
<pdfrwt beam="1">  1        2 0.22710480E+00 0.40202137E+03</pdfrwt>
<pdfrwt beam="2">  1       -2 0.32069873E-01 0.40202137E+03</pdfrwt>
<totfact> 0.12535067E+02</totfact>
</mgrwt>
</event>
<event>
 4    1  0.4880711E-008  0.3090215E+03  0.7818608E-02  0.1080816E+00
         -2   -1    0    0    0  501 -0.00000000000E+00  0.00000000000E+00  0.17710665418E+03  0.17710665419E+03  0.25500000000E-02 0.  1.
          2   -1    0    0  501    0  0.00000000000E+00 -0.00000000000E+00 -0.12463103019E+04  0.12463103019E+04  0.25500000000E-02 0. -1.
    8880022    1    1    2    0    0 -0.22335022193E+03  0.14905468192E+03  0.14854087170E+01  0.30902504638E+03  0.15294330000E+03 0.  0.
    8880022    1    1    2    0    0  0.22335022193E+03 -0.14905468192E+03 -0.10706890565E+04  0.11143919097E+04  0.15294330000E+03 0. -1.
<mgrwt>
<rscale>  0 0.30902148E+03</rscale>
<asrwt>0</asrwt>
<pdfrwt beam="1">  1        2 0.19174004E+00 0.30902148E+03</pdfrwt>
<pdfrwt beam="2">  1       -2 0.27247178E-01 0.30902148E+03</pdfrwt>
<totfact> 0.22977828E+02</totfact>
</mgrwt>
</event>
<event>
 4    1  0.4880711E-008  0.4116700E+03  0.7818608E-02  0.1039812E+00
          2   -1    0    0  501    0  0.00000000000E+00  0.00000000000E+00  0.70665040708E+03  0.70665040708E+03  0.25500000000E-02 0. -1.
         -2   -1    0    0    0  501 -0.00000000000E+00 -0.00000000000E+00 -0.41518462093E+03  0.41518462093E+03  0.25500000000E-02 0.  1.
    8880022    1    1    2    0    0  0.72621469294E+02  0.37524217492E+03  0.51027151217E+03  0.65562888649E+03  0.15294330000E+03 0. -1.
    8880022    1    1    2    0    0 -0.72621469294E+02 -0.37524217492E+03 -0.21880572602E+03  0.46620614153E+03  0.15294330000E+03 0.  0.
<mgrwt>
<rscale>  0 0.41167004E+03</rscale>
<asrwt>0</asrwt>
<pdfrwt beam="1">  1        2 0.10871545E+00 0.41167004E+03</pdfrwt>
<pdfrwt beam="2">  1       -2 0.63874557E-01 0.41167004E+03</pdfrwt>
<totfact> 0.95518166E+01</totfact>
</mgrwt>
</event>
<event>
 4    1  0.4880711E-008  0.2928628E+03  0.7818608E-02  0.1088864E+00
         -2   -1    0    0    0  501 -0.00000000000E+00  0.00000000000E+00  0.22658001210E+03  0.22658001211E+03  0.25500000000E-02 0.  1.
          2   -1    0    0  501    0  0.00000000000E+00 -0.00000000000E+00 -0.17774094802E+04  0.17774094802E+04  0.25500000000E-02 0. -1.
    8880022    1    1    2    0    0 -0.24975380950E+03  0.88557265386E-01  0.11350175323E+03  0.31408800391E+03  0.15294330000E+03 0.  1.
    8880022    1    1    2    0    0  0.24975380950E+03 -0.88557265386E-01 -0.16643312214E+04  0.16899014884E+04  0.15294330000E+03 0.  0.
<mgrwt>
<rscale>  0 0.29286281E+03</rscale>
<asrwt>0</asrwt>
<pdfrwt beam="1">  1        2 0.27344760E+00 0.29286281E+03</pdfrwt>
<pdfrwt beam="2">  1       -2 0.34858465E-01 0.29286281E+03</pdfrwt>
<totfact> 0.75724997E+01</totfact>
</mgrwt>
</event>
<event>
 4    1  0.4880711E-008  0.6267241E+03  0.7818608E-02  0.9851462E-01
          2   -1    0    0  501    0  0.00000000000E+00  0.00000000000E+00  0.35907180122E+03  0.35907180123E+03  0.25500000000E-02 0. -1.
         -2   -1    0    0    0  501 -0.00000000000E+00 -0.00000000000E+00 -0.18918299613E+04  0.18918299613E+04  0.25500000000E-02 0.  1.
    8880022    1    1    2    0    0 -0.52233537157E+03  0.31073650420E+03 -0.14973028868E+04  0.16231755922E+04  0.15294330000E+03 0.  0.
    8880022    1    1    2    0    0  0.52233537157E+03 -0.31073650420E+03 -0.35455273279E+02  0.62772617028E+03  0.15294330000E+03 0.  0.
<mgrwt>
<rscale>  0 0.62672408E+03</rscale>
<asrwt>0</asrwt>
<pdfrwt beam="1">  1        2 0.55241816E-01 0.62672408E+03</pdfrwt>
<pdfrwt beam="2">  1       -2 0.29105076E+00 0.62672408E+03</pdfrwt>
<totfact> 0.34240892E+00</totfact>
</mgrwt>
</event>
<event>
 4    1  0.4880711E-008  0.5323924E+03  0.7818608E-02  0.1005654E+00
          2   -1    0    0  501    0  0.00000000000E+00  0.00000000000E+00  0.10986266933E+04  0.10986266933E+04  0.25500000000E-02 0. -1.
         -2   -1    0    0    0  501 -0.00000000000E+00 -0.00000000000E+00 -0.43363816480E+03  0.43363816481E+03  0.25500000000E-02 0.  1.
    8880022    1    1    2    0    0 -0.38912926462E+03  0.32958832221E+03  0.82008340975E+03  0.97774152959E+03  0.15294330000E+03 0.  0.
    8880022    1    1    2    0    0  0.38912926462E+03 -0.32958832221E+03 -0.15509488121E+03  0.55452332856E+03  0.15294330000E+03 0.  0.
<mgrwt>
<rscale>  0 0.53239243E+03</rscale>
<asrwt>0</asrwt>
<pdfrwt beam="1">  1        2 0.16901949E+00 0.53239243E+03</pdfrwt>
<pdfrwt beam="2">  1       -2 0.66713565E-01 0.53239243E+03</pdfrwt>
<totfact> 0.46905315E+01</totfact>
</mgrwt>
</event>
<event>
 4    1  0.4880711E-008  0.7334711E+03  0.7818608E-02  0.9661644E-01
          2   -1    0    0  501    0  0.00000000000E+00  0.00000000000E+00  0.28324627941E+04  0.28324627941E+04  0.25500000000E-02 0. -1.
         -2   -1    0    0    0  501 -0.00000000000E+00 -0.00000000000E+00 -0.27505673931E+03  0.27505673932E+03  0.25500000000E-02 0.  1.
    8880022    1    1    2    0    0 -0.69272086599E+03  0.18634901137E+03  0.41433919276E+03  0.84241128428E+03  0.15294330000E+03 0.  0.
    8880022    1    1    2    0    0  0.69272086599E+03 -0.18634901137E+03  0.21430668620E+04  0.22651082492E+04  0.15294330000E+03 0.  0.
<mgrwt>
<rscale>  0 0.73347107E+03</rscale>
<asrwt>0</asrwt>
<pdfrwt beam="1">  1        2 0.43576351E+00 0.73347107E+03</pdfrwt>
<pdfrwt beam="2">  1       -2 0.42316421E-01 0.73347107E+03</pdfrwt>
<totfact> 0.12400469E+01</totfact>
</mgrwt>
</event>
<event>
 4    1  0.4880711E-008  0.6303029E+03  0.7818608E-02  0.9844458E-01
         -2   -1    0    0    0  501 -0.00000000000E+00  0.00000000000E+00  0.37907521432E+03  0.37907521433E+03  0.25500000000E-02 0.  1.
          2   -1    0    0  501    0  0.00000000000E+00 -0.00000000000E+00 -0.12511609458E+04  0.12511609458E+04  0.25500000000E-02 0. -1.
    8880022    1    1    2    0    0  0.40154132063E+03  0.46114494358E+03 -0.10760497200E+03  0.63942206263E+03  0.15294330000E+03 0.  0.
    8880022    1    1    2    0    0 -0.40154132063E+03 -0.46114494358E+03 -0.76448075944E+03  0.99081409746E+03  0.15294330000E+03 0.  0.
<mgrwt>
<rscale>  0 0.63030290E+03</rscale>
<asrwt>0</asrwt>
<pdfrwt beam="1">  1        2 0.19248630E+00 0.63030290E+03</pdfrwt>
<pdfrwt beam="2">  1       -2 0.58319264E-01 0.63030290E+03</pdfrwt>
<totfact> 0.50082720E+01</totfact>
</mgrwt>
</event>
<event>
 4    1  0.4880711E-008  0.2648730E+03  0.7818608E-02  0.1104250E+00
         -2   -1    0    0    0  501 -0.00000000000E+00  0.00000000000E+00  0.25631534364E+03  0.25631534365E+03  0.25500000000E-02 0.  1.
          2   -1    0    0  501    0  0.00000000000E+00 -0.00000000000E+00 -0.12625370336E+04  0.12625370336E+04  0.25500000000E-02 0. -1.
    8880022    1    1    2    0    0 -0.18279844966E+03  0.11554563882E+03 -0.11751928388E+04  0.12046725402E+04  0.15294330000E+03 0.  0.
    8880022    1    1    2    0    0  0.18279844966E+03 -0.11554563882E+03  0.16897114881E+03  0.31417983703E+03  0.15294330000E+03 0.  1.
<mgrwt>
<rscale>  0 0.26487303E+03</rscale>
<asrwt>0</asrwt>
<pdfrwt beam="1">  1        2 0.19423646E+00 0.26487303E+03</pdfrwt>
<pdfrwt beam="2">  1       -2 0.39433131E-01 0.26487303E+03</pdfrwt>
<totfact> 0.11432754E+02</totfact>
</mgrwt>
</event>
<event>
 4    1  0.4880711E-008  0.1959038E+03  0.7818608E-02  0.1153242E+00
          2   -1    0    0  501    0  0.00000000000E+00  0.00000000000E+00  0.22003162382E+04  0.22003162382E+04  0.25500000000E-02 0. -1.
         -2   -1    0    0    0  501 -0.00000000000E+00 -0.00000000000E+00 -0.27413454120E+03  0.27413454122E+03  0.25500000000E-02 0.  1.
    8880022    1    1    2    0    0  0.91949965109E+02  0.80819977694E+02 -0.23412763642E+03  0.30527703489E+03  0.15294330000E+03 0.  1.
    8880022    1    1    2    0    0 -0.91949965109E+02 -0.80819977694E+02  0.21603093334E+04  0.21691737445E+04  0.15294330000E+03 0.  0.
<mgrwt>
<rscale>  0 0.19590385E+03</rscale>
<asrwt>0</asrwt>
<pdfrwt beam="1">  1        2 0.33851018E+00 0.19590385E+03</pdfrwt>
<pdfrwt beam="2">  1       -2 0.42174546E-01 0.19590385E+03</pdfrwt>
<totfact> 0.32860120E+01</totfact>
</mgrwt>
</event>
<event>
 4    1  0.4880711E-008  0.6979506E+03  0.7818608E-02  0.9720743E-01
          2   -1    0    0  501    0  0.00000000000E+00  0.00000000000E+00  0.95161016968E+03  0.95161016968E+03  0.25500000000E-02 0. -1.
         -2   -1    0    0    0  501 -0.00000000000E+00 -0.00000000000E+00 -0.10141998471E+04  0.10141998471E+04  0.25500000000E-02 0.  1.
    8880022    1    1    2    0    0  0.15121810306E+03  0.66398527030E+03 -0.72301221165E+03  0.10049286866E+04  0.15294330000E+03 0.  0.
    8880022    1    1    2    0    0 -0.15121810306E+03 -0.66398527030E+03  0.66042253428E+03  0.96088133017E+03  0.15294330000E+03 0.  0.
<mgrwt>
<rscale>  0 0.69795058E+03</rscale>
<asrwt>0</asrwt>
<pdfrwt beam="1">  1        2 0.14640156E+00 0.69795058E+03</pdfrwt>
<pdfrwt beam="2">  1       -2 0.15603075E+00 0.69795058E+03</pdfrwt>
<totfact> 0.74874924E+00</totfact>
</mgrwt>
</event>
<event>
 4    1  0.4880711E-008  0.4787849E+03  0.7818608E-02  0.1019470E+00
         -2   -1    0    0    0  501 -0.00000000000E+00  0.00000000000E+00  0.47833251822E+03  0.47833251823E+03  0.25500000000E-02 0.  1.
          2   -1    0    0  501    0  0.00000000000E+00 -0.00000000000E+00 -0.11943372640E+04  0.11943372640E+04  0.25500000000E-02 0. -1.
    8880022    1    1    2    0    0 -0.44099570146E+03  0.10661182572E+03  0.28914024521E+03  0.55931835702E+03  0.15294330000E+03 0.  0.
    8880022    1    1    2    0    0  0.44099570146E+03 -0.10661182572E+03 -0.10051449909E+04  0.11133514252E+04  0.15294330000E+03 0.  0.
<mgrwt>
<rscale>  0 0.47878486E+03</rscale>
<asrwt>0</asrwt>
<pdfrwt beam="1">  1        2 0.18374419E+00 0.47878486E+03</pdfrwt>
<pdfrwt beam="2">  1       -2 0.73589618E-01 0.47878486E+03</pdfrwt>
<totfact> 0.33517849E+01</totfact>
</mgrwt>
</event>
<event>
 4    1  0.4880711E-008  0.3686890E+03  0.7818608E-02  0.1055195E+00
         -2   -1    0    0    0  501 -0.00000000000E+00  0.00000000000E+00  0.90227784661E+03  0.90227784661E+03  0.25500000000E-02 0.  1.
          2   -1    0    0  501    0  0.00000000000E+00 -0.00000000000E+00 -0.46277771767E+03  0.46277771767E+03  0.25500000000E-02 0. -1.
    8880022    1    1    2    0    0  0.15435615919E+03  0.29784910791E+03  0.78027850462E+03  0.86299832720E+03  0.15294330000E+03 0.  0.
    8880022    1    1    2    0    0 -0.15435615919E+03 -0.29784910791E+03 -0.34077837568E+03  0.50205723708E+03  0.15294330000E+03 0.  0.
<mgrwt>
<rscale>  0 0.36868899E+03</rscale>
<asrwt>0</asrwt>
<pdfrwt beam="1">  1        2 0.71196573E-01 0.36868899E+03</pdfrwt>
<pdfrwt beam="2">  1       -2 0.13881197E+00 0.36868899E+03</pdfrwt>
<totfact> 0.26126614E+01</totfact>
</mgrwt>
</event>
<event>
 4    1  0.4880711E-008  0.5066959E+03  0.7818608E-02  0.1012046E+00
          2   -1    0    0  501    0  0.00000000000E+00  0.00000000000E+00  0.90878069514E+03  0.90878069514E+03  0.25500000000E-02 0. -1.
         -2   -1    0    0    0  501 -0.00000000000E+00 -0.00000000000E+00 -0.60852839668E+03  0.60852839669E+03  0.25500000000E-02 0.  1.
    8880022    1    1    2    0    0  0.36881175191E+03 -0.31197277117E+03 -0.40516897495E+03  0.64877012075E+03  0.15294330000E+03 0.  0.
    8880022    1    1    2    0    0 -0.36881175191E+03  0.31197277117E+03  0.70542127341E+03  0.86853897108E+03  0.15294330000E+03 0.  0.
<mgrwt>
<rscale>  0 0.50669594E+03</rscale>
<asrwt>0</asrwt>
<pdfrwt beam="1">  1        2 0.13981241E+00 0.50669594E+03</pdfrwt>
<pdfrwt beam="2">  1       -2 0.93619754E-01 0.50669594E+03</pdfrwt>
<totfact> 0.29116281E+01</totfact>
</mgrwt>
</event>
<event>
 4    1  0.4880711E-008  0.4466469E+03  0.7818608E-02  0.1028727E+00
          2   -1    0    0  501    0  0.00000000000E+00  0.00000000000E+00  0.21436551326E+04  0.21436551326E+04  0.25500000000E-02 0. -1.
         -2   -1    0    0    0  501 -0.00000000000E+00 -0.00000000000E+00 -0.14679367764E+03  0.14679367767E+03  0.25500000000E-02 0.  1.
    8880022    1    1    2    0    0 -0.41622910002E+03 -0.53433749867E+02  0.30556210072E+03  0.54116696105E+03  0.15294330000E+03 0.  0.
    8880022    1    1    2    0    0  0.41622910002E+03  0.53433749867E+02  0.16912993543E+04  0.17492818492E+04  0.15294330000E+03 0.  0.
<mgrwt>
<rscale>  0 0.44664693E+03</rscale>
<asrwt>0</asrwt>
<pdfrwt beam="1">  1        2 0.32979308E+00 0.44664693E+03</pdfrwt>
<pdfrwt beam="2">  1       -2 0.22583644E-01 0.44664693E+03</pdfrwt>
<totfact> 0.10267083E+02</totfact>
</mgrwt>
</event>
<event>
 4    1  0.4880711E-008  0.4982446E+03  0.7818608E-02  0.1014238E+00
          2   -1    0    0  501    0  0.00000000000E+00  0.00000000000E+00  0.15794194398E+04  0.15794194398E+04  0.25500000000E-02 0. -1.
         -2   -1    0    0    0  501 -0.00000000000E+00 -0.00000000000E+00 -0.60727396794E+03  0.60727396794E+03  0.25500000000E-02 0.  1.
    8880022    1    1    2    0    0  0.42960413651E+03  0.20073941127E+03  0.14273527438E+04  0.15118146492E+04  0.15294330000E+03 0.  0.
    8880022    1    1    2    0    0 -0.42960413651E+03 -0.20073941127E+03 -0.45520727190E+03  0.67487875856E+03  0.15294330000E+03 0.  0.
<mgrwt>
<rscale>  0 0.49824460E+03</rscale>
<asrwt>0</asrwt>
<pdfrwt beam="1">  1        2 0.24298761E+00 0.49824460E+03</pdfrwt>
<pdfrwt beam="2">  1       -2 0.93426764E-01 0.49824460E+03</pdfrwt>
<totfact> 0.11874969E+01</totfact>
</mgrwt>
</event>
<event>
 4    1  0.4880711E-008  0.4193911E+03  0.7818608E-02  0.1037265E+00
         -2   -1    0    0    0  501 -0.00000000000E+00  0.00000000000E+00  0.20507431587E+03  0.20507431589E+03  0.25500000000E-02 0.  1.
          2   -1    0    0  501    0  0.00000000000E+00 -0.00000000000E+00 -0.11369821154E+04  0.11369821154E+04  0.25500000000E-02 0. -1.
    8880022    1    1    2    0    0 -0.13128246545E+03 -0.36778005889E+03 -0.79853545052E+03  0.90196883327E+03  0.15294330000E+03 0.  0.
    8880022    1    1    2    0    0  0.13128246545E+03  0.36778005889E+03 -0.13337234903E+03  0.44008759804E+03  0.15294330000E+03 0.  0.
<mgrwt>
<rscale>  0 0.41939112E+03</rscale>
<asrwt>0</asrwt>
<pdfrwt beam="1">  1        2 0.17492032E+00 0.41939112E+03</pdfrwt>
<pdfrwt beam="2">  1       -2 0.31549896E-01 0.41939112E+03</pdfrwt>
<totfact> 0.20046392E+02</totfact>
</mgrwt>
</event>
<event>
 4    1  0.4880711E-008  0.3770854E+03  0.7818608E-02  0.1052016E+00
          2   -1    0    0  501    0  0.00000000000E+00  0.00000000000E+00  0.22071072757E+04  0.22071072757E+04  0.25500000000E-02 0. -1.
         -2   -1    0    0    0  501 -0.00000000000E+00 -0.00000000000E+00 -0.85568477921E+02  0.85568477959E+02  0.25500000000E-02 0.  1.
    8880022    1    1    2    0    0 -0.96261752688E+02 -0.33096131884E+03  0.49094414959E+03  0.61904727658E+03  0.15294330000E+03 0.  0.
    8880022    1    1    2    0    0  0.96261752688E+02  0.33096131884E+03  0.16305946482E+04  0.16736284771E+04  0.15294330000E+03 0.  0.
<mgrwt>
<rscale>  0 0.37708537E+03</rscale>
<asrwt>0</asrwt>
<pdfrwt beam="1">  1        2 0.33955492E+00 0.37708537E+03</pdfrwt>
<pdfrwt beam="2">  1       -2 0.13164383E-01 0.37708537E+03</pdfrwt>
<totfact> 0.24074491E+02</totfact>
</mgrwt>
</event>
<event>
 4    1  0.4880711E-008  0.3172381E+03  0.7818608E-02  0.1076927E+00
         -2   -1    0    0    0  501 -0.00000000000E+00  0.00000000000E+00  0.84021690951E+02  0.84021690990E+02  0.25500000000E-02 0.  1.
          2   -1    0    0  501    0  0.00000000000E+00 -0.00000000000E+00 -0.13635630988E+04  0.13635630988E+04  0.25500000000E-02 0. -1.
    8880022    1    1    2    0    0 -0.27771205417E+03 -0.11151252270E+02 -0.89214139854E+03  0.94686654997E+03  0.15294330000E+03 0.  0.
    8880022    1    1    2    0    0  0.27771205417E+03  0.11151252270E+02 -0.38740000931E+03  0.50071823982E+03  0.15294330000E+03 0.  0.
<mgrwt>
<rscale>  0 0.31723806E+03</rscale>
<asrwt>0</asrwt>
<pdfrwt beam="1">  1        2 0.20977892E+00 0.31723806E+03</pdfrwt>
<pdfrwt beam="2">  1       -2 0.12926415E-01 0.31723806E+03</pdfrwt>
<totfact> 0.70770201E+02</totfact>
</mgrwt>
</event>
<event>
 4    1  0.4880711E-008  0.4201380E+03  0.7818608E-02  0.1037021E+00
          2   -1    0    0  501    0  0.00000000000E+00  0.00000000000E+00  0.14440470761E+04  0.14440470761E+04  0.25500000000E-02 0. -1.
         -2   -1    0    0    0  501 -0.00000000000E+00 -0.00000000000E+00 -0.40628841948E+03  0.40628841949E+03  0.25500000000E-02 0.  1.
    8880022    1    1    2    0    0  0.30429942151E+02 -0.39012595801E+03  0.12924531946E+04  0.13590258120E+04  0.15294330000E+03 0.  0.
    8880022    1    1    2    0    0 -0.30429942151E+02  0.39012595801E+03 -0.25469453797E+03  0.49130968358E+03  0.15294330000E+03 0.  0.
<mgrwt>
<rscale>  0 0.42013795E+03</rscale>
<asrwt>0</asrwt>
<pdfrwt beam="1">  1        2 0.22216109E+00 0.42013795E+03</pdfrwt>
<pdfrwt beam="2">  1       -2 0.62505911E-01 0.42013795E+03</pdfrwt>
<totfact> 0.34783508E+01</totfact>
</mgrwt>
</event>
<event>
 4    1  0.4880711E-008  0.8963652E+03  0.7818608E-02  0.9430137E-01
          2   -1    0    0  501    0  0.00000000000E+00  0.00000000000E+00  0.29294447721E+03  0.29294447723E+03  0.25500000000E-02 0. -1.
         -2   -1    0    0    0  501 -0.00000000000E+00 -0.00000000000E+00 -0.35260431757E+04  0.35260431757E+04  0.25500000000E-02 0.  1.
    8880022    1    1    2    0    0 -0.63104096355E+03  0.61795321697E+03 -0.71655580259E+03  0.11475725455E+04  0.15294330000E+03 0.  0.
    8880022    1    1    2    0    0  0.63104096355E+03 -0.61795321697E+03 -0.25165428958E+04  0.26714151073E+04  0.15294330000E+03 0.  0.
<mgrwt>
<rscale>  0 0.89636518E+03</rscale>
<asrwt>0</asrwt>
<pdfrwt beam="1">  1        2 0.45068384E-01 0.89636518E+03</pdfrwt>
<pdfrwt beam="2">  1       -2 0.54246815E+00 0.89636518E+03</pdfrwt>
<totfact> 0.10702355E-01</totfact>
</mgrwt>
</event>
<event>
 4    1  0.4880711E-008  0.5218184E+03  0.7818608E-02  0.1008236E+00
          2   -1    0    0  501    0  0.00000000000E+00  0.00000000000E+00  0.89479177975E+03  0.89479177975E+03  0.25500000000E-02 0. -1.
         -2   -1    0    0    0  501 -0.00000000000E+00 -0.00000000000E+00 -0.47674437650E+03  0.47674437651E+03  0.25500000000E-02 0.  1.
    8880022    1    1    2    0    0  0.41679359028E+03  0.27420045619E+03  0.62144957583E+03  0.81147644167E+03  0.15294330000E+03 0.  0.
    8880022    1    1    2    0    0 -0.41679359028E+03 -0.27420045619E+03 -0.20340217258E+03  0.56005971459E+03  0.15294330000E+03 0.  0.
<mgrwt>
<rscale>  0 0.52181840E+03</rscale>
<asrwt>0</asrwt>
<pdfrwt beam="1">  1        2 0.13766027E+00 0.52181840E+03</pdfrwt>
<pdfrwt beam="2">  1       -2 0.73345290E-01 0.52181840E+03</pdfrwt>
<totfact> 0.51453880E+01</totfact>
</mgrwt>
</event>
<event>
 4    1  0.4880711E-008  0.1083149E+04  0.7818608E-02  0.9221774E-01
         -2   -1    0    0    0  501 -0.00000000000E+00  0.00000000000E+00  0.12673430573E+04  0.12673430573E+04  0.25500000000E-02 0.  1.
          2   -1    0    0  501    0  0.00000000000E+00 -0.00000000000E+00 -0.23587084171E+04  0.23587084171E+04  0.25500000000E-02 0. -1.
    8880022    1    1    2    0    0 -0.82313439826E+03 -0.68721820647E+03  0.86746474261E+03  0.13876980340E+04  0.15294330000E+03 0.  0.
    8880022    1    1    2    0    0  0.82313439826E+03  0.68721820647E+03 -0.19588301024E+04  0.22383534404E+04  0.15294330000E+03 0.  0.
<mgrwt>
<rscale>  0 0.10831485E+04</rscale>
<asrwt>0</asrwt>
<pdfrwt beam="1">  1        2 0.36287822E+00 0.10831485E+04</pdfrwt>
<pdfrwt beam="2">  1       -2 0.19497585E+00 0.10831485E+04</pdfrwt>
<totfact> 0.59709028E-01</totfact>
</mgrwt>
</event>
<event>
 4    1  0.4880711E-008  0.9279082E+03  0.7818608E-02  0.9391352E-01
          2   -1    0    0  501    0  0.00000000000E+00  0.00000000000E+00  0.20861762464E+04  0.20861762464E+04  0.25500000000E-02 0. -1.
         -2   -1    0    0    0  501 -0.00000000000E+00 -0.00000000000E+00 -0.72886773368E+03  0.72886773369E+03  0.25500000000E-02 0.  1.
    8880022    1    1    2    0    0  0.91424726030E+03 -0.42117660631E+02  0.16056411136E+04  0.18544802477E+04  0.15294330000E+03 0.  0.
    8880022    1    1    2    0    0 -0.91424726030E+03  0.42117660631E+02 -0.24833260090E+03  0.96056373240E+03  0.15294330000E+03 0.  0.
<mgrwt>
<rscale>  0 0.92790819E+03</rscale>
<asrwt>0</asrwt>
<pdfrwt beam="1">  1        2 0.32095019E+00 0.92790819E+03</pdfrwt>
<pdfrwt beam="2">  1       -2 0.11213350E+00 0.92790819E+03</pdfrwt>
<totfact> 0.37898296E+00</totfact>
</mgrwt>
</event>
<event>
 4    1  0.4880711E-008  0.4554818E+03  0.7818608E-02  0.1026100E+00
         -2   -1    0    0    0  501 -0.00000000000E+00  0.00000000000E+00  0.13576530359E+03  0.13576530361E+03  0.25500000000E-02 0.  1.
          2   -1    0    0  501    0  0.00000000000E+00 -0.00000000000E+00 -0.15560814377E+04  0.15560814377E+04  0.25500000000E-02 0. -1.
    8880022    1    1    2    0    0  0.37616425041E+03  0.20633092920E+03 -0.59673261125E+03  0.75070197680E+03  0.15294330000E+03 0.  1.
    8880022    1    1    2    0    0 -0.37616425041E+03 -0.20633092920E+03 -0.82358352287E+03  0.94114476452E+03  0.15294330000E+03 0. -1.
<mgrwt>
<rscale>  0 0.45548178E+03</rscale>
<asrwt>0</asrwt>
<pdfrwt beam="1">  1        2 0.23939713E+00 0.45548178E+03</pdfrwt>
<pdfrwt beam="2">  1       -2 0.20886971E-01 0.45548178E+03</pdfrwt>
<totfact> 0.24333188E+02</totfact>
</mgrwt>
</event>
<event>
 4    1  0.4880711E-008  0.5338929E+03  0.7818608E-02  0.1005292E+00
          2   -1    0    0  501    0  0.00000000000E+00  0.00000000000E+00  0.32756187713E+04  0.32756187713E+04  0.25500000000E-02 0. -1.
         -2   -1    0    0    0  501 -0.00000000000E+00 -0.00000000000E+00 -0.11157699752E+03  0.11157699755E+03  0.25500000000E-02 0.  1.
    8880022    1    1    2    0    0  0.50907649359E+03  0.49911158981E+02  0.23765647331E+04  0.24357958831E+04  0.15294330000E+03 0.  0.
    8880022    1    1    2    0    0 -0.50907649359E+03 -0.49911158981E+02  0.78747704063E+03  0.95139988577E+03  0.15294330000E+03 0.  0.
<mgrwt>
<rscale>  0 0.53389292E+03</rscale>
<asrwt>0</asrwt>
<pdfrwt beam="1">  1        2 0.50394137E+00 0.53389292E+03</pdfrwt>
<pdfrwt beam="2">  1       -2 0.17165691E-01 0.53389292E+03</pdfrwt>
<totfact> 0.35753365E+01</totfact>
</mgrwt>
</event>
<event>
 4    1  0.7021232E-008  0.5801719E+03  0.7818608E-02  0.9947419E-01
          2   -1    0    0  501    0  0.00000000000E+00  0.00000000000E+00  0.16743679525E+04  0.16743679525E+04  0.25500000000E-02 0. -1.
         -2   -1    0    0    0  501 -0.00000000000E+00 -0.00000000000E+00 -0.86321677965E+03  0.86321677965E+03  0.25500000000E-02 0.  1.
    8880022    1    1    2    0    0  0.47773381185E+03  0.29151016437E+03 -0.70569707741E+03  0.91356871060E+03  0.15294330000E+03 0.  0.
    8880022    1    1    2    0    0 -0.47773381185E+03 -0.29151016437E+03  0.15168482502E+04  0.16240160215E+04  0.15294330000E+03 0.  0.
<mgrwt>
<rscale>  0 0.58017189E+03</rscale>
<asrwt>0</asrwt>
<pdfrwt beam="1">  1        2 0.25759507E+00 0.58017189E+03</pdfrwt>
<pdfrwt beam="2">  1       -2 0.13280258E+00 0.58017189E+03</pdfrwt>
<totfact> 0.44253964E+00</totfact>
</mgrwt>
</event>
<event>
 4    1  0.4880711E-008  0.4558583E+03  0.7818608E-02  0.1025989E+00
         -2   -1    0    0    0  501 -0.00000000000E+00  0.00000000000E+00  0.25976271760E+03  0.25976271761E+03  0.25500000000E-02 0.  1.
          2   -1    0    0  501    0  0.00000000000E+00 -0.00000000000E+00 -0.18640629634E+04  0.18640629634E+04  0.25500000000E-02 0. -1.
    8880022    1    1    2    0    0 -0.10699220618E+02  0.42930250172E+03  0.16490280078E+00  0.45585830201E+03  0.15294330000E+03 0.  1.
    8880022    1    1    2    0    0  0.10699220618E+02 -0.42930250172E+03 -0.16044651486E+04  0.16679673790E+04  0.15294330000E+03 0.  0.
<mgrwt>
<rscale>  0 0.45585827E+03</rscale>
<asrwt>0</asrwt>
<pdfrwt beam="1">  1        2 0.28677891E+00 0.45585827E+03</pdfrwt>
<pdfrwt beam="2">  1       -2 0.39963496E-01 0.45585827E+03</pdfrwt>
<totfact> 0.50575894E+01</totfact>
</mgrwt>
</event>
<event>
 4    1  0.4880711E-008  0.3552173E+03  0.7818608E-02  0.1060494E+00
          2   -1    0    0  501    0  0.00000000000E+00  0.00000000000E+00  0.20208855753E+04  0.20208855753E+04  0.25500000000E-02 0. -1.
         -2   -1    0    0    0  501 -0.00000000000E+00 -0.00000000000E+00 -0.16561486450E+03  0.16561486452E+03  0.25500000000E-02 0.  1.
    8880022    1    1    2    0    0  0.11697793527E+02  0.32039167333E+03  0.17905380950E+04  0.18254330953E+04  0.15294330000E+03 0.  0.
    8880022    1    1    2    0    0 -0.11697793527E+02 -0.32039167333E+03  0.64732615783E+02  0.36106734452E+03  0.15294330000E+03 0.  0.
<mgrwt>
<rscale>  0 0.35521728E+03</rscale>
<asrwt>0</asrwt>
<pdfrwt beam="1">  1        2 0.31090551E+00 0.35521728E+03</pdfrwt>
<pdfrwt beam="2">  1       -2 0.25479207E-01 0.35521728E+03</pdfrwt>
<totfact> 0.98271833E+01</totfact>
</mgrwt>
</event>
<event>
 4    1  0.4880711E-008  0.2272283E+03  0.7818608E-02  0.1128606E+00
         -2   -1    0    0    0  501 -0.00000000000E+00  0.00000000000E+00  0.17808757538E+03  0.17808757540E+03  0.25500000000E-02 0.  1.
          2   -1    0    0  501    0  0.00000000000E+00 -0.00000000000E+00 -0.30069719562E+04  0.30069719562E+04  0.25500000000E-02 0. -1.
    8880022    1    1    2    0    0  0.11837160380E+03 -0.11928628557E+03 -0.29282513967E+04  0.29370544683E+04  0.15294330000E+03 0.  0.
    8880022    1    1    2    0    0 -0.11837160380E+03  0.11928628557E+03  0.99367015946E+02  0.24800506322E+03  0.15294330000E+03 0.  1.
<mgrwt>
<rscale>  0 0.22722832E+03</rscale>
<asrwt>0</asrwt>
<pdfrwt beam="1">  1        2 0.46261104E+00 0.22722832E+03</pdfrwt>
<pdfrwt beam="2">  1       -2 0.27398091E-01 0.22722832E+03</pdfrwt>
<totfact> 0.25729205E+01</totfact>
</mgrwt>
</event>
<event>
 4    1  0.4880711E-008  0.2531557E+03  0.7818608E-02  0.1111327E+00
          2   -1    0    0  501    0  0.00000000000E+00  0.00000000000E+00  0.25147222353E+04  0.25147222353E+04  0.25500000000E-02 0. -1.
         -2   -1    0    0    0  501 -0.00000000000E+00 -0.00000000000E+00 -0.76558989874E+02  0.76558989916E+02  0.25500000000E-02 0.  1.
    8880022    1    1    2    0    0 -0.17114324770E+03 -0.10679955918E+03  0.22773264538E+04  0.22913540947E+04  0.15294330000E+03 0. -1.
    8880022    1    1    2    0    0  0.17114324770E+03  0.10679955918E+03  0.16083679164E+03  0.29992713054E+03  0.15294330000E+03 0.  0.
<mgrwt>
<rscale>  0 0.25315570E+03</rscale>
<asrwt>0</asrwt>
<pdfrwt beam="1">  1        2 0.38688042E+00 0.25315570E+03</pdfrwt>
<pdfrwt beam="2">  1       -2 0.11778304E-01 0.25315570E+03</pdfrwt>
<totfact> 0.20229963E+02</totfact>
</mgrwt>
</event>
<event>
 4    1  0.4880711E-008  0.4968506E+03  0.7818608E-02  0.1014604E+00
         -2   -1    0    0    0  501 -0.00000000000E+00  0.00000000000E+00  0.21966088683E+03  0.21966088684E+03  0.25500000000E-02 0.  1.
          2   -1    0    0  501    0  0.00000000000E+00 -0.00000000000E+00 -0.23163424471E+04  0.23163424471E+04  0.25500000000E-02 0. -1.
    8880022    1    1    2    0    0  0.16674689844E+03  0.44233957756E+03 -0.19581508524E+04  0.20202017829E+04  0.15294330000E+03 0.  0.
    8880022    1    1    2    0    0 -0.16674689844E+03 -0.44233957756E+03 -0.13853070792E+03  0.51580155106E+03  0.15294330000E+03 0.  0.
<mgrwt>
<rscale>  0 0.49685056E+03</rscale>
<asrwt>0</asrwt>
<pdfrwt beam="1">  1        2 0.35636036E+00 0.49685056E+03</pdfrwt>
<pdfrwt beam="2">  1       -2 0.33793984E-01 0.49685056E+03</pdfrwt>
<totfact> 0.39337273E+01</totfact>
</mgrwt>
</event>
<event>
 4    1  0.4880711E-008  0.1843338E+03  0.7818608E-02  0.1163673E+00
          2   -1    0    0  501    0  0.00000000000E+00  0.00000000000E+00  0.21987905596E+04  0.21987905596E+04  0.25500000000E-02 0. -1.
         -2   -1    0    0    0  501 -0.00000000000E+00 -0.00000000000E+00 -0.68361065395E+02  0.68361065443E+02  0.25500000000E-02 0.  1.
    8880022    1    1    2    0    0 -0.90769814855E+02 -0.48457756641E+02  0.20624672367E+04  0.20706883080E+04  0.15294330000E+03 0.  0.
    8880022    1    1    2    0    0  0.90769814855E+02  0.48457756641E+02  0.67962257461E+02  0.19646331699E+03  0.15294330000E+03 0.  0.
<mgrwt>
<rscale>  0 0.18433385E+03</rscale>
<asrwt>0</asrwt>
<pdfrwt beam="1">  1        2 0.33827553E+00 0.18433385E+03</pdfrwt>
<pdfrwt beam="2">  1       -2 0.10517085E-01 0.18433385E+03</pdfrwt>
<totfact> 0.36578485E+02</totfact>
</mgrwt>
</event>
<event>
 4    1  0.4880711E-008  0.2984997E+03  0.7818608E-02  0.1085993E+00
         -2   -1    0    0    0  501 -0.00000000000E+00  0.00000000000E+00  0.28997811946E+03  0.28997811947E+03  0.25500000000E-02 0.  1.
          2   -1    0    0  501    0  0.00000000000E+00 -0.00000000000E+00 -0.37806062375E+03  0.37806062376E+03  0.25500000000E-02 0. -1.
    8880022    1    1    2    0    0  0.24910267512E+02 -0.25512721227E+03  0.10049393700E+03  0.31496206162E+03  0.15294330000E+03 0.  0.
    8880022    1    1    2    0    0 -0.24910267512E+02  0.25512721227E+03 -0.18857644129E+03  0.35307668161E+03  0.15294330000E+03 0.  0.
<mgrwt>
<rscale>  0 0.29849970E+03</rscale>
<asrwt>0</asrwt>
<pdfrwt beam="1">  1        2 0.58163173E-01 0.29849970E+03</pdfrwt>
<pdfrwt beam="2">  1       -2 0.44612018E-01 0.29849970E+03</pdfrwt>
<totfact> 0.41121873E+02</totfact>
</mgrwt>
</event>
<event>
 4    1  0.4880711E-008  0.6295859E+03  0.7818608E-02  0.9845857E-01
         -2   -1    0    0    0  501 -0.00000000000E+00  0.00000000000E+00  0.26728035495E+03  0.26728035496E+03  0.25500000000E-02 0.  1.
          2   -1    0    0  501    0  0.00000000000E+00 -0.00000000000E+00 -0.18524434843E+04  0.18524434843E+04  0.25500000000E-02 0. -1.
    8880022    1    1    2    0    0  0.60770361574E+03  0.60687974865E+02 -0.12658933178E+04  0.14138119606E+04  0.15294330000E+03 0.  0.
    8880022    1    1    2    0    0 -0.60770361574E+03 -0.60687974865E+02 -0.31926981159E+03  0.70591187870E+03  0.15294330000E+03 0.  0.
<mgrwt>
<rscale>  0 0.62958587E+03</rscale>
<asrwt>0</asrwt>
<pdfrwt beam="1">  1        2 0.28499130E+00 0.62958587E+03</pdfrwt>
<pdfrwt beam="2">  1       -2 0.41120056E-01 0.62958587E+03</pdfrwt>
<totfact> 0.47174966E+01</totfact>
</mgrwt>
</event>
<event>
 4    1  0.4880711E-008  0.3436416E+03  0.7818608E-02  0.1065255E+00
         -2   -1    0    0    0  501 -0.00000000000E+00  0.00000000000E+00  0.84357973814E+02  0.84357973853E+02  0.25500000000E-02 0.  1.
          2   -1    0    0  501    0  0.00000000000E+00 -0.00000000000E+00 -0.22727468038E+04  0.22727468038E+04  0.25500000000E-02 0. -1.
    8880022    1    1    2    0    0  0.29547803940E+03 -0.85968557291E+02 -0.36380941767E+03  0.50044661055E+03  0.15294330000E+03 0.  1.
    8880022    1    1    2    0    0 -0.29547803940E+03  0.85968557291E+02 -0.18245794123E+04  0.18566581671E+04  0.15294330000E+03 0.  0.
<mgrwt>
<rscale>  0 0.34364155E+03</rscale>
<asrwt>0</asrwt>
<pdfrwt beam="1">  1        2 0.34965331E+00 0.34364155E+03</pdfrwt>
<pdfrwt beam="2">  1       -2 0.12978152E-01 0.34364155E+03</pdfrwt>
<totfact> 0.22860698E+02</totfact>
</mgrwt>
</event>
<event>
 4    1  0.4880711E-008  0.3505459E+03  0.7818608E-02  0.1062391E+00
          2   -1    0    0  501    0  0.00000000000E+00  0.00000000000E+00  0.47811793786E+03  0.47811793787E+03  0.25500000000E-02 0. -1.
         -2   -1    0    0    0  501 -0.00000000000E+00 -0.00000000000E+00 -0.36167397757E+03  0.36167397758E+03  0.25500000000E-02 0.  1.
    8880022    1    1    2    0    0  0.26471117469E+03 -0.17151907950E+03 -0.16765697393E+03  0.38857600873E+03  0.15294330000E+03 0.  0.
    8880022    1    1    2    0    0 -0.26471117469E+03  0.17151907950E+03  0.28410093422E+03  0.45121590672E+03  0.15294330000E+03 0.  0.
<mgrwt>
<rscale>  0 0.35054594E+03</rscale>
<asrwt>0</asrwt>
<pdfrwt beam="1">  1        2 0.73556606E-01 0.35054594E+03</pdfrwt>
<pdfrwt beam="2">  1       -2 0.55642150E-01 0.35054594E+03</pdfrwt>
<totfact> 0.20290934E+02</totfact>
</mgrwt>
</event>
<event>
 4    1  0.4880711E-008  0.1294704E+04  0.7818608E-02  0.9033776E-01
          2   -1    0    0  501    0  0.00000000000E+00  0.00000000000E+00  0.29320863493E+04  0.29320863493E+04  0.25500000000E-02 0. -1.
         -2   -1    0    0    0  501 -0.00000000000E+00 -0.00000000000E+00 -0.97482573218E+03  0.97482573218E+03  0.25500000000E-02 0.  1.
    8880022    1    1    2    0    0  0.99815303347E+03 -0.81028200509E+03 -0.27758272842E+03  0.13241262138E+04  0.15294330000E+03 0.  0.
    8880022    1    1    2    0    0 -0.99815303347E+03  0.81028200509E+03  0.22348433455E+04  0.25827858676E+04  0.15294330000E+03 0.  0.
<mgrwt>
<rscale>  0 0.12947038E+04</rscale>
<asrwt>0</asrwt>
<pdfrwt beam="1">  1        2 0.45109021E+00 0.12947038E+04</pdfrwt>
<pdfrwt beam="2">  1       -2 0.14997319E+00 0.12947038E+04</pdfrwt>
<totfact> 0.55874081E-01</totfact>
</mgrwt>
</event>
<event>
 4    1  0.4880711E-008  0.3260262E+03  0.7818608E-02  0.1072909E+00
          2   -1    0    0  501    0  0.00000000000E+00  0.00000000000E+00  0.57265243862E+03  0.57265243863E+03  0.25500000000E-02 0. -1.
         -2   -1    0    0    0  501 -0.00000000000E+00 -0.00000000000E+00 -0.49128390853E+03  0.49128390853E+03  0.25500000000E-02 0.  1.
    8880022    1    1    2    0    0  0.13787296145E+03  0.25276967106E+03  0.46029320007E+03  0.56405934365E+03  0.15294330000E+03 0. -1.
    8880022    1    1    2    0    0 -0.13787296145E+03 -0.25276967106E+03 -0.37892466998E+03  0.49987700351E+03  0.15294330000E+03 0.  0.
<mgrwt>
<rscale>  0 0.32602625E+03</rscale>
<asrwt>0</asrwt>
<pdfrwt beam="1">  1        2 0.88100375E-01 0.32602625E+03</pdfrwt>
<pdfrwt beam="2">  1       -2 0.75582140E-01 0.32602625E+03</pdfrwt>
<totfact> 0.86394989E+01</totfact>
</mgrwt>
</event>
<event>
 4    1  0.4880711E-008  0.1278867E+04  0.7818608E-02  0.9046493E-01
         -2   -1    0    0    0  501 -0.00000000000E+00  0.00000000000E+00  0.14083240674E+04  0.14083240674E+04  0.25500000000E-02 0.  1.
          2   -1    0    0  501    0  0.00000000000E+00 -0.00000000000E+00 -0.13626649577E+04  0.13626649577E+04  0.25500000000E-02 0. -1.
    8880022    1    1    2    0    0 -0.12619036297E+04  0.14039102902E+03  0.55541645322E+03  0.13942702397E+04  0.15294330000E+03 0.  0.
    8880022    1    1    2    0    0  0.12619036297E+04 -0.14039102902E+03 -0.50975734352E+03  0.13767187854E+04  0.15294330000E+03 0.  0.
<mgrwt>
<rscale>  0 0.12788675E+04</rscale>
<asrwt>0</asrwt>
<pdfrwt beam="1">  1        2 0.20964076E+00 0.12788675E+04</pdfrwt>
<pdfrwt beam="2">  1       -2 0.21666524E+00 0.12788675E+04</pdfrwt>
<totfact> 0.15186429E+00</totfact>
</mgrwt>
</event>
<event>
 4    1  0.4880711E-008  0.1071168E+04  0.7818608E-02  0.9233758E-01
         -2   -1    0    0    0  501 -0.00000000000E+00  0.00000000000E+00  0.83642615020E+03  0.83642615021E+03  0.25500000000E-02 0.  1.
          2   -1    0    0  501    0  0.00000000000E+00 -0.00000000000E+00 -0.25432518741E+04  0.25432518741E+04  0.25500000000E-02 0. -1.
    8880022    1    1    2    0    0  0.81583466753E+03 -0.67706902626E+03 -0.20002846802E+04  0.22690392517E+04  0.15294330000E+03 0.  0.
    8880022    1    1    2    0    0 -0.81583466753E+03  0.67706902626E+03  0.29345895631E+03  0.11106387726E+04  0.15294330000E+03 0.  0.
<mgrwt>
<rscale>  0 0.10711677E+04</rscale>
<asrwt>0</asrwt>
<pdfrwt beam="1">  1        2 0.39126952E+00 0.10711677E+04</pdfrwt>
<pdfrwt beam="2">  1       -2 0.12868095E+00 0.10711677E+04</pdfrwt>
<totfact> 0.14597590E+00</totfact>
</mgrwt>
</event>
<event>
 4    1  0.4880711E-008  0.4640982E+03  0.7818608E-02  0.1023599E+00
         -2   -1    0    0    0  501 -0.00000000000E+00  0.00000000000E+00  0.38316046976E+03  0.38316046977E+03  0.25500000000E-02 0.  1.
          2   -1    0    0  501    0  0.00000000000E+00 -0.00000000000E+00 -0.15033892973E+04  0.15033892973E+04  0.25500000000E-02 0. -1.
    8880022    1    1    2    0    0 -0.40186825350E+03  0.17463506977E+03  0.18625955703E+03  0.50007977000E+03  0.15294330000E+03 0.  0.
    8880022    1    1    2    0    0  0.40186825350E+03 -0.17463506977E+03 -0.13064883846E+04  0.13864699971E+04  0.15294330000E+03 0.  0.
<mgrwt>
<rscale>  0 0.46409822E+03</rscale>
<asrwt>0</asrwt>
<pdfrwt beam="1">  1        2 0.23129066E+00 0.46409822E+03</pdfrwt>
<pdfrwt beam="2">  1       -2 0.58947765E-01 0.46409822E+03</pdfrwt>
<totfact> 0.36194390E+01</totfact>
</mgrwt>
</event>
<event>
 4    1  0.4880711E-008  0.3236019E+03  0.7818608E-02  0.1074003E+00
         -2   -1    0    0    0  501 -0.00000000000E+00  0.00000000000E+00  0.32056809600E+03  0.32056809601E+03  0.25500000000E-02 0.  1.
          2   -1    0    0  501    0  0.00000000000E+00 -0.00000000000E+00 -0.14389253809E+04  0.14389253809E+04  0.25500000000E-02 0. -1.
    8880022    1    1    2    0    0  0.86621947335E+02 -0.27170421627E+03 -0.13326457918E+04  0.13713726709E+04  0.15294330000E+03 0. -1.
    8880022    1    1    2    0    0 -0.86621947335E+02  0.27170421627E+03  0.21428850691E+03  0.38812080607E+03  0.15294330000E+03 0.  0.
<mgrwt>
<rscale>  0 0.32360191E+03</rscale>
<asrwt>0</asrwt>
<pdfrwt beam="1">  1        2 0.22137313E+00 0.32360191E+03</pdfrwt>
<pdfrwt beam="2">  1       -2 0.49318169E-01 0.32360191E+03</pdfrwt>
<totfact> 0.58199495E+01</totfact>
</mgrwt>
</event>
<event>
 4    1  0.4880711E-008  0.4846842E+03  0.7818608E-02  0.1017856E+00
          2   -1    0    0  501    0  0.00000000000E+00  0.00000000000E+00  0.30026346421E+04  0.30026346421E+04  0.25500000000E-02 0. -1.
         -2   -1    0    0    0  501 -0.00000000000E+00 -0.00000000000E+00 -0.54545739764E+03  0.54545739764E+03  0.25500000000E-02 0.  1.
    8880022    1    1    2    0    0 -0.36633999152E+03 -0.27806850710E+03 -0.41330536145E+03  0.63697728284E+03  0.15294330000E+03 0.  1.
    8880022    1    1    2    0    0  0.36633999152E+03  0.27806850710E+03  0.28704826060E+04  0.29111147570E+04  0.15294330000E+03 0.  0.
<mgrwt>
<rscale>  0 0.48468416E+03</rscale>
<asrwt>0</asrwt>
<pdfrwt beam="1">  1        2 0.46194379E+00 0.48468416E+03</pdfrwt>
<pdfrwt beam="2">  1       -2 0.83916523E-01 0.48468416E+03</pdfrwt>
<totfact> 0.24617648E+00</totfact>
</mgrwt>
</event>
<event>
 4    1  0.4880711E-008  0.6736721E+03  0.7818608E-02  0.9763347E-01
         -2   -1    0    0    0  501 -0.00000000000E+00  0.00000000000E+00  0.83912639133E+03  0.83912639134E+03  0.25500000000E-02 0.  1.
          2   -1    0    0  501    0  0.00000000000E+00 -0.00000000000E+00 -0.72865092875E+03  0.72865092876E+03  0.25500000000E-02 0. -1.
    8880022    1    1    2    0    0  0.46375254285E+03 -0.46408616681E+03 -0.34273541975E+03  0.75584496571E+03  0.15294330000E+03 0.  0.
    8880022    1    1    2    0    0 -0.46375254285E+03  0.46408616681E+03  0.45321088233E+03  0.81193235438E+03  0.15294330000E+03 0.  0.
<mgrwt>
<rscale>  0 0.67367206E+03</rscale>
<asrwt>0</asrwt>
<pdfrwt beam="1">  1        2 0.11210014E+00 0.67367206E+03</pdfrwt>
<pdfrwt beam="2">  1       -2 0.12909637E+00 0.67367206E+03</pdfrwt>
<totfact> 0.17591953E+01</totfact>
</mgrwt>
</event>
<event>
 4    1  0.4880711E-008  0.3979305E+03  0.7818608E-02  0.1044499E+00
         -2   -1    0    0    0  501 -0.00000000000E+00  0.00000000000E+00  0.84644429688E+03  0.84644429688E+03  0.25500000000E-02 0.  1.
          2   -1    0    0  501    0  0.00000000000E+00 -0.00000000000E+00 -0.58240635068E+03  0.58240635068E+03  0.25500000000E-02 0. -1.
    8880022    1    1    2    0    0 -0.35626414233E+03  0.89626483042E+02 -0.45658654870E+03  0.60565664781E+03  0.15294330000E+03 0. -1.
    8880022    1    1    2    0    0  0.35626414233E+03 -0.89626483042E+02  0.72062449490E+03  0.82319399975E+03  0.15294330000E+03 0.  0.
<mgrwt>
<rscale>  0 0.39793052E+03</rscale>
<asrwt>0</asrwt>
<pdfrwt beam="1">  1        2 0.89600977E-01 0.39793052E+03</pdfrwt>
<pdfrwt beam="2">  1       -2 0.13022220E+00 0.39793052E+03</pdfrwt>
<totfact> 0.23470172E+01</totfact>
</mgrwt>
</event>
<event>
 4    1  0.4880711E-008  0.2017594E+03  0.7818608E-02  0.1148263E+00
          2   -1    0    0  501    0  0.00000000000E+00  0.00000000000E+00  0.10376878450E+03  0.10376878453E+03  0.25500000000E-02 0. -1.
         -2   -1    0    0    0  501 -0.00000000000E+00 -0.00000000000E+00 -0.40616674175E+03  0.40616674176E+03  0.25500000000E-02 0.  1.
    8880022    1    1    2    0    0  0.11216650913E+03 -0.68803176507E+02 -0.10406138604E+03  0.22701459853E+03  0.15294330000E+03 0.  0.
    8880022    1    1    2    0    0 -0.11216650913E+03  0.68803176507E+02 -0.19833657122E+03  0.28292092776E+03  0.15294330000E+03 0. -1.
<mgrwt>
<rscale>  0 0.20175940E+03</rscale>
<asrwt>0</asrwt>
<pdfrwt beam="1">  1        2 0.15964429E-01 0.20175940E+03</pdfrwt>
<pdfrwt beam="2">  1       -2 0.62487190E-01 0.20175940E+03</pdfrwt>
<totfact> 0.87308731E+02</totfact>
</mgrwt>
</event>
<event>
 4    1  0.4880711E-008  0.2112302E+03  0.7818608E-02  0.1140595E+00
          2   -1    0    0  501    0  0.00000000000E+00  0.00000000000E+00  0.12559433804E+04  0.12559433804E+04  0.25500000000E-02 0. -1.
         -2   -1    0    0    0  501 -0.00000000000E+00 -0.00000000000E+00 -0.19363212541E+03  0.19363212543E+03  0.25500000000E-02 0.  1.
    8880022    1    1    2    0    0  0.83258666594E+02 -0.11955980313E+03  0.11860887704E+04  0.12047509188E+04  0.15294330000E+03 0.  0.
    8880022    1    1    2    0    0 -0.83258666594E+02  0.11955980313E+03 -0.12377751539E+03  0.24482458704E+03  0.15294330000E+03 0.  0.
<mgrwt>
<rscale>  0 0.21123022E+03</rscale>
<asrwt>0</asrwt>
<pdfrwt beam="1">  1        2 0.19322205E+00 0.21123022E+03</pdfrwt>
<pdfrwt beam="2">  1       -2 0.29789559E-01 0.21123022E+03</pdfrwt>
<totfact> 0.19667173E+02</totfact>
</mgrwt>
</event>
<event>
 4    1  0.4880711E-008  0.2085535E+03  0.7818608E-02  0.1142717E+00
         -2   -1    0    0    0  501 -0.00000000000E+00  0.00000000000E+00  0.11080557111E+03  0.11080557113E+03  0.25500000000E-02 0.  1.
          2   -1    0    0  501    0  0.00000000000E+00 -0.00000000000E+00 -0.97887125868E+03  0.97887125868E+03  0.25500000000E-02 0. -1.
    8880022    1    1    2    0    0  0.45239695044E+01  0.14171249326E+03 -0.85570995560E+03  0.88075767279E+03  0.15294330000E+03 0.  0.
    8880022    1    1    2    0    0 -0.45239695044E+01 -0.14171249326E+03 -0.12355731976E+02  0.20891915703E+03  0.15294330000E+03 0.  0.
<mgrwt>
<rscale>  0 0.20855347E+03</rscale>
<asrwt>0</asrwt>
<pdfrwt beam="1">  1        2 0.15059557E+00 0.20855347E+03</pdfrwt>
<pdfrwt beam="2">  1       -2 0.17047012E-01 0.20855347E+03</pdfrwt>
<totfact> 0.75241759E+02</totfact>
</mgrwt>
</event>
<event>
 4    1  0.4880711E-008  0.5859679E+03  0.7818608E-02  0.9934954E-01
          2   -1    0    0  501    0  0.00000000000E+00  0.00000000000E+00  0.21474891981E+04  0.21474891981E+04  0.25500000000E-02 0. -1.
         -2   -1    0    0    0  501 -0.00000000000E+00 -0.00000000000E+00 -0.92648412672E+03  0.92648412672E+03  0.25500000000E-02 0.  1.
    8880022    1    1    2    0    0 -0.56565598336E+03  0.47334372991E-01  0.20085899922E+04  0.20923174003E+04  0.15294330000E+03 0. -1.
    8880022    1    1    2    0    0  0.56565598336E+03 -0.47334372991E-01 -0.78758492080E+03  0.98165592457E+03  0.15294330000E+03 0.  0.
<mgrwt>
<rscale>  0 0.58596787E+03</rscale>
<asrwt>0</asrwt>
<pdfrwt beam="1">  1        2 0.33038295E+00 0.58596787E+03</pdfrwt>
<pdfrwt beam="2">  1       -2 0.14253602E+00 0.58596787E+03</pdfrwt>
<totfact> 0.20435893E+00</totfact>
</mgrwt>
</event>
<event>
 4    1  0.4880711E-008  0.3172358E+03  0.7818608E-02  0.1076929E+00
          2   -1    0    0  501    0  0.00000000000E+00  0.00000000000E+00  0.76214013863E+03  0.76214013864E+03  0.25500000000E-02 0. -1.
         -2   -1    0    0    0  501 -0.00000000000E+00 -0.00000000000E+00 -0.82861504722E+03  0.82861504722E+03  0.25500000000E-02 0.  1.
    8880022    1    1    2    0    0 -0.46061503155E+02  0.27408980058E+03  0.69601622793E+03  0.76490334253E+03  0.15294330000E+03 0.  0.
    8880022    1    1    2    0    0  0.46061503155E+02 -0.27408980058E+03 -0.76249113651E+03  0.82585184333E+03  0.15294330000E+03 0.  0.
<mgrwt>
<rscale>  0 0.31723577E+03</rscale>
<asrwt>0</asrwt>
<pdfrwt beam="1">  1        2 0.11725233E+00 0.31723577E+03</pdfrwt>
<pdfrwt beam="2">  1       -2 0.12747924E+00 0.31723577E+03</pdfrwt>
<totfact> 0.18132641E+01</totfact>
</mgrwt>
</event>
<event>
 4    1  0.4880711E-008  0.6432759E+03  0.7818608E-02  0.9819479E-01
          2   -1    0    0  501    0  0.00000000000E+00  0.00000000000E+00  0.12579028822E+04  0.12579028822E+04  0.25500000000E-02 0. -1.
         -2   -1    0    0    0  501 -0.00000000000E+00 -0.00000000000E+00 -0.84118201873E+03  0.84118201874E+03  0.25500000000E-02 0.  1.
    8880022    1    1    2    0    0 -0.30999222387E+03 -0.54250991656E+03 -0.61063740673E+03  0.88695089151E+03  0.15294330000E+03 0.  0.
    8880022    1    1    2    0    0  0.30999222387E+03  0.54250991656E+03  0.10273582702E+04  0.12121340094E+04  0.15294330000E+03 0.  0.
<mgrwt>
<rscale>  0 0.64327587E+03</rscale>
<asrwt>0</asrwt>
<pdfrwt beam="1">  1        2 0.19352352E+00 0.64327587E+03</pdfrwt>
<pdfrwt beam="2">  1       -2 0.12941262E+00 0.64327587E+03</pdfrwt>
<totfact> 0.79711574E+00</totfact>
</mgrwt>
</event>
<event>
 4    1  0.4880711E-008  0.4564948E+03  0.7818608E-02  0.1025803E+00
          2   -1    0    0  501    0  0.00000000000E+00  0.00000000000E+00  0.23993308492E+04  0.23993308492E+04  0.25500000000E-02 0. -1.
         -2   -1    0    0    0  501 -0.00000000000E+00 -0.00000000000E+00 -0.15225230131E+03  0.15225230133E+03  0.25500000000E-02 0.  1.
    8880022    1    1    2    0    0 -0.40256112609E+03  0.15146077798E+03  0.19596938443E+04  0.20121598952E+04  0.15294330000E+03 0.  0.
    8880022    1    1    2    0    0  0.40256112609E+03 -0.15146077798E+03  0.28738470358E+03  0.53942325532E+03  0.15294330000E+03 0.  1.
<mgrwt>
<rscale>  0 0.45649478E+03</rscale>
<asrwt>0</asrwt>
<pdfrwt beam="1">  1        2 0.36912780E+00 0.45649478E+03</pdfrwt>
<pdfrwt beam="2">  1       -2 0.23423433E-01 0.45649478E+03</pdfrwt>
<totfact> 0.69689601E+01</totfact>
</mgrwt>
</event>
<event>
 4    1  0.4880711E-008  0.2020308E+03  0.7818608E-02  0.1148037E+00
          2   -1    0    0  501    0  0.00000000000E+00  0.00000000000E+00  0.15001241966E+04  0.15001241966E+04  0.25500000000E-02 0. -1.
         -2   -1    0    0    0  501 -0.00000000000E+00 -0.00000000000E+00 -0.86763672492E+02  0.86763672529E+02  0.25500000000E-02 0.  1.
    8880022    1    1    2    0    0 -0.32884228076E+02  0.12784138918E+03  0.49315751078E+02  0.20796271196E+03  0.15294330000E+03 0.  0.
    8880022    1    1    2    0    0  0.32884228076E+02 -0.12784138918E+03  0.13640447730E+04  0.13789251572E+04  0.15294330000E+03 0. -1.
<mgrwt>
<rscale>  0 0.20203081E+03</rscale>
<asrwt>0</asrwt>
<pdfrwt beam="1">  1        2 0.23078833E+00 0.20203081E+03</pdfrwt>
<pdfrwt beam="2">  1       -2 0.13348258E-01 0.20203081E+03</pdfrwt>
<totfact> 0.57419852E+02</totfact>
</mgrwt>
</event>
<event>
 4    1  0.4880711E-008  0.4171818E+03  0.7818608E-02  0.1037987E+00
          2   -1    0    0  501    0  0.00000000000E+00  0.00000000000E+00  0.48207998700E+03  0.48207998701E+03  0.25500000000E-02 0. -1.
         -2   -1    0    0    0  501 -0.00000000000E+00 -0.00000000000E+00 -0.45778927287E+03  0.45778927287E+03  0.25500000000E-02 0.  1.
    8880022    1    1    2    0    0 -0.37635773447E+03  0.94888560393E+02  0.22820458878E+03  0.47551863322E+03  0.15294330000E+03 0. -1.
    8880022    1    1    2    0    0  0.37635773447E+03 -0.94888560393E+02 -0.20391387465E+03  0.46435062666E+03  0.15294330000E+03 0.  0.
<mgrwt>
<rscale>  0 0.41718178E+03</rscale>
<asrwt>0</asrwt>
<pdfrwt beam="1">  1        2 0.74166152E-01 0.41718178E+03</pdfrwt>
<pdfrwt beam="2">  1       -2 0.70429119E-01 0.41718178E+03</pdfrwt>
<totfact> 0.12162743E+02</totfact>
</mgrwt>
</event>
<event>
 4    1  0.4880711E-008  0.2520144E+03  0.7818608E-02  0.1112038E+00
          2   -1    0    0  501    0  0.00000000000E+00  0.00000000000E+00  0.92886668757E+03  0.92886668757E+03  0.25500000000E-02 0. -1.
         -2   -1    0    0    0  501 -0.00000000000E+00 -0.00000000000E+00 -0.29071689391E+03  0.29071689393E+03  0.25500000000E-02 0.  1.
    8880022    1    1    2    0    0 -0.10089036200E+03 -0.17303395360E+03 -0.21420729456E+03  0.33075071021E+03  0.15294330000E+03 0.  0.
    8880022    1    1    2    0    0  0.10089036200E+03  0.17303395360E+03  0.85235708821E+03  0.88883287129E+03  0.15294330000E+03 0. -1.
<mgrwt>
<rscale>  0 0.25201442E+03</rscale>
<asrwt>0</asrwt>
<pdfrwt beam="1">  1        2 0.14290257E+00 0.25201442E+03</pdfrwt>
<pdfrwt beam="2">  1       -2 0.44725675E-01 0.25201442E+03</pdfrwt>
<totfact> 0.14160808E+02</totfact>
</mgrwt>
</event>
<event>
 4    1  0.4880711E-008  0.2126443E+03  0.7818608E-02  0.1139489E+00
          2   -1    0    0  501    0  0.00000000000E+00  0.00000000000E+00  0.28002404617E+04  0.28002404617E+04  0.25500000000E-02 0. -1.
         -2   -1    0    0    0  501 -0.00000000000E+00 -0.00000000000E+00 -0.25480962291E+03  0.25480962293E+03  0.25500000000E-02 0.  1.
    8880022    1    1    2    0    0 -0.14295284978E+03 -0.37288324013E+02  0.27510473125E+04  0.27592533238E+04  0.15294330000E+03 0. -1.
    8880022    1    1    2    0    0  0.14295284978E+03  0.37288324013E+02 -0.20561647377E+03  0.29579676075E+03  0.15294330000E+03 0.  0.
<mgrwt>
<rscale>  0 0.21264428E+03</rscale>
<asrwt>0</asrwt>
<pdfrwt beam="1">  1        2 0.43080622E+00 0.21264428E+03</pdfrwt>
<pdfrwt beam="2">  1       -2 0.39201481E-01 0.21264428E+03</pdfrwt>
<totfact> 0.17655988E+01</totfact>
</mgrwt>
</event>
<event>
 4    1  0.4880711E-008  0.3460563E+03  0.7818608E-02  0.1064245E+00
          2   -1    0    0  501    0  0.00000000000E+00  0.00000000000E+00  0.17950207776E+04  0.17950207776E+04  0.25500000000E-02 0. -1.
         -2   -1    0    0    0  501 -0.00000000000E+00 -0.00000000000E+00 -0.88800693429E+02  0.88800693465E+02  0.25500000000E-02 0.  1.
    8880022    1    1    2    0    0 -0.28415040218E+03  0.12498753573E+03  0.13228485011E+04  0.13673635745E+04  0.15294330000E+03 0. -1.
    8880022    1    1    2    0    0  0.28415040218E+03 -0.12498753573E+03  0.38337158307E+03  0.51645789651E+03  0.15294330000E+03 0.  0.
<mgrwt>
<rscale>  0 0.34605634E+03</rscale>
<asrwt>0</asrwt>
<pdfrwt beam="1">  1        2 0.27615699E+00 0.34605634E+03</pdfrwt>
<pdfrwt beam="2">  1       -2 0.13661648E-01 0.34605634E+03</pdfrwt>
<totfact> 0.37745101E+02</totfact>
</mgrwt>
</event>
<event>
 4    1  0.4880711E-008  0.9490933E+03  0.7818608E-02  0.9366211E-01
         -2   -1    0    0    0  501 -0.00000000000E+00  0.00000000000E+00  0.69650971109E+03  0.69650971110E+03  0.25500000000E-02 0.  1.
          2   -1    0    0  501    0  0.00000000000E+00 -0.00000000000E+00 -0.41270342833E+04  0.41270342833E+04  0.25500000000E-02 0. -1.
    8880022    1    1    2    0    0  0.91126745684E+03 -0.21674418456E+03 -0.37137374049E+04  0.38330958226E+04  0.15294330000E+03 0.  0.
    8880022    1    1    2    0    0 -0.91126745684E+03  0.21674418456E+03  0.28321283270E+03  0.99044817182E+03  0.15294330000E+03 0.  0.
<mgrwt>
<rscale>  0 0.94909329E+03</rscale>
<asrwt>0</asrwt>
<pdfrwt beam="1">  1        2 0.63492834E+00 0.94909329E+03</pdfrwt>
<pdfrwt beam="2">  1       -2 0.10715534E+00 0.94909329E+03</pdfrwt>
<totfact> 0.20062892E-01</totfact>
</mgrwt>
</event>
<event>
 4    1  0.4880711E-008  0.5653493E+03  0.7818608E-02  0.9980023E-01
          2   -1    0    0  501    0  0.00000000000E+00  0.00000000000E+00  0.20671344530E+04  0.20671344530E+04  0.25500000000E-02 0. -1.
         -2   -1    0    0    0  501 -0.00000000000E+00 -0.00000000000E+00 -0.26731672052E+03  0.26731672053E+03  0.25500000000E-02 0.  1.
    8880022    1    1    2    0    0 -0.41211118765E+03 -0.35551723343E+03  0.14203334294E+03  0.58291788253E+03  0.15294330000E+03 0.  1.
    8880022    1    1    2    0    0  0.41211118765E+03  0.35551723343E+03  0.16577843895E+04  0.17515332910E+04  0.15294330000E+03 0.  0.
<mgrwt>
<rscale>  0 0.56534926E+03</rscale>
<asrwt>0</asrwt>
<pdfrwt beam="1">  1        2 0.31802068E+00 0.56534926E+03</pdfrwt>
<pdfrwt beam="2">  1       -2 0.41125650E-01 0.56534926E+03</pdfrwt>
<totfact> 0.36450473E+01</totfact>
</mgrwt>
</event>
<event>
 4    1  0.4880711E-008  0.4687261E+03  0.7818608E-02  0.1022280E+00
          2   -1    0    0  501    0  0.00000000000E+00  0.00000000000E+00  0.17034239044E+04  0.17034239044E+04  0.25500000000E-02 0. -1.
         -2   -1    0    0    0  501 -0.00000000000E+00 -0.00000000000E+00 -0.26667531453E+03  0.26667531454E+03  0.25500000000E-02 0.  1.
    8880022    1    1    2    0    0  0.71718416480E+02 -0.43722875360E+03  0.10543475121E+02  0.46884467804E+03  0.15294330000E+03 0.  0.
    8880022    1    1    2    0    0 -0.71718416480E+02  0.43722875360E+03  0.14262051148E+04  0.15012545409E+04  0.15294330000E+03 0.  0.
<mgrwt>
<rscale>  0 0.46872611E+03</rscale>
<asrwt>0</asrwt>
<pdfrwt beam="1">  1        2 0.26206522E+00 0.46872611E+03</pdfrwt>
<pdfrwt beam="2">  1       -2 0.41026971E-01 0.46872611E+03</pdfrwt>
<totfact> 0.58478244E+01</totfact>
</mgrwt>
</event>
<event>
 4    1  0.4880711E-008  0.2862923E+03  0.7818608E-02  0.1092301E+00
          2   -1    0    0  501    0  0.00000000000E+00  0.00000000000E+00  0.21077886558E+04  0.21077886558E+04  0.25500000000E-02 0. -1.
         -2   -1    0    0    0  501 -0.00000000000E+00 -0.00000000000E+00 -0.24976228826E+03  0.24976228827E+03  0.25500000000E-02 0.  1.
    8880022    1    1    2    0    0 -0.22471943879E+03  0.89848769086E+02  0.20121457777E+04  0.20324108618E+04  0.15294330000E+03 0.  0.
    8880022    1    1    2    0    0  0.22471943879E+03 -0.89848769086E+02 -0.15411941017E+03  0.32514008225E+03  0.15294330000E+03 0.  1.
<mgrwt>
<rscale>  0 0.28629230E+03</rscale>
<asrwt>0</asrwt>
<pdfrwt beam="1">  1        2 0.32427518E+00 0.28629230E+03</pdfrwt>
<pdfrwt beam="2">  1       -2 0.38424968E-01 0.28629230E+03</pdfrwt>
<totfact> 0.42255459E+01</totfact>
</mgrwt>
</event>
<event>
 4    1  0.4880711E-008  0.9414898E+03  0.7818608E-02  0.9375153E-01
          2   -1    0    0  501    0  0.00000000000E+00  0.00000000000E+00  0.30308576128E+04  0.30308576128E+04  0.25500000000E-02 0. -1.
         -2   -1    0    0    0  501 -0.00000000000E+00 -0.00000000000E+00 -0.76864489598E+03  0.76864489598E+03  0.25500000000E-02 0.  1.
    8880022    1    1    2    0    0  0.79886402653E+03  0.47415995043E+03  0.26263842453E+04  0.27900353490E+04  0.15294330000E+03 0.  0.
    8880022    1    1    2    0    0 -0.79886402653E+03 -0.47415995043E+03 -0.36417152852E+03  0.10094671598E+04  0.15294330000E+03 0.  0.
<mgrwt>
<rscale>  0 0.94148980E+03</rscale>
<asrwt>0</asrwt>
<pdfrwt beam="1">  1        2 0.46628578E+00 0.94148980E+03</pdfrwt>
<pdfrwt beam="2">  1       -2 0.11825306E+00 0.94148980E+03</pdfrwt>
<totfact> 0.94374131E-01</totfact>
</mgrwt>
</event>
<event>
 4    1  0.4880711E-008  0.3764097E+03  0.7818608E-02  0.1052269E+00
          2   -1    0    0  501    0  0.00000000000E+00  0.00000000000E+00  0.57889051421E+03  0.57889051422E+03  0.25500000000E-02 0. -1.
         -2   -1    0    0    0  501 -0.00000000000E+00 -0.00000000000E+00 -0.27431105945E+03  0.27431105946E+03  0.25500000000E-02 0.  1.
    8880022    1    1    2    0    0  0.31647716498E+03  0.13466545701E+03  0.29232907575E+03  0.47659261724E+03  0.15294330000E+03 0.  0.
    8880022    1    1    2    0    0 -0.31647716498E+03 -0.13466545701E+03  0.12250379006E+02  0.37660895644E+03  0.15294330000E+03 0.  0.
<mgrwt>
<rscale>  0 0.37640966E+03</rscale>
<asrwt>0</asrwt>
<pdfrwt beam="1">  1        2 0.89060079E-01 0.37640966E+03</pdfrwt>
<pdfrwt beam="2">  1       -2 0.42201702E-01 0.37640966E+03</pdfrwt>
<totfact> 0.28278191E+02</totfact>
</mgrwt>
</event>
<event>
 4    1  0.4880711E-008  0.4356015E+03  0.7818608E-02  0.1032105E+00
         -2   -1    0    0    0  501 -0.00000000000E+00  0.00000000000E+00  0.13889968897E+03  0.13889968899E+03  0.25500000000E-02 0.  1.
          2   -1    0    0  501    0  0.00000000000E+00 -0.00000000000E+00 -0.18882686309E+04  0.18882686309E+04  0.25500000000E-02 0. -1.
    8880022    1    1    2    0    0  0.34059993357E+02  0.40644425595E+03 -0.34166890935E+03  0.55361206000E+03  0.15294330000E+03 0.  0.
    8880022    1    1    2    0    0 -0.34059993357E+02 -0.40644425595E+03 -0.14077000326E+04  0.14735562599E+04  0.15294330000E+03 0.  0.
<mgrwt>
<rscale>  0 0.43560150E+03</rscale>
<asrwt>0</asrwt>
<pdfrwt beam="1">  1        2 0.29050285E+00 0.43560150E+03</pdfrwt>
<pdfrwt beam="2">  1       -2 0.21369184E-01 0.43560150E+03</pdfrwt>
<totfact> 0.15540655E+02</totfact>
</mgrwt>
</event>
<event>
 4    1  0.4880711E-008  0.3935636E+03  0.7818608E-02  0.1046031E+00
          2   -1    0    0  501    0  0.00000000000E+00  0.00000000000E+00  0.10993745389E+03  0.10993745392E+03  0.25500000000E-02 0. -1.
         -2   -1    0    0    0  501 -0.00000000000E+00 -0.00000000000E+00 -0.19329070746E+04  0.19329070746E+04  0.25500000000E-02 0.  1.
    8880022    1    1    2    0    0 -0.28674675910E+03  0.22198419884E+03 -0.37966697956E+03  0.54684491108E+03  0.15294330000E+03 0. -1.
    8880022    1    1    2    0    0  0.28674675910E+03 -0.22198419884E+03 -0.14433026411E+04  0.14959996174E+04  0.15294330000E+03 0.  0.
<mgrwt>
<rscale>  0 0.39356364E+03</rscale>
<asrwt>0</asrwt>
<pdfrwt beam="1">  1        2 0.16913456E-01 0.39356364E+03</pdfrwt>
<pdfrwt beam="2">  1       -2 0.29737029E+00 0.39356364E+03</pdfrwt>
<totfact> 0.12476661E+01</totfact>
</mgrwt>
</event>
<event>
 4    1  0.4880711E-008  0.4524060E+03  0.7818608E-02  0.1027007E+00
          2   -1    0    0  501    0  0.00000000000E+00  0.00000000000E+00  0.28367216980E+04  0.28367216980E+04  0.25500000000E-02 0. -1.
         -2   -1    0    0    0  501 -0.00000000000E+00 -0.00000000000E+00 -0.94309053562E+02  0.94309053596E+02  0.25500000000E-02 0.  1.
    8880022    1    1    2    0    0 -0.25616668117E+03  0.34008556741E+03  0.20815741175E+04  0.21301694818E+04  0.15294330000E+03 0.  0.
    8880022    1    1    2    0    0  0.25616668117E+03 -0.34008556741E+03  0.66083852698E+03  0.80086126979E+03  0.15294330000E+03 0.  0.
<mgrwt>
<rscale>  0 0.45240603E+03</rscale>
<asrwt>0</asrwt>
<pdfrwt beam="1">  1        2 0.43641872E+00 0.45240603E+03</pdfrwt>
<pdfrwt beam="2">  1       -2 0.14509085E-01 0.45240603E+03</pdfrwt>
<totfact> 0.89712455E+01</totfact>
</mgrwt>
</event>
<event>
 4    1  0.4880711E-008  0.3576125E+03  0.7818608E-02  0.1059533E+00
          2   -1    0    0  501    0  0.00000000000E+00  0.00000000000E+00  0.19729461755E+04  0.19729461755E+04  0.25500000000E-02 0. -1.
         -2   -1    0    0    0  501 -0.00000000000E+00 -0.00000000000E+00 -0.19335692432E+03  0.19335692434E+03  0.25500000000E-02 0.  1.
    8880022    1    1    2    0    0 -0.22133454330E+03 -0.23559732062E+03  0.17729213047E+04  0.18086283983E+04  0.15294330000E+03 0. -1.
    8880022    1    1    2    0    0  0.22133454330E+03  0.23559732062E+03  0.66679464174E+01  0.35767470146E+03  0.15294330000E+03 0.  0.
<mgrwt>
<rscale>  0 0.35761254E+03</rscale>
<asrwt>0</asrwt>
<pdfrwt beam="1">  1        2 0.30353020E+00 0.35761254E+03</pdfrwt>
<pdfrwt beam="2">  1       -2 0.29747217E-01 0.35761254E+03</pdfrwt>
<totfact> 0.78723614E+01</totfact>
</mgrwt>
</event>
<event>
 4    1  0.4880711E-008  0.3923243E+03  0.7818608E-02  0.1046470E+00
          2   -1    0    0  501    0  0.00000000000E+00  0.00000000000E+00  0.11042696296E+04  0.11042696296E+04  0.25500000000E-02 0. -1.
         -2   -1    0    0    0  501 -0.00000000000E+00 -0.00000000000E+00 -0.19360887849E+03  0.19360887851E+03  0.25500000000E-02 0.  1.
    8880022    1    1    2    0    0  0.21164394751E+02 -0.36066438146E+03  0.79875985866E+03  0.88990768762E+03  0.15294330000E+03 0. -1.
    8880022    1    1    2    0    0 -0.21164394751E+02  0.36066438146E+03  0.11190089249E+03  0.40797082054E+03  0.15294330000E+03 0.  0.
<mgrwt>
<rscale>  0 0.39232433E+03</rscale>
<asrwt>0</asrwt>
<pdfrwt beam="1">  1        2 0.16988764E+00 0.39232433E+03</pdfrwt>
<pdfrwt beam="2">  1       -2 0.29785980E-01 0.39232433E+03</pdfrwt>
<totfact> 0.23379313E+02</totfact>
</mgrwt>
</event>
<event>
 4    1  0.4880711E-008  0.2767691E+03  0.7818608E-02  0.1097467E+00
          2   -1    0    0  501    0  0.00000000000E+00  0.00000000000E+00  0.94872363864E+03  0.94872363864E+03  0.25500000000E-02 0. -1.
         -2   -1    0    0    0  501 -0.00000000000E+00 -0.00000000000E+00 -0.36564412916E+03  0.36564412917E+03  0.25500000000E-02 0.  1.
    8880022    1    1    2    0    0 -0.20804191122E+03  0.99639613912E+02 -0.28856445003E+03  0.39983819768E+03  0.15294330000E+03 0.  1.
    8880022    1    1    2    0    0  0.20804191122E+03 -0.99639613912E+02  0.87164395951E+03  0.91452957013E+03  0.15294330000E+03 0.  0.
<mgrwt>
<rscale>  0 0.27676911E+03</rscale>
<asrwt>0</asrwt>
<pdfrwt beam="1">  1        2 0.14595748E+00 0.27676911E+03</pdfrwt>
<pdfrwt beam="2">  1       -2 0.56252943E-01 0.27676911E+03</pdfrwt>
<totfact> 0.86486657E+01</totfact>
</mgrwt>
</event>
<event>
 4    1  0.4880711E-008  0.6921785E+03  0.7818608E-02  0.9730702E-01
          2   -1    0    0  501    0  0.00000000000E+00  0.00000000000E+00  0.29866143623E+04  0.29866143623E+04  0.25500000000E-02 0. -1.
         -2   -1    0    0    0  501 -0.00000000000E+00 -0.00000000000E+00 -0.20606753555E+03  0.20606753556E+03  0.25500000000E-02 0.  1.
    8880022    1    1    2    0    0  0.66258380245E+03 -0.12923695314E+03  0.63894124688E+03  0.94199631385E+03  0.15294330000E+03 0.  0.
    8880022    1    1    2    0    0 -0.66258380245E+03  0.12923695314E+03  0.21416055799E+04  0.22506855840E+04  0.15294330000E+03 0.  0.
<mgrwt>
<rscale>  0 0.69217855E+03</rscale>
<asrwt>0</asrwt>
<pdfrwt beam="1">  1        2 0.45947911E+00 0.69217855E+03</pdfrwt>
<pdfrwt beam="2">  1       -2 0.31702699E-01 0.69217855E+03</pdfrwt>
<totfact> 0.17564260E+01</totfact>
</mgrwt>
</event>
<event>
 4    1  0.4880711E-008  0.4319299E+03  0.7818608E-02  0.1033252E+00
         -2   -1    0    0    0  501 -0.00000000000E+00  0.00000000000E+00  0.22271162061E+03  0.22271162062E+03  0.25500000000E-02 0.  1.
          2   -1    0    0  501    0  0.00000000000E+00 -0.00000000000E+00 -0.24555443071E+04  0.24555443071E+04  0.25500000000E-02 0. -1.
    8880022    1    1    2    0    0 -0.33392149649E+03  0.22730639364E+03 -0.22033870127E+04  0.22453235275E+04  0.15294330000E+03 0.  0.
    8880022    1    1    2    0    0  0.33392149649E+03 -0.22730639364E+03 -0.29445673757E+02  0.43293240018E+03  0.15294330000E+03 0.  0.
<mgrwt>
<rscale>  0 0.43192987E+03</rscale>
<asrwt>0</asrwt>
<pdfrwt beam="1">  1        2 0.37777603E+00 0.43192987E+03</pdfrwt>
<pdfrwt beam="2">  1       -2 0.34263328E-01 0.43192987E+03</pdfrwt>
<totfact> 0.32601799E+01</totfact>
</mgrwt>
</event>
<event>
 4    1  0.4880711E-008  0.8160766E+03  0.7818608E-02  0.9537034E-01
          2   -1    0    0  501    0  0.00000000000E+00  0.00000000000E+00  0.21128132824E+04  0.21128132824E+04  0.25500000000E-02 0. -1.
         -2   -1    0    0    0  501 -0.00000000000E+00 -0.00000000000E+00 -0.36831089619E+03  0.36831089620E+03  0.25500000000E-02 0.  1.
    8880022    1    1    2    0    0  0.21497538302E+03  0.77225316699E+03  0.40120887446E+03  0.90936768317E+03  0.15294330000E+03 0.  1.
    8880022    1    1    2    0    0 -0.21497538302E+03 -0.77225316699E+03  0.13432935118E+04  0.15717564955E+04  0.15294330000E+03 0. -1.
<mgrwt>
<rscale>  0 0.81607660E+03</rscale>
<asrwt>0</asrwt>
<pdfrwt beam="1">  1        2 0.32504819E+00 0.81607660E+03</pdfrwt>
<pdfrwt beam="2">  1       -2 0.56663216E-01 0.81607660E+03</pdfrwt>
<totfact> 0.17350678E+01</totfact>
</mgrwt>
</event>
<event>
 4    1  0.4880711E-008  0.1102639E+04  0.7818608E-02  0.9202623E-01
         -2   -1    0    0    0  501 -0.00000000000E+00  0.00000000000E+00  0.12238053484E+04  0.12238053484E+04  0.25500000000E-02 0.  1.
          2   -1    0    0  501    0  0.00000000000E+00 -0.00000000000E+00 -0.14947271379E+04  0.14947271379E+04  0.25500000000E-02 0. -1.
    8880022    1    1    2    0    0  0.10612621069E+04 -0.25718605917E+03 -0.92260449574E+03  0.14377109018E+04  0.15294330000E+03 0.  0.
    8880022    1    1    2    0    0 -0.10612621069E+04  0.25718605917E+03  0.65168270623E+03  0.12808215845E+04  0.15294330000E+03 0.  0.
<mgrwt>
<rscale>  0 0.11026394E+04</rscale>
<asrwt>0</asrwt>
<pdfrwt beam="1">  1        2 0.22995802E+00 0.11026394E+04</pdfrwt>
<pdfrwt beam="2">  1       -2 0.18827775E+00 0.11026394E+04</pdfrwt>
<totfact> 0.19954255E+00</totfact>
</mgrwt>
</event>
<event>
 4    1  0.4880711E-008  0.1253389E+04  0.7818608E-02  0.9067367E-01
         -2   -1    0    0    0  501 -0.00000000000E+00  0.00000000000E+00  0.20737647102E+04  0.20737647102E+04  0.25500000000E-02 0.  1.
          2   -1    0    0  501    0  0.00000000000E+00 -0.00000000000E+00 -0.16255309680E+04  0.16255309680E+04  0.25500000000E-02 0. -1.
    8880022    1    1    2    0    0 -0.12049273972E+04  0.30942452303E+03  0.15757099278E+04  0.20134167471E+04  0.15294330000E+03 0.  0.
    8880022    1    1    2    0    0  0.12049273972E+04 -0.30942452303E+03 -0.11274761857E+04  0.16858789311E+04  0.15294330000E+03 0.  0.
<mgrwt>
<rscale>  0 0.12533895E+04</rscale>
<asrwt>0</asrwt>
<pdfrwt beam="1">  1        2 0.25008169E+00 0.12533895E+04</pdfrwt>
<pdfrwt beam="2">  1       -2 0.31904073E+00 0.12533895E+04</pdfrwt>
<totfact> 0.25406025E-01</totfact>
</mgrwt>
</event>
<event>
 4    1  0.4880711E-008  0.3031000E+03  0.7818608E-02  0.1083701E+00
         -2   -1    0    0    0  501 -0.00000000000E+00  0.00000000000E+00  0.13383928884E+03  0.13383928887E+03  0.25500000000E-02 0.  1.
          2   -1    0    0  501    0  0.00000000000E+00 -0.00000000000E+00 -0.23843139244E+04  0.23843139244E+04  0.25500000000E-02 0. -1.
    8880022    1    1    2    0    0 -0.13225244306E+03  0.22580358640E+03 -0.21877302324E+04  0.22086269923E+04  0.15294330000E+03 0.  0.
    8880022    1    1    2    0    0  0.13225244306E+03 -0.22580358640E+03 -0.62744403152E+02  0.30952622097E+03  0.15294330000E+03 0.  0.
<mgrwt>
<rscale>  0 0.30310002E+03</rscale>
<asrwt>0</asrwt>
<pdfrwt beam="1">  1        2 0.36681750E+00 0.30310002E+03</pdfrwt>
<pdfrwt beam="2">  1       -2 0.20590662E-01 0.30310002E+03</pdfrwt>
<totfact> 0.92426626E+01</totfact>
</mgrwt>
</event>
<event>
 4    1  0.4880711E-008  0.7811708E+03  0.7818608E-02  0.9587679E-01
         -2   -1    0    0    0  501 -0.00000000000E+00  0.00000000000E+00  0.11259858653E+04  0.11259858653E+04  0.25500000000E-02 0.  1.
          2   -1    0    0  501    0  0.00000000000E+00 -0.00000000000E+00 -0.81883971264E+03  0.81883971265E+03  0.25500000000E-02 0. -1.
    8880022    1    1    2    0    0 -0.60601465029E+03  0.46859616344E+03  0.71903687821E+03  0.10617164433E+04  0.15294330000E+03 0.  0.
    8880022    1    1    2    0    0  0.60601465029E+03 -0.46859616344E+03 -0.41189072559E+03  0.88310913459E+03  0.15294330000E+03 0.  0.
<mgrwt>
<rscale>  0 0.78117077E+03</rscale>
<asrwt>0</asrwt>
<pdfrwt beam="1">  1        2 0.12597534E+00 0.78117077E+03</pdfrwt>
<pdfrwt beam="2">  1       -2 0.17322859E+00 0.78117077E+03</pdfrwt>
<totfact> 0.68503028E+00</totfact>
</mgrwt>
</event>
<event>
 4    1  0.4880711E-008  0.7879809E+03  0.7818608E-02  0.9577579E-01
          2   -1    0    0  501    0  0.00000000000E+00  0.00000000000E+00  0.25189158002E+04  0.25189158002E+04  0.25500000000E-02 0. -1.
         -2   -1    0    0    0  501 -0.00000000000E+00 -0.00000000000E+00 -0.30129932125E+03  0.30129932126E+03  0.25500000000E-02 0.  1.
    8880022    1    1    2    0    0 -0.31788111309E+03 -0.70460896948E+03  0.17101744297E+04  0.18829791382E+04  0.15294330000E+03 0.  0.
    8880022    1    1    2    0    0  0.31788111309E+03  0.70460896948E+03  0.50744204926E+03  0.93723598325E+03  0.15294330000E+03 0.  0.
<mgrwt>
<rscale>  0 0.78798087E+03</rscale>
<asrwt>0</asrwt>
<pdfrwt beam="1">  1        2 0.38752550E+00 0.78798087E+03</pdfrwt>
<pdfrwt beam="2">  1       -2 0.46353742E-01 0.78798087E+03</pdfrwt>
<totfact> 0.15595866E+01</totfact>
</mgrwt>
</event>
<event>
 4    1  0.4880711E-008  0.5249485E+03  0.7818608E-02  0.1007465E+00
          2   -1    0    0  501    0  0.00000000000E+00  0.00000000000E+00  0.17072128261E+04  0.17072128261E+04  0.25500000000E-02 0. -1.
         -2   -1    0    0    0  501 -0.00000000000E+00 -0.00000000000E+00 -0.48867487551E+03  0.48867487552E+03  0.25500000000E-02 0.  1.
    8880022    1    1    2    0    0  0.45711813609E+03  0.20789970274E+03 -0.28922682265E+03  0.59935222090E+03  0.15294330000E+03 0.  0.
    8880022    1    1    2    0    0 -0.45711813609E+03 -0.20789970274E+03  0.15077647732E+04  0.15965354807E+04  0.15294330000E+03 0.  0.
<mgrwt>
<rscale>  0 0.52494850E+03</rscale>
<asrwt>0</asrwt>
<pdfrwt beam="1">  1        2 0.26264812E+00 0.52494850E+03</pdfrwt>
<pdfrwt beam="2">  1       -2 0.75180751E-01 0.52494850E+03</pdfrwt>
<totfact> 0.16450760E+01</totfact>
</mgrwt>
</event>
<event>
 4    1  0.4880711E-008  0.7809244E+03  0.7818608E-02  0.9588046E-01
          2   -1    0    0  501    0  0.00000000000E+00  0.00000000000E+00  0.10013510459E+04  0.10013510459E+04  0.25500000000E-02 0. -1.
         -2   -1    0    0    0  501 -0.00000000000E+00 -0.00000000000E+00 -0.21729685910E+04  0.21729685910E+04  0.25500000000E-02 0.  1.
    8880022    1    1    2    0    0  0.76555492677E+03  0.19416361327E+02  0.76068747431E+03  0.10901781632E+04  0.15294330000E+03 0.  0.
    8880022    1    1    2    0    0 -0.76555492677E+03 -0.19416361327E+02 -0.19323050195E+04  0.20841414737E+04  0.15294330000E+03 0.  0.
<mgrwt>
<rscale>  0 0.78092445E+03</rscale>
<asrwt>0</asrwt>
<pdfrwt beam="1">  1        2 0.15405401E+00 0.78092445E+03</pdfrwt>
<pdfrwt beam="2">  1       -2 0.33430286E+00 0.78092445E+03</pdfrwt>
<totfact> 0.51445854E-01</totfact>
</mgrwt>
</event>
<event>
 4    1  0.4880711E-008  0.4378441E+03  0.7818608E-02  0.1031410E+00
         -2   -1    0    0    0  501 -0.00000000000E+00  0.00000000000E+00  0.14805341282E+03  0.14805341284E+03  0.25500000000E-02 0.  1.
          2   -1    0    0  501    0  0.00000000000E+00 -0.00000000000E+00 -0.17182973844E+04  0.17182973844E+04  0.25500000000E-02 0. -1.
    8880022    1    1    2    0    0 -0.19862009094E+03 -0.35897895516E+03 -0.12483683667E+04  0.13229251917E+04  0.15294330000E+03 0. -1.
    8880022    1    1    2    0    0  0.19862009094E+03  0.35897895516E+03 -0.32187560493E+03  0.54342560561E+03  0.15294330000E+03 0.  1.
<mgrwt>
<rscale>  0 0.43784413E+03</rscale>
<asrwt>0</asrwt>
<pdfrwt beam="1">  1        2 0.26435343E+00 0.43784413E+03</pdfrwt>
<pdfrwt beam="2">  1       -2 0.22777449E-01 0.43784413E+03</pdfrwt>
<totfact> 0.17125239E+02</totfact>
</mgrwt>
</event>
<event>
 4    1  0.4880711E-008  0.9150828E+03  0.7818608E-02  0.9406921E-01
          2   -1    0    0  501    0  0.00000000000E+00  0.00000000000E+00  0.16241125366E+04  0.16241125366E+04  0.25500000000E-02 0. -1.
         -2   -1    0    0    0  501 -0.00000000000E+00 -0.00000000000E+00 -0.77722285988E+03  0.77722285988E+03  0.25500000000E-02 0.  1.
    8880022    1    1    2    0    0 -0.77955112897E+03 -0.45418607545E+03  0.11200648907E+04  0.14463478026E+04  0.15294330000E+03 0.  0.
    8880022    1    1    2    0    0  0.77955112897E+03  0.45418607545E+03 -0.27317521399E+03  0.95498759383E+03  0.15294330000E+03 0.  0.
<mgrwt>
<rscale>  0 0.91508284E+03</rscale>
<asrwt>0</asrwt>
<pdfrwt beam="1">  1        2 0.24986347E+00 0.91508284E+03</pdfrwt>
<pdfrwt beam="2">  1       -2 0.11957275E+00 0.91508284E+03</pdfrwt>
<totfact> 0.58200311E+00</totfact>
</mgrwt>
</event>
<event>
 4    1  0.4880711E-008  0.1744635E+04  0.7818608E-02  0.8736309E-01
          2   -1    0    0  501    0  0.00000000000E+00  0.00000000000E+00  0.33735372878E+04  0.33735372878E+04  0.25500000000E-02 0. -1.
         -2   -1    0    0    0  501 -0.00000000000E+00 -0.00000000000E+00 -0.14011214191E+04  0.14011214191E+04  0.25500000000E-02 0.  1.
    8880022    1    1    2    0    0 -0.14355684127E+04 -0.97954239623E+03  0.24107381078E+04  0.29758040680E+04  0.15294330000E+03 0.  0.
    8880022    1    1    2    0    0  0.14355684127E+04  0.97954239623E+03 -0.43832223910E+03  0.17988546389E+04  0.15294330000E+03 0.  0.
<mgrwt>
<rscale>  0 0.17446351E+04</rscale>
<asrwt>0</asrwt>
<pdfrwt beam="1">  1        2 0.51900573E+00 0.17446351E+04</pdfrwt>
<pdfrwt beam="2">  1       -2 0.21555714E+00 0.17446351E+04</pdfrwt>
<totfact> 0.96099490E-02</totfact>
</mgrwt>
</event>
<event>
 4    1  0.4880711E-008  0.5650128E+03  0.7818608E-02  0.9980776E-01
          2   -1    0    0  501    0  0.00000000000E+00  0.00000000000E+00  0.23790867082E+04  0.23790867082E+04  0.25500000000E-02 0. -1.
         -2   -1    0    0    0  501 -0.00000000000E+00 -0.00000000000E+00 -0.21310046390E+03  0.21310046391E+03  0.25500000000E-02 0.  1.
    8880022    1    1    2    0    0 -0.66710347026E+02  0.53981251842E+03  0.18717137904E+04  0.19551347758E+04  0.15294330000E+03 0.  0.
    8880022    1    1    2    0    0  0.66710347026E+02 -0.53981251842E+03  0.29427245383E+03  0.63705239623E+03  0.15294330000E+03 0.  0.
<mgrwt>
<rscale>  0 0.56501281E+03</rscale>
<asrwt>0</asrwt>
<pdfrwt beam="1">  1        2 0.36601334E+00 0.56501281E+03</pdfrwt>
<pdfrwt beam="2">  1       -2 0.32784687E-01 0.56501281E+03</pdfrwt>
<totfact> 0.37947331E+01</totfact>
</mgrwt>
</event>
<event>
 4    1  0.4880711E-008  0.3326245E+03  0.7818608E-02  0.1069981E+00
         -2   -1    0    0    0  501 -0.00000000000E+00  0.00000000000E+00  0.52728641673E+02  0.52728641735E+02  0.25500000000E-02 0.  1.
          2   -1    0    0  501    0  0.00000000000E+00 -0.00000000000E+00 -0.43338194106E+04  0.43338194106E+04  0.25500000000E-02 0. -1.
    8880022    1    1    2    0    0 -0.51428198163E+00 -0.29537626646E+03 -0.37157950236E+04  0.37306529876E+04  0.15294330000E+03 0.  0.
    8880022    1    1    2    0    0  0.51428198163E+00  0.29537626646E+03 -0.56529574530E+03  0.65589506473E+03  0.15294330000E+03 0.  0.
<mgrwt>
<rscale>  0 0.33262450E+03</rscale>
<asrwt>0</asrwt>
<pdfrwt beam="1">  1        2 0.66674117E+00 0.33262450E+03</pdfrwt>
<pdfrwt beam="2">  1       -2 0.81121021E-02 0.33262450E+03</pdfrwt>
<totfact> 0.21500716E+01</totfact>
</mgrwt>
</event>
<event>
 4    1  0.4880711E-008  0.6893417E+03  0.7818608E-02  0.9735635E-01
          2   -1    0    0  501    0  0.00000000000E+00  0.00000000000E+00  0.20576941928E+04  0.20576941928E+04  0.25500000000E-02 0. -1.
         -2   -1    0    0    0  501 -0.00000000000E+00 -0.00000000000E+00 -0.26648055141E+03  0.26648055142E+03  0.25500000000E-02 0.  1.
    8880022    1    1    2    0    0 -0.70652004688E+02  0.66843746390E+03  0.13200342274E+04  0.14891884916E+04  0.15294330000E+03 0. -1.
    8880022    1    1    2    0    0  0.70652004688E+02 -0.66843746390E+03  0.47117941394E+03  0.83498625261E+03  0.15294330000E+03 0.  1.
<mgrwt>
<rscale>  0 0.68934172E+03</rscale>
<asrwt>0</asrwt>
<pdfrwt beam="1">  1        2 0.31656834E+00 0.68934172E+03</pdfrwt>
<pdfrwt beam="2">  1       -2 0.40997008E-01 0.68934172E+03</pdfrwt>
<totfact> 0.36402919E+01</totfact>
</mgrwt>
</event>
<event>
 4    1  0.4880711E-008  0.8791681E+03  0.7818608E-02  0.9452004E-01
         -2   -1    0    0    0  501 -0.00000000000E+00  0.00000000000E+00  0.14404524659E+04  0.14404524659E+04  0.25500000000E-02 0.  1.
          2   -1    0    0  501    0  0.00000000000E+00 -0.00000000000E+00 -0.92940328222E+03  0.92940328223E+03  0.25500000000E-02 0. -1.
    8880022    1    1    2    0    0 -0.47304343556E+03 -0.72510332364E+03 -0.51481335280E+03  0.10188078146E+04  0.15294330000E+03 0.  0.
    8880022    1    1    2    0    0  0.47304343556E+03  0.72510332364E+03  0.10258625365E+04  0.13510479335E+04  0.15294330000E+03 0.  0.
<mgrwt>
<rscale>  0 0.87916812E+03</rscale>
<asrwt>0</asrwt>
<pdfrwt beam="1">  1        2 0.14298512E+00 0.87916812E+03</pdfrwt>
<pdfrwt beam="2">  1       -2 0.22160807E+00 0.87916812E+03</pdfrwt>
<totfact> 0.27281322E+00</totfact>
</mgrwt>
</event>
<event>
 4    1  0.4880711E-008  0.3559496E+03  0.7818608E-02  0.1060199E+00
         -2   -1    0    0    0  501 -0.00000000000E+00  0.00000000000E+00  0.13866307410E+03  0.13866307413E+03  0.25500000000E-02 0.  1.
          2   -1    0    0  501    0  0.00000000000E+00 -0.00000000000E+00 -0.21373853529E+04  0.21373853529E+04  0.25500000000E-02 0. -1.
    8880022    1    1    2    0    0 -0.30770192505E+03 -0.92886857819E+02 -0.18604347983E+04  0.18941799636E+04  0.15294330000E+03 0.  0.
    8880022    1    1    2    0    0  0.30770192505E+03  0.92886857819E+02 -0.13828748051E+03  0.38186846337E+03  0.15294330000E+03 0.  1.
<mgrwt>
<rscale>  0 0.35594957E+03</rscale>
<asrwt>0</asrwt>
<pdfrwt beam="1">  1        2 0.32882849E+00 0.35594957E+03</pdfrwt>
<pdfrwt beam="2">  1       -2 0.21332782E-01 0.35594957E+03</pdfrwt>
<totfact> 0.11646442E+02</totfact>
</mgrwt>
</event>
<event>
 4    1  0.4880711E-008  0.3287528E+03  0.7818608E-02  0.1071690E+00
         -2   -1    0    0    0  501 -0.00000000000E+00  0.00000000000E+00  0.22686968288E+03  0.22686968290E+03  0.25500000000E-02 0.  1.
          2   -1    0    0  501    0  0.00000000000E+00 -0.00000000000E+00 -0.17714177064E+04  0.17714177064E+04  0.25500000000E-02 0. -1.
    8880022    1    1    2    0    0  0.57702061537E+02 -0.28523183339E+03  0.82019370135E+02  0.33882968698E+03  0.15294330000E+03 0.  1.
    8880022    1    1    2    0    0 -0.57702061537E+02  0.28523183339E+03 -0.16265673936E+04  0.16594577023E+04  0.15294330000E+03 0.  0.
<mgrwt>
<rscale>  0 0.32875276E+03</rscale>
<asrwt>0</asrwt>
<pdfrwt beam="1">  1        2 0.27252579E+00 0.32875276E+03</pdfrwt>
<pdfrwt beam="2">  1       -2 0.34903029E-01 0.32875276E+03</pdfrwt>
<totfact> 0.75392330E+01</totfact>
</mgrwt>
</event>
<event>
 4    1  0.4880711E-008  0.7590287E+03  0.7818608E-02  0.9621291E-01
         -2   -1    0    0    0  501 -0.00000000000E+00  0.00000000000E+00  0.16564276958E+04  0.16564276958E+04  0.25500000000E-02 0.  1.
          2   -1    0    0  501    0  0.00000000000E+00 -0.00000000000E+00 -0.66049229366E+03  0.66049229366E+03  0.25500000000E-02 0. -1.
    8880022    1    1    2    0    0 -0.55850594040E+02 -0.74135928525E+03 -0.29910474355E+03  0.81583587768E+03  0.15294330000E+03 0.  0.
    8880022    1    1    2    0    0  0.55850594040E+02  0.74135928525E+03  0.12950401457E+04  0.15010841118E+04  0.15294330000E+03 0.  0.
<mgrwt>
<rscale>  0 0.75902868E+03</rscale>
<asrwt>0</asrwt>
<pdfrwt beam="1">  1        2 0.10161420E+00 0.75902868E+03</pdfrwt>
<pdfrwt beam="2">  1       -2 0.25483503E+00 0.75902868E+03</pdfrwt>
<totfact> 0.27249658E+00</totfact>
</mgrwt>
</event>
<event>
 4    1  0.4880711E-008  0.7501023E+03  0.7818608E-02  0.9635190E-01
          2   -1    0    0  501    0  0.00000000000E+00  0.00000000000E+00  0.21356693989E+04  0.21356693989E+04  0.25500000000E-02 0. -1.
         -2   -1    0    0    0  501 -0.00000000000E+00 -0.00000000000E+00 -0.50373732244E+03  0.50373732244E+03  0.25500000000E-02 0.  1.
    8880022    1    1    2    0    0 -0.19953139471E+03 -0.70671713059E+03 -0.95488161424E+02  0.75615575256E+03  0.15294330000E+03 0.  0.
    8880022    1    1    2    0    0  0.19953139471E+03  0.70671713059E+03  0.17274202379E+04  0.18832509687E+04  0.15294330000E+03 0.  0.
<mgrwt>
<rscale>  0 0.75010235E+03</rscale>
<asrwt>0</asrwt>
<pdfrwt beam="1">  1        2 0.32856452E+00 0.75010235E+03</pdfrwt>
<pdfrwt beam="2">  1       -2 0.77498050E-01 0.75010235E+03</pdfrwt>
<totfact> 0.86547379E+00</totfact>
</mgrwt>
</event>
<event>
 4    1  0.4880711E-008  0.1228165E+04  0.7818608E-02  0.9088555E-01
          2   -1    0    0  501    0  0.00000000000E+00  0.00000000000E+00  0.29040454484E+04  0.29040454484E+04  0.25500000000E-02 0. -1.
         -2   -1    0    0    0  501 -0.00000000000E+00 -0.00000000000E+00 -0.10396554771E+04  0.10396554771E+04  0.25500000000E-02 0.  1.
    8880022    1    1    2    0    0 -0.85959068867E+03 -0.86377165930E+03 -0.46267441960E+03  0.13124240561E+04  0.15294330000E+03 0.  0.
    8880022    1    1    2    0    0  0.85959068867E+03  0.86377165930E+03  0.23270643908E+04  0.26312768694E+04  0.15294330000E+03 0.  0.
<mgrwt>
<rscale>  0 0.12281650E+04</rscale>
<asrwt>0</asrwt>
<pdfrwt beam="1">  1        2 0.44677622E+00 0.12281650E+04</pdfrwt>
<pdfrwt beam="2">  1       -2 0.15994700E+00 0.12281650E+04</pdfrwt>
<totfact> 0.49288307E-01</totfact>
</mgrwt>
</event>
<event>
 4    1  0.4880711E-008  0.3382095E+03  0.7818608E-02  0.1067561E+00
         -2   -1    0    0    0  501 -0.00000000000E+00  0.00000000000E+00  0.44254602526E+03  0.44254602527E+03  0.25500000000E-02 0.  1.
          2   -1    0    0  501    0  0.00000000000E+00 -0.00000000000E+00 -0.21199891688E+04  0.21199891688E+04  0.25500000000E-02 0. -1.
    8880022    1    1    2    0    0 -0.24347140793E+03  0.17808899965E+03 -0.20393443194E+04  0.20671988110E+04  0.15294330000E+03 0.  0.
    8880022    1    1    2    0    0  0.24347140793E+03 -0.17808899965E+03  0.36190117584E+03  0.49533638304E+03  0.15294330000E+03 0.  1.
<mgrwt>
<rscale>  0 0.33820951E+03</rscale>
<asrwt>0</asrwt>
<pdfrwt beam="1">  1        2 0.32615217E+00 0.33820951E+03</pdfrwt>
<pdfrwt beam="2">  1       -2 0.68084005E-01 0.33820951E+03</pdfrwt>
<totfact> 0.12879607E+01</totfact>
</mgrwt>
</event>
<event>
 4    1  0.4880711E-008  0.3095243E+03  0.7818608E-02  0.1080574E+00
          2   -1    0    0  501    0  0.00000000000E+00  0.00000000000E+00  0.26209499298E+04  0.26209499298E+04  0.25500000000E-02 0. -1.
         -2   -1    0    0    0  501 -0.00000000000E+00 -0.00000000000E+00 -0.20366280357E+03  0.20366280359E+03  0.25500000000E-02 0.  1.
    8880022    1    1    2    0    0 -0.32865745006E+02 -0.26708328510E+03  0.24879458471E+04  0.25071258104E+04  0.15294330000E+03 0.  0.
    8880022    1    1    2    0    0  0.32865745006E+02  0.26708328510E+03 -0.70658720878E+02  0.31748692292E+03  0.15294330000E+03 0.  0.
<mgrwt>
<rscale>  0 0.30952430E+03</rscale>
<asrwt>0</asrwt>
<pdfrwt beam="1">  1        2 0.40322305E+00 0.30952430E+03</pdfrwt>
<pdfrwt beam="2">  1       -2 0.31332740E-01 0.30952430E+03</pdfrwt>
<totfact> 0.32334016E+01</totfact>
</mgrwt>
</event>
<event>
 4    1  0.4880711E-008  0.3396251E+03  0.7818608E-02  0.1066956E+00
          2   -1    0    0  501    0  0.00000000000E+00  0.00000000000E+00  0.23508616899E+04  0.23508616899E+04  0.25500000000E-02 0. -1.
         -2   -1    0    0    0  501 -0.00000000000E+00 -0.00000000000E+00 -0.63230902265E+02  0.63230902317E+02  0.25500000000E-02 0.  1.
    8880022    1    1    2    0    0  0.30121745925E+03 -0.34951117463E+02  0.57249424726E+03  0.66565370466E+03  0.15294330000E+03 0.  1.
    8880022    1    1    2    0    0 -0.30121745925E+03  0.34951117463E+02  0.17151365404E+04  0.17484388875E+04  0.15294330000E+03 0. -1.
<mgrwt>
<rscale>  0 0.33962507E+03</rscale>
<asrwt>0</asrwt>
<pdfrwt beam="1">  1        2 0.36167106E+00 0.33962507E+03</pdfrwt>
<pdfrwt beam="2">  1       -2 0.97278304E-02 0.33962507E+03</pdfrwt>
<totfact> 0.33111595E+02</totfact>
</mgrwt>
</event>
<event>
 4    1  0.4880711E-008  0.5069767E+03  0.7818608E-02  0.1011974E+00
          2   -1    0    0  501    0  0.00000000000E+00  0.00000000000E+00  0.29390442328E+04  0.29390442328E+04  0.25500000000E-02 0. -1.
         -2   -1    0    0    0  501 -0.00000000000E+00 -0.00000000000E+00 -0.14546400829E+03  0.14546400831E+03  0.25500000000E-02 0.  1.
    8880022    1    1    2    0    0 -0.38207119046E+03 -0.29606637274E+03  0.23707409883E+04  0.24243428343E+04  0.15294330000E+03 0.  0.
    8880022    1    1    2    0    0  0.38207119046E+03  0.29606637274E+03  0.42283923620E+03  0.66016540680E+03  0.15294330000E+03 0.  0.
<mgrwt>
<rscale>  0 0.50697667E+03</rscale>
<asrwt>0</asrwt>
<pdfrwt beam="1">  1        2 0.45216060E+00 0.50697667E+03</pdfrwt>
<pdfrwt beam="2">  1       -2 0.22379081E-01 0.50697667E+03</pdfrwt>
<totfact> 0.36667709E+01</totfact>
</mgrwt>
</event>
<event>
 4    1  0.4880711E-008  0.4827474E+03  0.7818608E-02  0.1018383E+00
          2   -1    0    0  501    0  0.00000000000E+00  0.00000000000E+00  0.66750317761E+03  0.66750317762E+03  0.25500000000E-02 0. -1.
         -2   -1    0    0    0  501 -0.00000000000E+00 -0.00000000000E+00 -0.15945320305E+04  0.15945320305E+04  0.25500000000E-02 0.  1.
    8880022    1    1    2    0    0  0.31838448159E+03  0.32906640416E+03 -0.14630715493E+04  0.15406568040E+04  0.15294330000E+03 0.  1.
    8880022    1    1    2    0    0 -0.31838448159E+03 -0.32906640416E+03  0.53604269642E+03  0.72137840407E+03  0.15294330000E+03 0.  0.
<mgrwt>
<rscale>  0 0.48274738E+03</rscale>
<asrwt>0</asrwt>
<pdfrwt beam="1">  1        2 0.10269280E+00 0.48274738E+03</pdfrwt>
<pdfrwt beam="2">  1       -2 0.24531262E+00 0.48274738E+03</pdfrwt>
<totfact> 0.32282310E+00</totfact>
</mgrwt>
</event>
<event>
 4    1  0.4880711E-008  0.2450149E+03  0.7818608E-02  0.1116496E+00
         -2   -1    0    0    0  501 -0.00000000000E+00  0.00000000000E+00  0.20748233293E+03  0.20748233294E+03  0.25500000000E-02 0.  1.
          2   -1    0    0  501    0  0.00000000000E+00 -0.00000000000E+00 -0.63928954500E+03  0.63928954500E+03  0.25500000000E-02 0. -1.
    8880022    1    1    2    0    0 -0.15864135386E+03 -0.10711469659E+03  0.97347262340E+02  0.26364517800E+03  0.15294330000E+03 0.  1.
    8880022    1    1    2    0    0  0.15864135386E+03  0.10711469659E+03 -0.52915447441E+03  0.58312669994E+03  0.15294330000E+03 0.  0.
<mgrwt>
<rscale>  0 0.24501488E+03</rscale>
<asrwt>0</asrwt>
<pdfrwt beam="1">  1        2 0.98352237E-01 0.24501488E+03</pdfrwt>
<pdfrwt beam="2">  1       -2 0.31920359E-01 0.24501488E+03</pdfrwt>
<totfact> 0.43035265E+02</totfact>
</mgrwt>
</event>
<event>
 4    1  0.4880711E-008  0.4237057E+03  0.7818608E-02  0.1035867E+00
         -2   -1    0    0    0  501 -0.00000000000E+00  0.00000000000E+00  0.58050736738E+03  0.58050736739E+03  0.25500000000E-02 0.  1.
          2   -1    0    0  501    0  0.00000000000E+00 -0.00000000000E+00 -0.82068325173E+03  0.82068325174E+03  0.25500000000E-02 0. -1.
    8880022    1    1    2    0    0  0.31456884720E+03 -0.23912620149E+03  0.43296985555E+03  0.60579654068E+03  0.15294330000E+03 0.  0.
    8880022    1    1    2    0    0 -0.31456884720E+03  0.23912620149E+03 -0.67314573990E+03  0.79539407845E+03  0.15294330000E+03 0.  0.
<mgrwt>
<rscale>  0 0.42370574E+03</rscale>
<asrwt>0</asrwt>
<pdfrwt beam="1">  1        2 0.12625896E+00 0.42370574E+03</pdfrwt>
<pdfrwt beam="2">  1       -2 0.89308826E-01 0.42370574E+03</pdfrwt>
<totfact> 0.37678850E+01</totfact>
</mgrwt>
</event>
<event>
 4    1  0.4880711E-008  0.9854186E+03  0.7818608E-02  0.9324684E-01
          2   -1    0    0  501    0  0.00000000000E+00  0.00000000000E+00  0.21769559689E+04  0.21769559689E+04  0.25500000000E-02 0. -1.
         -2   -1    0    0    0  501 -0.00000000000E+00 -0.00000000000E+00 -0.97822042804E+03  0.97822042804E+03  0.25500000000E-02 0.  1.
    8880022    1    1    2    0    0  0.23904617997E+03 -0.94367108362E+03 -0.56421467644E+03  0.11355122387E+04  0.15294330000E+03 0.  0.
    8880022    1    1    2    0    0 -0.23904617997E+03  0.94367108362E+03  0.17629502173E+04  0.20196641582E+04  0.15294330000E+03 0.  0.
<mgrwt>
<rscale>  0 0.98541861E+03</rscale>
<asrwt>0</asrwt>
<pdfrwt beam="1">  1        2 0.33491630E+00 0.98541861E+03</pdfrwt>
<pdfrwt beam="2">  1       -2 0.15049545E+00 0.98541861E+03</pdfrwt>
<totfact> 0.15838799E+00</totfact>
</mgrwt>
</event>
<event>
 4    1  0.4880711E-008  0.5707075E+03  0.7818608E-02  0.9968114E-01
         -2   -1    0    0    0  501 -0.00000000000E+00  0.00000000000E+00  0.21668662417E+03  0.21668662419E+03  0.25500000000E-02 0.  1.
          2   -1    0    0  501    0  0.00000000000E+00 -0.00000000000E+00 -0.27147044120E+04  0.27147044121E+04  0.25500000000E-02 0. -1.
    8880022    1    1    2    0    0 -0.54720385649E+03  0.53696513988E+02 -0.22281797339E+04  0.23001069444E+04  0.15294330000E+03 0.  0.
    8880022    1    1    2    0    0  0.54720385649E+03 -0.53696513988E+02 -0.26983805394E+03  0.63128409179E+03  0.15294330000E+03 0.  0.
<mgrwt>
<rscale>  0 0.57070748E+03</rscale>
<asrwt>0</asrwt>
<pdfrwt beam="1">  1        2 0.41764681E+00 0.57070748E+03</pdfrwt>
<pdfrwt beam="2">  1       -2 0.33336406E-01 0.57070748E+03</pdfrwt>
<totfact> 0.23726050E+01</totfact>
</mgrwt>
</event>
<event>
 4    1  0.4880711E-008  0.1228094E+04  0.7818608E-02  0.9088615E-01
         -2   -1    0    0    0  501 -0.00000000000E+00  0.00000000000E+00  0.19600523643E+04  0.19600523643E+04  0.25500000000E-02 0.  1.
          2   -1    0    0  501    0  0.00000000000E+00 -0.00000000000E+00 -0.12345106258E+04  0.12345106258E+04  0.25500000000E-02 0. -1.
    8880022    1    1    2    0    0 -0.94950064791E+03  0.76372226661E+03 -0.61756820480E+03  0.13746291578E+04  0.15294330000E+03 0.  0.
    8880022    1    1    2    0    0  0.94950064791E+03 -0.76372226661E+03  0.13431099433E+04  0.18199338322E+04  0.15294330000E+03 0.  0.
<mgrwt>
<rscale>  0 0.12280940E+04</rscale>
<asrwt>0</asrwt>
<pdfrwt beam="1">  1        2 0.18992471E+00 0.12280940E+04</pdfrwt>
<pdfrwt beam="2">  1       -2 0.30154652E+00 0.12280940E+04</pdfrwt>
<totfact> 0.54668172E-01</totfact>
</mgrwt>
</event>
<event>
 4    1  0.4880711E-008  0.4403065E+03  0.7818608E-02  0.1030653E+00
          2   -1    0    0  501    0  0.00000000000E+00  0.00000000000E+00  0.11970509105E+04  0.11970509105E+04  0.25500000000E-02 0. -1.
         -2   -1    0    0    0  501 -0.00000000000E+00 -0.00000000000E+00 -0.36293691779E+03  0.36293691780E+03  0.25500000000E-02 0.  1.
    8880022    1    1    2    0    0 -0.64538464037E+02 -0.40781481786E+03  0.99749101696E+03  0.10903477064E+04  0.15294330000E+03 0.  0.
    8880022    1    1    2    0    0  0.64538464037E+02  0.40781481786E+03 -0.16337702423E+03  0.46964012187E+03  0.15294330000E+03 0.  0.
<mgrwt>
<rscale>  0 0.44030648E+03</rscale>
<asrwt>0</asrwt>
<pdfrwt beam="1">  1        2 0.18416168E+00 0.44030648E+03</pdfrwt>
<pdfrwt beam="2">  1       -2 0.55836449E-01 0.44030648E+03</pdfrwt>
<totfact> 0.60445127E+01</totfact>
</mgrwt>
</event>
<event>
 4    1  0.4880711E-008  0.5709159E+03  0.7818608E-02  0.9967654E-01
         -2   -1    0    0    0  501 -0.00000000000E+00  0.00000000000E+00  0.88254601897E+03  0.88254601897E+03  0.25500000000E-02 0.  1.
          2   -1    0    0  501    0  0.00000000000E+00 -0.00000000000E+00 -0.98737642796E+03  0.98737642797E+03  0.25500000000E-02 0. -1.
    8880022    1    1    2    0    0 -0.36487583702E+02 -0.54883695436E+03 -0.79213126854E+03  0.97643071738E+03  0.15294330000E+03 0.  0.
    8880022    1    1    2    0    0  0.36487583702E+02  0.54883695436E+03  0.68730085954E+03  0.89349172956E+03  0.15294330000E+03 0.  0.
<mgrwt>
<rscale>  0 0.57091593E+03</rscale>
<asrwt>0</asrwt>
<pdfrwt beam="1">  1        2 0.15190407E+00 0.57091593E+03</pdfrwt>
<pdfrwt beam="2">  1       -2 0.13577631E+00 0.57091593E+03</pdfrwt>
<totfact> 0.10402104E+01</totfact>
</mgrwt>
</event>
<event>
 4    1  0.4880711E-008  0.2792441E+03  0.7818608E-02  0.1096103E+00
          2   -1    0    0  501    0  0.00000000000E+00  0.00000000000E+00  0.76419994151E+03  0.76419994152E+03  0.25500000000E-02 0. -1.
         -2   -1    0    0    0  501 -0.00000000000E+00 -0.00000000000E+00 -0.18424715279E+03  0.18424715281E+03  0.25500000000E-02 0.  1.
    8880022    1    1    2    0    0 -0.40357913228E+02  0.23012357157E+03 -0.26793110479E+02  0.28052654623E+03  0.15294330000E+03 0.  0.
    8880022    1    1    2    0    0  0.40357913228E+02 -0.23012357157E+03  0.60674589920E+03  0.66792054810E+03  0.15294330000E+03 0. -1.
<mgrwt>
<rscale>  0 0.27924411E+03</rscale>
<asrwt>0</asrwt>
<pdfrwt beam="1">  1        2 0.11756922E+00 0.27924411E+03</pdfrwt>
<pdfrwt beam="2">  1       -2 0.28345716E-01 0.27924411E+03</pdfrwt>
<totfact> 0.42895254E+02</totfact>
</mgrwt>
</event>
<event>
 4    1  0.4880711E-008  0.6430350E+03  0.7818608E-02  0.9819937E-01
          2   -1    0    0  501    0  0.00000000000E+00  0.00000000000E+00  0.75250396290E+03  0.75250396291E+03  0.25500000000E-02 0. -1.
         -2   -1    0    0    0  501 -0.00000000000E+00 -0.00000000000E+00 -0.81094495517E+03  0.81094495518E+03  0.25500000000E-02 0.  1.
    8880022    1    1    2    0    0 -0.56289231674E+03  0.27065593176E+03  0.41464944960E+03  0.76513280723E+03  0.15294330000E+03 0.  0.
    8880022    1    1    2    0    0  0.56289231674E+03 -0.27065593176E+03 -0.47309044187E+03  0.79831611085E+03  0.15294330000E+03 0. -1.
<mgrwt>
<rscale>  0 0.64303503E+03</rscale>
<asrwt>0</asrwt>
<pdfrwt beam="1">  1        2 0.11576984E+00 0.64303503E+03</pdfrwt>
<pdfrwt beam="2">  1       -2 0.12476076E+00 0.64303503E+03</pdfrwt>
<totfact> 0.18454866E+01</totfact>
</mgrwt>
</event>
<event>
 4    1  0.4880711E-008  0.3804373E+03  0.7818608E-02  0.1050772E+00
         -2   -1    0    0    0  501 -0.00000000000E+00  0.00000000000E+00  0.23123557351E+03  0.23123557352E+03  0.25500000000E-02 0.  1.
          2   -1    0    0  501    0  0.00000000000E+00 -0.00000000000E+00 -0.12404492211E+04  0.12404492211E+04  0.25500000000E-02 0. -1.
    8880022    1    1    2    0    0 -0.34093023257E+03  0.71466367598E+02 -0.10225359421E+04  0.10910143312E+04  0.15294330000E+03 0.  0.
    8880022    1    1    2    0    0  0.34093023257E+03 -0.71466367598E+02  0.13322294422E+02  0.38067046342E+03  0.15294330000E+03 0.  0.
<mgrwt>
<rscale>  0 0.38043727E+03</rscale>
<asrwt>0</asrwt>
<pdfrwt beam="1">  1        2 0.19083834E+00 0.38043727E+03</pdfrwt>
<pdfrwt beam="2">  1       -2 0.35574704E-01 0.38043727E+03</pdfrwt>
<totfact> 0.14014108E+02</totfact>
</mgrwt>
</event>
<event>
 4    1  0.4880711E-008  0.2548263E+03  0.7818608E-02  0.1110292E+00
          2   -1    0    0  501    0  0.00000000000E+00  0.00000000000E+00  0.20394487244E+04  0.20394487244E+04  0.25500000000E-02 0. -1.
         -2   -1    0    0    0  501 -0.00000000000E+00 -0.00000000000E+00 -0.40595813002E+03  0.40595813003E+03  0.25500000000E-02 0.  1.
    8880022    1    1    2    0    0  0.85364391518E+02 -0.18508842539E+03  0.19905200628E+04  0.20067652025E+04  0.15294330000E+03 0. -1.
    8880022    1    1    2    0    0 -0.85364391518E+02  0.18508842539E+03 -0.35702946837E+03  0.43864165198E+03  0.15294330000E+03 0.  0.
<mgrwt>
<rscale>  0 0.25482633E+03</rscale>
<asrwt>0</asrwt>
<pdfrwt beam="1">  1        2 0.31376135E+00 0.25482633E+03</pdfrwt>
<pdfrwt beam="2">  1       -2 0.62455096E-01 0.25482633E+03</pdfrwt>
<totfact> 0.17631111E+01</totfact>
</mgrwt>
</event>
<event>
 4    1  0.4880711E-008  0.5425576E+03  0.7818608E-02  0.1003231E+00
         -2   -1    0    0    0  501 -0.00000000000E+00  0.00000000000E+00  0.10870057165E+03  0.10870057168E+03  0.25500000000E-02 0.  1.
          2   -1    0    0  501    0  0.00000000000E+00 -0.00000000000E+00 -0.35203527849E+04  0.35203527849E+04  0.25500000000E-02 0. -1.
    8880022    1    1    2    0    0 -0.33538014929E+03 -0.39811717833E+03 -0.25774393483E+04  0.26339252797E+04  0.15294330000E+03 0.  0.
    8880022    1    1    2    0    0  0.33538014929E+03  0.39811717833E+03 -0.83421286503E+03  0.99512807689E+03  0.15294330000E+03 0.  0.
<mgrwt>
<rscale>  0 0.54255763E+03</rscale>
<asrwt>0</asrwt>
<pdfrwt beam="1">  1        2 0.54159265E+00 0.54255763E+03</pdfrwt>
<pdfrwt beam="2">  1       -2 0.16723168E-01 0.54255763E+03</pdfrwt>
<totfact> 0.25724447E+01</totfact>
</mgrwt>
</event>
<event>
 4    1  0.4880711E-008  0.3883867E+03  0.7818608E-02  0.1047877E+00
         -2   -1    0    0    0  501 -0.00000000000E+00  0.00000000000E+00  0.49815178335E+03  0.49815178335E+03  0.25500000000E-02 0.  1.
          2   -1    0    0  501    0  0.00000000000E+00 -0.00000000000E+00 -0.50318941520E+03  0.50318941521E+03  0.25500000000E-02 0. -1.
    8880022    1    1    2    0    0 -0.64661984127E+02 -0.35110029983E+03 -0.31846657316E+03  0.50226009593E+03  0.15294330000E+03 0.  0.
    8880022    1    1    2    0    0  0.64661984127E+02  0.35110029983E+03  0.31342894131E+03  0.49908110262E+03  0.15294330000E+03 0.  0.
<mgrwt>
<rscale>  0 0.38838672E+03</rscale>
<asrwt>0</asrwt>
<pdfrwt beam="1">  1        2 0.77413756E-01 0.38838672E+03</pdfrwt>
<pdfrwt beam="2">  1       -2 0.76638736E-01 0.38838672E+03</pdfrwt>
<totfact> 0.96555472E+01</totfact>
</mgrwt>
</event>
<event>
 4    1  0.4880711E-008  0.5479755E+03  0.7818608E-02  0.1001964E+00
         -2   -1    0    0    0  501 -0.00000000000E+00  0.00000000000E+00  0.54810113841E+03  0.54810113842E+03  0.25500000000E-02 0.  1.
          2   -1    0    0  501    0  0.00000000000E+00 -0.00000000000E+00 -0.19894158984E+04  0.19894158984E+04  0.25500000000E-02 0. -1.
    8880022    1    1    2    0    0  0.41033191808E+03  0.32941350431E+03  0.35936668718E+03  0.65530268478E+03  0.15294330000E+03 0.  0.
    8880022    1    1    2    0    0 -0.41033191808E+03 -0.32941350431E+03 -0.18006814471E+04  0.18822143520E+04  0.15294330000E+03 0.  0.
<mgrwt>
<rscale>  0 0.54797554E+03</rscale>
<asrwt>0</asrwt>
<pdfrwt beam="1">  1        2 0.30606398E+00 0.54797554E+03</pdfrwt>
<pdfrwt beam="2">  1       -2 0.84323253E-01 0.54797554E+03</pdfrwt>
<totfact> 0.89242677E+00</totfact>
</mgrwt>
</event>
<event>
 4    1  0.4880711E-008  0.5015110E+03  0.7818608E-02  0.1013385E+00
          2   -1    0    0  501    0  0.00000000000E+00  0.00000000000E+00  0.52178984103E+03  0.52178984103E+03  0.25500000000E-02 0. -1.
         -2   -1    0    0    0  501 -0.00000000000E+00 -0.00000000000E+00 -0.64012466368E+03  0.64012466368E+03  0.25500000000E-02 0.  1.
    8880022    1    1    2    0    0 -0.45063901212E+03 -0.15825968176E+03 -0.34789203008E+03  0.61036232168E+03  0.15294330000E+03 0.  0.
    8880022    1    1    2    0    0  0.45063901212E+03  0.15825968176E+03  0.22955720744E+03  0.55155218304E+03  0.15294330000E+03 0.  0.
<mgrwt>
<rscale>  0 0.50151102E+03</rscale>
<asrwt>0</asrwt>
<pdfrwt beam="1">  1        2 0.80275360E-01 0.50151102E+03</pdfrwt>
<pdfrwt beam="2">  1       -2 0.98480718E-01 0.50151102E+03</pdfrwt>
<totfact> 0.51801138E+01</totfact>
</mgrwt>
</event>
<event>
 4    1  0.4880711E-008  0.5153254E+03  0.7818608E-02  0.1009854E+00
         -2   -1    0    0    0  501 -0.00000000000E+00  0.00000000000E+00  0.51367108832E+03  0.51367108832E+03  0.25500000000E-02 0.  1.
          2   -1    0    0  501    0  0.00000000000E+00 -0.00000000000E+00 -0.56137763538E+03  0.56137763539E+03  0.25500000000E-02 0. -1.
    8880022    1    1    2    0    0 -0.79697369984E+02 -0.48560982523E+03  0.12730303142E+03  0.53081662367E+03  0.15294330000E+03 0.  0.
    8880022    1    1    2    0    0  0.79697369984E+02  0.48560982523E+03 -0.17500957849E+03  0.54423210004E+03  0.15294330000E+03 0.  0.
<mgrwt>
<rscale>  0 0.51532536E+03</rscale>
<asrwt>0</asrwt>
<pdfrwt beam="1">  1        2 0.86365790E-01 0.51532536E+03</pdfrwt>
<pdfrwt beam="2">  1       -2 0.79026321E-01 0.51532536E+03</pdfrwt>
<totfact> 0.78547539E+01</totfact>
</mgrwt>
</event>
<event>
 4    1  0.4880711E-008  0.5343126E+03  0.7818608E-02  0.1005192E+00
          2   -1    0    0  501    0  0.00000000000E+00  0.00000000000E+00  0.33899527814E+04  0.33899527814E+04  0.25500000000E-02 0. -1.
         -2   -1    0    0    0  501 -0.00000000000E+00 -0.00000000000E+00 -0.25203365999E+03  0.25203366000E+03  0.25500000000E-02 0.  1.
    8880022    1    1    2    0    0 -0.42629448755E+03  0.28349835092E+03  0.83033363191E+02  0.54072589868E+03  0.15294330000E+03 0.  1.
    8880022    1    1    2    0    0  0.42629448755E+03 -0.28349835092E+03  0.30548857583E+04  0.31012605428E+04  0.15294330000E+03 0.  0.
<mgrwt>
<rscale>  0 0.53431260E+03</rscale>
<asrwt>0</asrwt>
<pdfrwt beam="1">  1        2 0.52153117E+00 0.53431260E+03</pdfrwt>
<pdfrwt beam="2">  1       -2 0.38774411E-01 0.53431260E+03</pdfrwt>
<totfact> 0.69075216E+00</totfact>
</mgrwt>
</event>
<event>
 4    1  0.4880711E-008  0.1392663E+04  0.7818608E-02  0.8959147E-01
          2   -1    0    0  501    0  0.00000000000E+00  0.00000000000E+00  0.27478165584E+04  0.27478165584E+04  0.25500000000E-02 0. -1.
         -2   -1    0    0    0  501 -0.00000000000E+00 -0.00000000000E+00 -0.14277282166E+04  0.14277282166E+04  0.25500000000E-02 0.  1.
    8880022    1    1    2    0    0  0.12601419774E+04  0.57285260892E+03 -0.82451109379E+03  0.16184338453E+04  0.15294330000E+03 0.  0.
    8880022    1    1    2    0    0 -0.12601419774E+04 -0.57285260892E+03  0.21445994356E+04  0.25571109297E+04  0.15294330000E+03 0.  0.
<mgrwt>
<rscale>  0 0.13926628E+04</rscale>
<asrwt>0</asrwt>
<pdfrwt beam="1">  1        2 0.42274101E+00 0.13926628E+04</pdfrwt>
<pdfrwt beam="2">  1       -2 0.21965050E+00 0.13926628E+04</pdfrwt>
<totfact> 0.23529484E-01</totfact>
</mgrwt>
</event>
<event>
 4    1  0.4880711E-008  0.8160686E+03  0.7818608E-02  0.9537045E-01
          2   -1    0    0  501    0  0.00000000000E+00  0.00000000000E+00  0.21281660153E+04  0.21281660153E+04  0.25500000000E-02 0. -1.
         -2   -1    0    0    0  501 -0.00000000000E+00 -0.00000000000E+00 -0.42197371241E+03  0.42197371242E+03  0.25500000000E-02 0.  1.
    8880022    1    1    2    0    0  0.12289266460E+03  0.79213240117E+03  0.20492357507E+03  0.84140458320E+03  0.15294330000E+03 0.  0.
    8880022    1    1    2    0    0 -0.12289266460E+03 -0.79213240117E+03  0.15012687278E+04  0.17087351445E+04  0.15294330000E+03 0.  0.
<mgrwt>
<rscale>  0 0.81606863E+03</rscale>
<asrwt>0</asrwt>
<pdfrwt beam="1">  1        2 0.32741015E+00 0.81606863E+03</pdfrwt>
<pdfrwt beam="2">  1       -2 0.64919034E-01 0.81606863E+03</pdfrwt>
<totfact> 0.12754758E+01</totfact>
</mgrwt>
</event>
<event>
 4    1  0.5723196E-008  0.7460749E+03  0.7818608E-02  0.9641528E-01
          2   -1    0    0  501    0  0.00000000000E+00  0.00000000000E+00  0.10078938643E+04  0.10078938643E+04  0.25500000000E-02 0. -1.
         -2   -1    0    0    0  501 -0.00000000000E+00 -0.00000000000E+00 -0.14982962006E+04  0.14982962006E+04  0.25500000000E-02 0.  1.
    8880022    1    1    2    0    0  0.55568259847E+03 -0.47376472117E+03  0.75051863720E+03  0.10582561311E+04  0.15294330000E+03 0.  0.
    8880022    1    1    2    0    0 -0.55568259847E+03  0.47376472117E+03 -0.12409209735E+04  0.14479339338E+04  0.15294330000E+03 0.  0.
<mgrwt>
<rscale>  0 0.74607494E+03</rscale>
<asrwt>0</asrwt>
<pdfrwt beam="1">  1        2 0.15506059E+00 0.74607494E+03</pdfrwt>
<pdfrwt beam="2">  1       -2 0.23050711E+00 0.74607494E+03</pdfrwt>
<totfact> 0.21775919E+00</totfact>
</mgrwt>
</event>
<event>
 4    1  0.4880711E-008  0.1984388E+03  0.7818608E-02  0.1151063E+00
         -2   -1    0    0    0  501 -0.00000000000E+00  0.00000000000E+00  0.50863272976E+03  0.50863272977E+03  0.25500000000E-02 0.  1.
          2   -1    0    0  501    0  0.00000000000E+00 -0.00000000000E+00 -0.11389352110E+03  0.11389352113E+03  0.25500000000E-02 0. -1.
    8880022    1    1    2    0    0  0.11786619567E+03  0.45758705461E+02  0.37351513096E+03  0.42295567768E+03  0.15294330000E+03 0.  0.
    8880022    1    1    2    0    0 -0.11786619567E+03 -0.45758705461E+02  0.21224077691E+02  0.19957057322E+03  0.15294330000E+03 0.  0.
<mgrwt>
<rscale>  0 0.19843879E+03</rscale>
<asrwt>0</asrwt>
<pdfrwt beam="1">  1        2 0.17522081E-01 0.19843879E+03</pdfrwt>
<pdfrwt beam="2">  1       -2 0.78251187E-01 0.19843879E+03</pdfrwt>
<totfact> 0.48393339E+02</totfact>
</mgrwt>
</event>
<event>
 4    1  0.4880711E-008  0.4806853E+03  0.7818608E-02  0.1018947E+00
          2   -1    0    0  501    0  0.00000000000E+00  0.00000000000E+00  0.15259424071E+04  0.15259424071E+04  0.25500000000E-02 0. -1.
         -2   -1    0    0    0  501 -0.00000000000E+00 -0.00000000000E+00 -0.51293552307E+03  0.51293552308E+03  0.25500000000E-02 0.  1.
    8880022    1    1    2    0    0 -0.20913809801E+03  0.40488022359E+03 -0.34933785706E+03  0.59421825189E+03  0.15294330000E+03 0.  0.
    8880022    1    1    2    0    0  0.20913809801E+03 -0.40488022359E+03  0.13623447411E+04  0.14446596783E+04  0.15294330000E+03 0.  0.
<mgrwt>
<rscale>  0 0.48068534E+03</rscale>
<asrwt>0</asrwt>
<pdfrwt beam="1">  1        2 0.23476037E+00 0.48068534E+03</pdfrwt>
<pdfrwt beam="2">  1       -2 0.78913158E-01 0.48068534E+03</pdfrwt>
<totfact> 0.18695096E+01</totfact>
</mgrwt>
</event>
<event>
 4    1  0.4880711E-008  0.4381318E+03  0.7818608E-02  0.1031322E+00
          2   -1    0    0  501    0  0.00000000000E+00  0.00000000000E+00  0.15985416939E+04  0.15985416939E+04  0.25500000000E-02 0. -1.
         -2   -1    0    0    0  501 -0.00000000000E+00 -0.00000000000E+00 -0.32544552269E+03  0.32544552270E+03  0.25500000000E-02 0.  1.
    8880022    1    1    2    0    0  0.40735261783E+03 -0.51299965816E+02  0.14007223935E+04  0.14676452972E+04  0.15294330000E+03 0.  0.
    8880022    1    1    2    0    0 -0.40735261783E+03  0.51299965816E+02 -0.12762622231E+03  0.45634191938E+03  0.15294330000E+03 0.  0.
<mgrwt>
<rscale>  0 0.43813182E+03</rscale>
<asrwt>0</asrwt>
<pdfrwt beam="1">  1        2 0.24592949E+00 0.43813182E+03</pdfrwt>
<pdfrwt beam="2">  1       -2 0.50068542E-01 0.43813182E+03</pdfrwt>
<totfact> 0.45147080E+01</totfact>
</mgrwt>
</event>
<event>
 4    1  0.4880711E-008  0.6990633E+03  0.7818608E-02  0.9718835E-01
          2   -1    0    0  501    0  0.00000000000E+00  0.00000000000E+00  0.22395345097E+04  0.22395345097E+04  0.25500000000E-02 0. -1.
         -2   -1    0    0    0  501 -0.00000000000E+00 -0.00000000000E+00 -0.30096778509E+03  0.30096778510E+03  0.25500000000E-02 0.  1.
    8880022    1    1    2    0    0  0.51830171583E+03  0.44346504136E+03  0.30319299500E+03  0.76198133624E+03  0.15294330000E+03 0.  0.
    8880022    1    1    2    0    0 -0.51830171583E+03 -0.44346504136E+03  0.16353737296E+04  0.17785209586E+04  0.15294330000E+03 0.  0.
<mgrwt>
<rscale>  0 0.69906335E+03</rscale>
<asrwt>0</asrwt>
<pdfrwt beam="1">  1        2 0.34454376E+00 0.69906335E+03</pdfrwt>
<pdfrwt beam="2">  1       -2 0.46302738E-01 0.69906335E+03</pdfrwt>
<totfact> 0.22709207E+01</totfact>
</mgrwt>
</event>
<event>
 4    1  0.6828279E-008  0.6129616E+03  0.7818608E-02  0.9878874E-01
         -2   -1    0    0    0  501 -0.00000000000E+00  0.00000000000E+00  0.10868830425E+04  0.10868830425E+04  0.25500000000E-02 0.  1.
          2   -1    0    0  501    0  0.00000000000E+00 -0.00000000000E+00 -0.13886007888E+04  0.13886007888E+04  0.25500000000E-02 0. -1.
    8880022    1    1    2    0    0  0.50850903790E+03 -0.30618429584E+03  0.92180953062E+03  0.11070025873E+04  0.15294330000E+03 0.  1.
    8880022    1    1    2    0    0 -0.50850903790E+03  0.30618429584E+03 -0.12235272770E+04  0.13684812440E+04  0.15294330000E+03 0.  0.
<mgrwt>
<rscale>  0 0.61296160E+03</rscale>
<asrwt>0</asrwt>
<pdfrwt beam="1">  1        2 0.21363089E+00 0.61296160E+03</pdfrwt>
<pdfrwt beam="2">  1       -2 0.16721278E+00 0.61296160E+03</pdfrwt>
<totfact> 0.34448720E+00</totfact>
</mgrwt>
</event>
<event>
 4    1  0.4880711E-008  0.8736993E+03  0.7818608E-02  0.9459069E-01
         -2   -1    0    0    0  501 -0.00000000000E+00  0.00000000000E+00  0.36510942072E+03  0.36510942073E+03  0.25500000000E-02 0.  1.
          2   -1    0    0  501    0  0.00000000000E+00 -0.00000000000E+00 -0.40716103723E+04  0.40716103723E+04  0.25500000000E-02 0. -1.
    8880022    1    1    2    0    0 -0.66447606207E+03 -0.54628780567E+03 -0.34005573369E+04  0.35110027996E+04  0.15294330000E+03 0.  0.
    8880022    1    1    2    0    0  0.66447606207E+03  0.54628780567E+03 -0.30594361467E+03  0.92571699350E+03  0.15294330000E+03 0.  0.
<mgrwt>
<rscale>  0 0.87369929E+03</rscale>
<asrwt>0</asrwt>
<pdfrwt beam="1">  1        2 0.62640156E+00 0.87369929E+03</pdfrwt>
<pdfrwt beam="2">  1       -2 0.56170683E-01 0.87369929E+03</pdfrwt>
<totfact> 0.96419657E-01</totfact>
</mgrwt>
</event>
<event>
 4    1  0.4880711E-008  0.3502599E+03  0.7818608E-02  0.1062508E+00
          2   -1    0    0  501    0  0.00000000000E+00  0.00000000000E+00  0.91886652428E+03  0.91886652429E+03  0.25500000000E-02 0. -1.
         -2   -1    0    0    0  501 -0.00000000000E+00 -0.00000000000E+00 -0.31228069915E+03  0.31228069916E+03  0.25500000000E-02 0.  1.
    8880022    1    1    2    0    0 -0.23665199537E+03  0.20805334463E+03  0.76903996319E+03  0.84504702776E+03  0.15294330000E+03 0.  0.
    8880022    1    1    2    0    0  0.23665199537E+03 -0.20805334463E+03 -0.16245413805E+03  0.38610019569E+03  0.15294330000E+03 0.  1.
<mgrwt>
<rscale>  0 0.35025992E+03</rscale>
<asrwt>0</asrwt>
<pdfrwt beam="1">  1        2 0.14136408E+00 0.35025992E+03</pdfrwt>
<pdfrwt beam="2">  1       -2 0.48043185E-01 0.35025992E+03</pdfrwt>
<totfact> 0.12286141E+02</totfact>
</mgrwt>
</event>
<event>
 4    1  0.4880711E-008  0.5284636E+03  0.7818608E-02  0.1006605E+00
          2   -1    0    0  501    0  0.00000000000E+00  0.00000000000E+00  0.17640102573E+04  0.17640102573E+04  0.25500000000E-02 0. -1.
         -2   -1    0    0    0  501 -0.00000000000E+00 -0.00000000000E+00 -0.87522267348E+03  0.87522267348E+03  0.25500000000E-02 0.  1.
    8880022    1    1    2    0    0 -0.49877038114E+03  0.84322182840E+02 -0.74992231348E+03  0.91741879907E+03  0.15294330000E+03 0.  0.
    8880022    1    1    2    0    0  0.49877038114E+03 -0.84322182840E+02  0.16387098973E+04  0.17218141317E+04  0.15294330000E+03 0. -1.
<mgrwt>
<rscale>  0 0.52846360E+03</rscale>
<asrwt>0</asrwt>
<pdfrwt beam="1">  1        2 0.27138619E+00 0.52846360E+03</pdfrwt>
<pdfrwt beam="2">  1       -2 0.13464964E+00 0.52846360E+03</pdfrwt>
<totfact> 0.38659544E+00</totfact>
</mgrwt>
</event>
<event>
 4    1  0.4880711E-008  0.5075714E+03  0.7818608E-02  0.1011821E+00
         -2   -1    0    0    0  501 -0.00000000000E+00  0.00000000000E+00  0.20273352512E+03  0.20273352514E+03  0.25500000000E-02 0.  1.
          2   -1    0    0  501    0  0.00000000000E+00 -0.00000000000E+00 -0.17297644447E+04  0.17297644447E+04  0.25500000000E-02 0. -1.
    8880022    1    1    2    0    0 -0.77839682583E+02 -0.47767990346E+03 -0.26578207943E+03  0.57294753086E+03  0.15294330000E+03 0.  0.
    8880022    1    1    2    0    0  0.77839682583E+02  0.47767990346E+03 -0.12612488401E+04  0.13595504390E+04  0.15294330000E+03 0.  0.
<mgrwt>
<rscale>  0 0.50757143E+03</rscale>
<asrwt>0</asrwt>
<pdfrwt beam="1">  1        2 0.26611760E+00 0.50757143E+03</pdfrwt>
<pdfrwt beam="2">  1       -2 0.31189774E-01 0.50757143E+03</pdfrwt>
<totfact> 0.94661693E+01</totfact>
</mgrwt>
</event>
<event>
 4    1  0.4880711E-008  0.3952952E+03  0.7818608E-02  0.1045421E+00
         -2   -1    0    0    0  501 -0.00000000000E+00  0.00000000000E+00  0.20525410204E+03  0.20525410206E+03  0.25500000000E-02 0.  1.
          2   -1    0    0  501    0  0.00000000000E+00 -0.00000000000E+00 -0.93738802108E+03  0.93738802108E+03  0.25500000000E-02 0. -1.
    8880022    1    1    2    0    0  0.11103688858E+03  0.34718505320E+03 -0.11844148960E+03  0.41265808033E+03  0.15294330000E+03 0.  0.
    8880022    1    1    2    0    0 -0.11103688858E+03 -0.34718505320E+03 -0.61369242944E+03  0.72998404281E+03  0.15294330000E+03 0.  0.
<mgrwt>
<rscale>  0 0.39529521E+03</rscale>
<asrwt>0</asrwt>
<pdfrwt beam="1">  1        2 0.14421354E+00 0.39529521E+03</pdfrwt>
<pdfrwt beam="2">  1       -2 0.31577555E-01 0.39529521E+03</pdfrwt>
<totfact> 0.26620257E+02</totfact>
</mgrwt>
</event>
<event>
 4    1  0.4880711E-008  0.2538760E+03  0.7818608E-02  0.1110879E+00
          2   -1    0    0  501    0  0.00000000000E+00  0.00000000000E+00  0.47685336494E+03  0.47685336495E+03  0.25500000000E-02 0. -1.
         -2   -1    0    0    0  501 -0.00000000000E+00 -0.00000000000E+00 -0.24691389012E+03  0.24691389013E+03  0.25500000000E-02 0.  1.
    8880022    1    1    2    0    0  0.87954901379E+02  0.18255224378E+03  0.35842615628E+03  0.43922926691E+03  0.15294330000E+03 0.  0.
    8880022    1    1    2    0    0 -0.87954901379E+02 -0.18255224378E+03 -0.12848668146E+03  0.28453798817E+03  0.15294330000E+03 0.  0.
<mgrwt>
<rscale>  0 0.25387603E+03</rscale>
<asrwt>0</asrwt>
<pdfrwt beam="1">  1        2 0.73362056E-01 0.25387603E+03</pdfrwt>
<pdfrwt beam="2">  1       -2 0.37986752E-01 0.25387603E+03</pdfrwt>
<totfact> 0.43480413E+02</totfact>
</mgrwt>
</event>
<event>
 4    1  0.4880711E-008  0.3223122E+03  0.7818608E-02  0.1074590E+00
         -2   -1    0    0    0  501 -0.00000000000E+00  0.00000000000E+00  0.31564425857E+03  0.31564425858E+03  0.25500000000E-02 0.  1.
          2   -1    0    0  501    0  0.00000000000E+00 -0.00000000000E+00 -0.53115350809E+03  0.53115350810E+03  0.25500000000E-02 0. -1.
    8880022    1    1    2    0    0 -0.13897921255E+03 -0.24734237409E+03  0.15337155144E+03  0.35694251267E+03  0.15294330000E+03 0.  0.
    8880022    1    1    2    0    0  0.13897921255E+03  0.24734237409E+03 -0.36888080097E+03  0.48985525401E+03  0.15294330000E+03 0.  0.
<mgrwt>
<rscale>  0 0.32231215E+03</rscale>
<asrwt>0</asrwt>
<pdfrwt beam="1">  1        2 0.81715924E-01 0.32231215E+03</pdfrwt>
<pdfrwt beam="2">  1       -2 0.48560655E-01 0.32231215E+03</pdfrwt>
<totfact> 0.23774852E+02</totfact>
</mgrwt>
</event>
<event>
 4    1  0.4880711E-008  0.8157924E+03  0.7818608E-02  0.9537435E-01
          2   -1    0    0  501    0  0.00000000000E+00  0.00000000000E+00  0.21203286584E+04  0.21203286584E+04  0.25500000000E-02 0. -1.
         -2   -1    0    0    0  501 -0.00000000000E+00 -0.00000000000E+00 -0.33269418509E+03  0.33269418510E+03  0.25500000000E-02 0.  1.
    8880022    1    1    2    0    0  0.39020831305E+03 -0.69990214652E+03  0.11855294657E+04  0.14390960042E+04  0.15294330000E+03 0.  0.
    8880022    1    1    2    0    0 -0.39020831305E+03  0.69990214652E+03  0.60210500763E+03  0.10139268393E+04  0.15294330000E+03 0.  0.
<mgrwt>
<rscale>  0 0.81579237E+03</rscale>
<asrwt>0</asrwt>
<pdfrwt beam="1">  1        2 0.32620441E+00 0.81579237E+03</pdfrwt>
<pdfrwt beam="2">  1       -2 0.51183720E-01 0.81579237E+03</pdfrwt>
<totfact> 0.21212091E+01</totfact>
</mgrwt>
</event>
<event>
 4    1  0.4880711E-008  0.1002889E+04  0.7818608E-02  0.9305382E-01
         -2   -1    0    0    0  501 -0.00000000000E+00  0.00000000000E+00  0.11049008407E+04  0.11049008407E+04  0.25500000000E-02 0.  1.
          2   -1    0    0  501    0  0.00000000000E+00 -0.00000000000E+00 -0.18237787482E+04  0.18237787482E+04  0.25500000000E-02 0. -1.
    8880022    1    1    2    0    0  0.34755825308E+03 -0.92822267741E+03  0.67691043996E+03  0.12099559806E+04  0.15294330000E+03 0.  0.
    8880022    1    1    2    0    0 -0.34755825308E+03  0.92822267741E+03 -0.13957883474E+04  0.17187236084E+04  0.15294330000E+03 0.  0.
<mgrwt>
<rscale>  0 0.10028887E+04</rscale>
<asrwt>0</asrwt>
<pdfrwt beam="1">  1        2 0.28058135E+00 0.10028887E+04</pdfrwt>
<pdfrwt beam="2">  1       -2 0.16998474E+00 0.10028887E+04</pdfrwt>
<totfact> 0.17756879E+00</totfact>
</mgrwt>
</event>
<event>
 4    1  0.4880711E-008  0.2921513E+03  0.7818608E-02  0.1089231E+00
         -2   -1    0    0    0  501 -0.00000000000E+00  0.00000000000E+00  0.11204495477E+03  0.11204495479E+03  0.25500000000E-02 0.  1.
          2   -1    0    0  501    0  0.00000000000E+00 -0.00000000000E+00 -0.33871934092E+04  0.33871934092E+04  0.25500000000E-02 0. -1.
    8880022    1    1    2    0    0 -0.17245937090E+03  0.17949518692E+03 -0.31779378932E+04  0.31913385378E+04  0.15294330000E+03 0.  0.
    8880022    1    1    2    0    0  0.17245937090E+03 -0.17949518692E+03 -0.97210561219E+02  0.30789982619E+03  0.15294330000E+03 0.  1.
<mgrwt>
<rscale>  0 0.29215135E+03</rscale>
<asrwt>0</asrwt>
<pdfrwt beam="1">  1        2 0.52110660E+00 0.29215135E+03</pdfrwt>
<pdfrwt beam="2">  1       -2 0.17237688E-01 0.29215135E+03</pdfrwt>
<totfact> 0.32455073E+01</totfact>
</mgrwt>
</event>
<event>
 4    1  0.4880711E-008  0.2885167E+03  0.7818608E-02  0.1091126E+00
          2   -1    0    0  501    0  0.00000000000E+00  0.00000000000E+00  0.19933591278E+04  0.19933591278E+04  0.25500000000E-02 0. -1.
         -2   -1    0    0    0  501 -0.00000000000E+00 -0.00000000000E+00 -0.45847441354E+02  0.45847441425E+02  0.25500000000E-02 0.  1.
    8880022    1    1    2    0    0  0.18780753732E+03 -0.15677544238E+03  0.66930223212E+03  0.72883972267E+03  0.15294330000E+03 0. -1.
    8880022    1    1    2    0    0 -0.18780753732E+03  0.15677544238E+03  0.12782094543E+04  0.13103668465E+04  0.15294330000E+03 0. -1.
<mgrwt>
<rscale>  0 0.28851666E+03</rscale>
<asrwt>0</asrwt>
<pdfrwt beam="1">  1        2 0.30667071E+00 0.28851666E+03</pdfrwt>
<pdfrwt beam="2">  1       -2 0.70534507E-02 0.28851666E+03</pdfrwt>
<totfact> 0.86102422E+02</totfact>
</mgrwt>
</event>
<event>
 4    1  0.4880711E-008  0.5899007E+03  0.7818608E-02  0.9926583E-01
         -2   -1    0    0    0  501 -0.00000000000E+00  0.00000000000E+00  0.16824332723E+03  0.16824332725E+03  0.25500000000E-02 0.  1.
          2   -1    0    0  501    0  0.00000000000E+00 -0.00000000000E+00 -0.28391980585E+04  0.28391980585E+04  0.25500000000E-02 0. -1.
    8880022    1    1    2    0    0 -0.33266896390E+03  0.46251764168E+03 -0.55194106505E+03  0.80785011029E+03  0.15294330000E+03 0.  0.
    8880022    1    1    2    0    0  0.33266896390E+03 -0.46251764168E+03 -0.21190136662E+04  0.21995912755E+04  0.15294330000E+03 0.  0.
<mgrwt>
<rscale>  0 0.58990072E+03</rscale>
<asrwt>0</asrwt>
<pdfrwt beam="1">  1        2 0.43679967E+00 0.58990072E+03</pdfrwt>
<pdfrwt beam="2">  1       -2 0.25883591E-01 0.58990072E+03</pdfrwt>
<totfact> 0.31860228E+01</totfact>
</mgrwt>
</event>
<event>
 4    1  0.6593363E-008  0.1173633E+04  0.7818608E-02  0.9136254E-01
          2   -1    0    0  501    0  0.00000000000E+00  0.00000000000E+00  0.14843913446E+04  0.14843913446E+04  0.25500000000E-02 0. -1.
         -2   -1    0    0    0  501 -0.00000000000E+00 -0.00000000000E+00 -0.24142981146E+04  0.24142981146E+04  0.25500000000E-02 0.  1.
    8880022    1    1    2    0    0 -0.92282642363E+03 -0.70881177210E+03 -0.19944766343E+04  0.23141632255E+04  0.15294330000E+03 0.  0.
    8880022    1    1    2    0    0  0.92282642363E+03  0.70881177210E+03  0.10645698642E+04  0.15845262337E+04  0.15294330000E+03 0.  0.
<mgrwt>
<rscale>  0 0.11736330E+04</rscale>
<asrwt>0</asrwt>
<pdfrwt beam="1">  1        2 0.22836790E+00 0.11736330E+04</pdfrwt>
<pdfrwt beam="2">  1       -2 0.37143048E+00 0.11736330E+04</pdfrwt>
<totfact> 0.14518606E-01</totfact>
</mgrwt>
</event>
<event>
 4    1  0.4880711E-008  0.8649887E+03  0.7818608E-02  0.9470438E-01
          2   -1    0    0  501    0  0.00000000000E+00  0.00000000000E+00  0.24467533032E+04  0.24467533032E+04  0.25500000000E-02 0. -1.
         -2   -1    0    0    0  501 -0.00000000000E+00 -0.00000000000E+00 -0.33519881128E+03  0.33519881129E+03  0.25500000000E-02 0.  1.
    8880022    1    1    2    0    0  0.52173042950E+03  0.67276377948E+03  0.14677503013E+04  0.17036714308E+04  0.15294330000E+03 0.  0.
    8880022    1    1    2    0    0 -0.52173042950E+03 -0.67276377948E+03  0.64380419066E+03  0.10782806838E+04  0.15294330000E+03 0.  0.
<mgrwt>
<rscale>  0 0.86498867E+03</rscale>
<asrwt>0</asrwt>
<pdfrwt beam="1">  1        2 0.37642358E+00 0.86498867E+03</pdfrwt>
<pdfrwt beam="2">  1       -2 0.51569048E-01 0.86498867E+03</pdfrwt>
<totfact> 0.13651348E+01</totfact>
</mgrwt>
</event>
<event>
 4    1  0.4880711E-008  0.3833039E+03  0.7818608E-02  0.1049719E+00
          2   -1    0    0  501    0  0.00000000000E+00  0.00000000000E+00  0.64403295104E+03  0.64403295104E+03  0.25500000000E-02 0. -1.
         -2   -1    0    0    0  501 -0.00000000000E+00 -0.00000000000E+00 -0.33542847796E+03  0.33542847797E+03  0.25500000000E-02 0.  1.
    8880022    1    1    2    0    0  0.15768989570E+03 -0.31410851162E+03  0.43128855468E+03  0.57700236628E+03  0.15294330000E+03 0.  0.
    8880022    1    1    2    0    0 -0.15768989570E+03  0.31410851162E+03 -0.12268408160E+03  0.40245906273E+03  0.15294330000E+03 0.  0.
<mgrwt>
<rscale>  0 0.38330394E+03</rscale>
<asrwt>0</asrwt>
<pdfrwt beam="1">  1        2 0.99081992E-01 0.38330394E+03</pdfrwt>
<pdfrwt beam="2">  1       -2 0.51604382E-01 0.38330394E+03</pdfrwt>
<totfact> 0.16698333E+02</totfact>
</mgrwt>
</event>
<event>
 4    1  0.4880711E-008  0.3420958E+03  0.7818608E-02  0.1065907E+00
         -2   -1    0    0    0  501 -0.00000000000E+00  0.00000000000E+00  0.23395027075E+03  0.23395027076E+03  0.25500000000E-02 0.  1.
          2   -1    0    0  501    0  0.00000000000E+00 -0.00000000000E+00 -0.22708644343E+04  0.22708644343E+04  0.25500000000E-02 0. -1.
    8880022    1    1    2    0    0  0.30483398795E+03 -0.26723400007E+02 -0.21243527012E+04  0.21517211605E+04  0.15294330000E+03 0. -1.
    8880022    1    1    2    0    0 -0.30483398795E+03  0.26723400007E+02  0.87438537687E+02  0.35309354455E+03  0.15294330000E+03 0.  0.
<mgrwt>
<rscale>  0 0.34209582E+03</rscale>
<asrwt>0</asrwt>
<pdfrwt beam="1">  1        2 0.34936374E+00 0.34209582E+03</pdfrwt>
<pdfrwt beam="2">  1       -2 0.35992351E-01 0.34209582E+03</pdfrwt>
<totfact> 0.38432203E+01</totfact>
</mgrwt>
</event>
<event>
 4    1  0.4880711E-008  0.3989774E+03  0.7818608E-02  0.1044134E+00
         -2   -1    0    0    0  501 -0.00000000000E+00  0.00000000000E+00  0.33205529168E+03  0.33205529169E+03  0.25500000000E-02 0.  1.
          2   -1    0    0  501    0  0.00000000000E+00 -0.00000000000E+00 -0.73966715251E+03  0.73966715251E+03  0.25500000000E-02 0. -1.
    8880022    1    1    2    0    0 -0.22703337524E+03 -0.29025358688E+03 -0.52167977010E+03  0.65675926618E+03  0.15294330000E+03 0.  0.
    8880022    1    1    2    0    0  0.22703337524E+03  0.29025358688E+03  0.11406790927E+03  0.41496317802E+03  0.15294330000E+03 0.  0.
<mgrwt>
<rscale>  0 0.39897738E+03</rscale>
<asrwt>0</asrwt>
<pdfrwt beam="1">  1        2 0.11379495E+00 0.39897738E+03</pdfrwt>
<pdfrwt beam="2">  1       -2 0.51085430E-01 0.39897738E+03</pdfrwt>
<totfact> 0.14351584E+02</totfact>
</mgrwt>
</event>
<event>
 4    1  0.4880711E-008  0.4476466E+03  0.7818608E-02  0.1028426E+00
          2   -1    0    0  501    0  0.00000000000E+00  0.00000000000E+00  0.44549872333E+03  0.44549872334E+03  0.25500000000E-02 0. -1.
         -2   -1    0    0    0  501 -0.00000000000E+00 -0.00000000000E+00 -0.15220394942E+04  0.15220394942E+04  0.25500000000E-02 0.  1.
    8880022    1    1    2    0    0  0.32751056733E+03  0.26406938882E+03  0.28743505649E+03  0.53198343822E+03  0.15294330000E+03 0.  0.
    8880022    1    1    2    0    0 -0.32751056733E+03 -0.26406938882E+03 -0.13639758274E+04  0.14355547794E+04  0.15294330000E+03 0.  1.
<mgrwt>
<rscale>  0 0.44764659E+03</rscale>
<asrwt>0</asrwt>
<pdfrwt beam="1">  1        2 0.68538266E-01 0.44764659E+03</pdfrwt>
<pdfrwt beam="2">  1       -2 0.23415992E+00 0.44764659E+03</pdfrwt>
<totfact> 0.60901033E+00</totfact>
</mgrwt>
</event>
<event>
 4    1  0.4880711E-008  0.3110171E+03  0.7818608E-02  0.1079859E+00
         -2   -1    0    0    0  501 -0.00000000000E+00  0.00000000000E+00  0.45238591787E+03  0.45238591787E+03  0.25500000000E-02 0.  1.
          2   -1    0    0  501    0  0.00000000000E+00 -0.00000000000E+00 -0.67663684416E+03  0.67663684416E+03  0.25500000000E-02 0. -1.
    8880022    1    1    2    0    0 -0.11022718439E+03  0.24736599085E+03  0.35474554536E+03  0.47177963137E+03  0.15294330000E+03 0.  0.
    8880022    1    1    2    0    0  0.11022718439E+03 -0.24736599085E+03 -0.57899647165E+03  0.65724313067E+03  0.15294330000E+03 0. -1.
<mgrwt>
<rscale>  0 0.31101707E+03</rscale>
<asrwt>0</asrwt>
<pdfrwt beam="1">  1        2 0.10409798E+00 0.31101707E+03</pdfrwt>
<pdfrwt beam="2">  1       -2 0.69597834E-01 0.31101707E+03</pdfrwt>
<totfact> 0.84961712E+01</totfact>
</mgrwt>
</event>
<event>
 4    1  0.4880711E-008  0.2595590E+03  0.7818608E-02  0.1107408E+00
         -2   -1    0    0    0  501 -0.00000000000E+00  0.00000000000E+00  0.58388526521E+03  0.58388526522E+03  0.25500000000E-02 0.  1.
          2   -1    0    0  501    0  0.00000000000E+00 -0.00000000000E+00 -0.11980723259E+04  0.11980723259E+04  0.25500000000E-02 0. -1.
    8880022    1    1    2    0    0 -0.11554123036E+03 -0.17501277130E+03 -0.11540822332E+04  0.11829102671E+04  0.15294330000E+03 0.  0.
    8880022    1    1    2    0    0  0.11554123036E+03  0.17501277130E+03  0.53989517254E+03  0.59904732399E+03  0.15294330000E+03 0.  0.
<mgrwt>
<rscale>  0 0.25955905E+03</rscale>
<asrwt>0</asrwt>
<pdfrwt beam="1">  1        2 0.18431882E+00 0.25955905E+03</pdfrwt>
<pdfrwt beam="2">  1       -2 0.89828502E-01 0.25955905E+03</pdfrwt>
<totfact> 0.22465011E+01</totfact>
</mgrwt>
</event>
<event>
 4    1  0.4880711E-008  0.4227170E+03  0.7818608E-02  0.1036186E+00
          2   -1    0    0  501    0  0.00000000000E+00  0.00000000000E+00  0.11648605127E+04  0.11648605127E+04  0.25500000000E-02 0. -1.
         -2   -1    0    0    0  501 -0.00000000000E+00 -0.00000000000E+00 -0.70291840110E+03  0.70291840110E+03  0.25500000000E-02 0.  1.
    8880022    1    1    2    0    0  0.31254688433E+03  0.24002600046E+03 -0.59475142155E+03  0.72967043400E+03  0.15294330000E+03 0.  0.
    8880022    1    1    2    0    0 -0.31254688433E+03 -0.24002600046E+03  0.10566935332E+04  0.11381084798E+04  0.15294330000E+03 0.  0.
<mgrwt>
<rscale>  0 0.42271703E+03</rscale>
<asrwt>0</asrwt>
<pdfrwt beam="1">  1        2 0.17920931E+00 0.42271703E+03</pdfrwt>
<pdfrwt beam="2">  1       -2 0.10814129E+00 0.42271703E+03</pdfrwt>
<totfact> 0.14600897E+01</totfact>
</mgrwt>
</event>
<event>
 4    1  0.4880711E-008  0.1138038E+04  0.7818608E-02  0.9168890E-01
          2   -1    0    0  501    0  0.00000000000E+00  0.00000000000E+00  0.32481028115E+04  0.32481028115E+04  0.25500000000E-02 0. -1.
         -2   -1    0    0    0  501 -0.00000000000E+00 -0.00000000000E+00 -0.90163997837E+03  0.90163997837E+03  0.25500000000E-02 0.  1.
    8880022    1    1    2    0    0 -0.11162590245E+04  0.16032670935E+03  0.27228249826E+04  0.29510856312E+04  0.15294330000E+03 0.  0.
    8880022    1    1    2    0    0  0.11162590245E+04 -0.16032670935E+03 -0.37636214949E+03  0.11986571587E+04  0.15294330000E+03 0.  0.
<mgrwt>
<rscale>  0 0.11380380E+04</rscale>
<asrwt>0</asrwt>
<pdfrwt beam="1">  1        2 0.49970812E+00 0.11380380E+04</pdfrwt>
<pdfrwt beam="2">  1       -2 0.13871384E+00 0.11380380E+04</pdfrwt>
<totfact> 0.44356198E-01</totfact>
</mgrwt>
</event>
<event>
 4    1  0.4880711E-008  0.6160774E+03  0.7818608E-02  0.9872601E-01
         -2   -1    0    0    0  501 -0.00000000000E+00  0.00000000000E+00  0.54249727535E+03  0.54249727536E+03  0.25500000000E-02 0.  1.
          2   -1    0    0  501    0  0.00000000000E+00 -0.00000000000E+00 -0.10278712655E+04  0.10278712655E+04  0.25500000000E-02 0. -1.
    8880022    1    1    2    0    0  0.22880077877E+03 -0.55118948855E+03 -0.68639168715E+03  0.92232578293E+03  0.15294330000E+03 0.  1.
    8880022    1    1    2    0    0 -0.22880077877E+03  0.55118948855E+03  0.20101769697E+03  0.64804275797E+03  0.15294330000E+03 0.  0.
<mgrwt>
<rscale>  0 0.61607735E+03</rscale>
<asrwt>0</asrwt>
<pdfrwt beam="1">  1        2 0.15813404E+00 0.61607735E+03</pdfrwt>
<pdfrwt beam="2">  1       -2 0.83461120E-01 0.61607735E+03</pdfrwt>
<totfact> 0.31310209E+01</totfact>
</mgrwt>
</event>
<event>
 4    1  0.4880711E-008  0.2359626E+03  0.7818608E-02  0.1122512E+00
         -2   -1    0    0    0  501 -0.00000000000E+00  0.00000000000E+00  0.12398722239E+04  0.12398722239E+04  0.25500000000E-02 0.  1.
          2   -1    0    0  501    0  0.00000000000E+00 -0.00000000000E+00 -0.73221500779E+03  0.73221500779E+03  0.25500000000E-02 0. -1.
    8880022    1    1    2    0    0 -0.17483038687E+03  0.41485556108E+02 -0.70149973022E+03  0.74012177380E+03  0.15294330000E+03 0. -1.
    8880022    1    1    2    0    0  0.17483038687E+03 -0.41485556108E+02  0.12091569463E+04  0.12319654579E+04  0.15294330000E+03 0.  0.
<mgrwt>
<rscale>  0 0.23596264E+03</rscale>
<asrwt>0</asrwt>
<pdfrwt beam="1">  1        2 0.11264846E+00 0.23596264E+03</pdfrwt>
<pdfrwt beam="2">  1       -2 0.19074957E+00 0.23596264E+03</pdfrwt>
<totfact> 0.67469946E+00</totfact>
</mgrwt>
</event>
<event>
 4    1  0.4880711E-008  0.9396497E+03  0.7818608E-02  0.9377331E-01
         -2   -1    0    0    0  501 -0.00000000000E+00  0.00000000000E+00  0.43852361885E+03  0.43852361886E+03  0.25500000000E-02 0.  1.
          2   -1    0    0  501    0  0.00000000000E+00 -0.00000000000E+00 -0.26482234015E+04  0.26482234015E+04  0.25500000000E-02 0. -1.
    8880022    1    1    2    0    0 -0.72300999465E+03 -0.58035030492E+03 -0.34922534771E+03  0.10024469688E+04  0.15294330000E+03 0.  0.
    8880022    1    1    2    0    0  0.72300999465E+03  0.58035030492E+03 -0.18604744350E+04  0.20843000516E+04  0.15294330000E+03 0.  0.
<mgrwt>
<rscale>  0 0.93964971E+03</rscale>
<asrwt>0</asrwt>
<pdfrwt beam="1">  1        2 0.40741898E+00 0.93964971E+03</pdfrwt>
<pdfrwt beam="2">  1       -2 0.67465174E-01 0.93964971E+03</pdfrwt>
<totfact> 0.58721201E+00</totfact>
</mgrwt>
</event>
<event>
 4    1  0.4880711E-008  0.4045674E+03  0.7818608E-02  0.1042210E+00
         -2   -1    0    0    0  501 -0.00000000000E+00  0.00000000000E+00  0.15276377537E+03  0.15276377540E+03  0.25500000000E-02 0.  1.
          2   -1    0    0  501    0  0.00000000000E+00 -0.00000000000E+00 -0.12228470913E+04  0.12228470913E+04  0.25500000000E-02 0. -1.
    8880022    1    1    2    0    0  0.34253502252E+03  0.15150203783E+03 -0.77707528119E+03  0.87608261869E+03  0.15294330000E+03 0. -1.
    8880022    1    1    2    0    0 -0.34253502252E+03 -0.15150203783E+03 -0.29300803472E+03  0.49952824799E+03  0.15294330000E+03 0.  0.
<mgrwt>
<rscale>  0 0.40456738E+03</rscale>
<asrwt>0</asrwt>
<pdfrwt beam="1">  1        2 0.18813032E+00 0.40456738E+03</pdfrwt>
<pdfrwt beam="2">  1       -2 0.23502120E-01 0.40456738E+03</pdfrwt>
<totfact> 0.30487569E+02</totfact>
</mgrwt>
</event>
<event>
 4    1  0.4880711E-008  0.2684765E+03  0.7818608E-02  0.1102155E+00
         -2   -1    0    0    0  501 -0.00000000000E+00  0.00000000000E+00  0.13447338963E+03  0.13447338965E+03  0.25500000000E-02 0.  1.
          2   -1    0    0  501    0  0.00000000000E+00 -0.00000000000E+00 -0.81468156655E+03  0.81468156655E+03  0.25500000000E-02 0. -1.
    8880022    1    1    2    0    0 -0.18297177481E+03  0.12332605311E+03 -0.61766370579E+03  0.67348948932E+03  0.15294330000E+03 0.  0.
    8880022    1    1    2    0    0  0.18297177481E+03 -0.12332605311E+03 -0.62544471126E+02  0.27566546689E+03  0.15294330000E+03 0.  1.
<mgrwt>
<rscale>  0 0.26847651E+03</rscale>
<asrwt>0</asrwt>
<pdfrwt beam="1">  1        2 0.12533562E+00 0.26847651E+03</pdfrwt>
<pdfrwt beam="2">  1       -2 0.20688214E-01 0.26847651E+03</pdfrwt>
<totfact> 0.68967242E+02</totfact>
</mgrwt>
</event>
<event>
 4    1  0.4880711E-008  0.9969853E+03  0.7818608E-02  0.9311857E-01
          2   -1    0    0  501    0  0.00000000000E+00  0.00000000000E+00  0.15385132804E+04  0.15385132804E+04  0.25500000000E-02 0. -1.
         -2   -1    0    0    0  501 -0.00000000000E+00 -0.00000000000E+00 -0.12854926624E+04  0.12854926624E+04  0.25500000000E-02 0.  1.
    8880022    1    1    2    0    0  0.85197159669E+03  0.49470432414E+03  0.11223662324E+04  0.15012280248E+04  0.15294330000E+03 0.  0.
    8880022    1    1    2    0    0 -0.85197159669E+03 -0.49470432414E+03 -0.86934561444E+03  0.13227779180E+04  0.15294330000E+03 0.  0.
<mgrwt>
<rscale>  0 0.99698527E+03</rscale>
<asrwt>0</asrwt>
<pdfrwt beam="1">  1        2 0.23669435E+00 0.99698527E+03</pdfrwt>
<pdfrwt beam="2">  1       -2 0.19776810E+00 0.99698527E+03</pdfrwt>
<totfact> 0.16515013E+00</totfact>
</mgrwt>
</event>
<event>
 4    1  0.4880711E-008  0.8041157E+03  0.7818608E-02  0.9554079E-01
          2   -1    0    0  501    0  0.00000000000E+00  0.00000000000E+00  0.20054212692E+04  0.20054212692E+04  0.25500000000E-02 0. -1.
         -2   -1    0    0    0  501 -0.00000000000E+00 -0.00000000000E+00 -0.63370945639E+03  0.63370945639E+03  0.25500000000E-02 0.  1.
    8880022    1    1    2    0    0  0.36080501172E+03  0.70216106300E+03  0.16106884413E+04  0.18002553494E+04  0.15294330000E+03 0. -1.
    8880022    1    1    2    0    0 -0.36080501172E+03 -0.70216106300E+03 -0.23897662850E+03  0.83887537624E+03  0.15294330000E+03 0.  0.
<mgrwt>
<rscale>  0 0.80411571E+03</rscale>
<asrwt>0</asrwt>
<pdfrwt beam="1">  1        2 0.30852635E+00 0.80411571E+03</pdfrwt>
<pdfrwt beam="2">  1       -2 0.97493763E-01 0.80411571E+03</pdfrwt>
<totfact> 0.59782709E+00</totfact>
</mgrwt>
</event>
<event>
 4    1  0.4880711E-008  0.1711693E+03  0.7818608E-02  0.1176634E+00
         -2   -1    0    0    0  501 -0.00000000000E+00  0.00000000000E+00  0.53701572162E+02  0.53701572223E+02  0.25500000000E-02 0.  1.
          2   -1    0    0  501    0  0.00000000000E+00 -0.00000000000E+00 -0.56747362484E+03  0.56747362484E+03  0.25500000000E-02 0. -1.
    8880022    1    1    2    0    0  0.75935878721E+02  0.11875442793E+02 -0.31788044634E+03  0.36103589157E+03  0.15294330000E+03 0.  0.
    8880022    1    1    2    0    0 -0.75935878721E+02 -0.11875442793E+02 -0.19589160634E+03  0.26013930550E+03  0.15294330000E+03 0. -1.
<mgrwt>
<rscale>  0 0.17116932E+03</rscale>
<asrwt>0</asrwt>
<pdfrwt beam="1">  1        2 0.87303630E-01 0.17116932E+03</pdfrwt>
<pdfrwt beam="2">  1       -2 0.82617807E-02 0.17116932E+03</pdfrwt>
<totfact> 0.47309524E+03</totfact>
</mgrwt>
</event>
<event>
 4    1  0.9686259E-008  0.7135683E+03  0.7818608E-02  0.9694306E-01
         -2   -1    0    0    0  501 -0.00000000000E+00  0.00000000000E+00  0.13233259890E+04  0.13233259890E+04  0.25500000000E-02 0.  1.
          2   -1    0    0  501    0  0.00000000000E+00 -0.00000000000E+00 -0.24063038484E+04  0.24063038484E+04  0.25500000000E-02 0. -1.
    8880022    1    1    2    0    0 -0.25042720652E+02 -0.69653490238E+03  0.11677419293E+04  0.13685031511E+04  0.15294330000E+03 0.  0.
    8880022    1    1    2    0    0  0.25042720652E+02  0.69653490238E+03 -0.22507197888E+04  0.23611266863E+04  0.15294330000E+03 0.  0.
<mgrwt>
<rscale>  0 0.71356826E+03</rscale>
<asrwt>0</asrwt>
<pdfrwt beam="1">  1        2 0.37020059E+00 0.71356826E+03</pdfrwt>
<pdfrwt beam="2">  1       -2 0.20358861E+00 0.71356826E+03</pdfrwt>
<totfact> 0.52906627E-01</totfact>
</mgrwt>
</event>
<event>
 4    1  0.4880711E-008  0.3601729E+03  0.7818608E-02  0.1058515E+00
         -2   -1    0    0    0  501 -0.00000000000E+00  0.00000000000E+00  0.71328526686E+02  0.71328526731E+02  0.25500000000E-02 0.  1.
          2   -1    0    0  501    0  0.00000000000E+00 -0.00000000000E+00 -0.40014212411E+04  0.40014212411E+04  0.25500000000E-02 0. -1.
    8880022    1    1    2    0    0 -0.24827830115E+03  0.21140181928E+03 -0.34690562794E+04  0.34877035376E+04  0.15294330000E+03 0.  0.
    8880022    1    1    2    0    0  0.24827830115E+03 -0.21140181928E+03 -0.46103643508E+03  0.58504623023E+03  0.15294330000E+03 0.  0.
<mgrwt>
<rscale>  0 0.36017287E+03</rscale>
<asrwt>0</asrwt>
<pdfrwt beam="1">  1        2 0.61560309E+00 0.36017287E+03</pdfrwt>
<pdfrwt beam="2">  1       -2 0.10973623E-01 0.36017287E+03</pdfrwt>
<totfact> 0.24558384E+01</totfact>
</mgrwt>
</event>
<event>
 4    1  0.4880711E-008  0.7101058E+03  0.7818608E-02  0.9700104E-01
          2   -1    0    0  501    0  0.00000000000E+00  0.00000000000E+00  0.10026924193E+04  0.10026924193E+04  0.25500000000E-02 0. -1.
         -2   -1    0    0    0  501 -0.00000000000E+00 -0.00000000000E+00 -0.10744512223E+04  0.10744512223E+04  0.25500000000E-02 0.  1.
    8880022    1    1    2    0    0 -0.11118609953E+03 -0.68446781390E+03 -0.79336121796E+03  0.10647404436E+04  0.15294330000E+03 0.  0.
    8880022    1    1    2    0    0  0.11118609953E+03  0.68446781390E+03  0.72160241500E+03  0.10124031980E+04  0.15294330000E+03 0.  0.
<mgrwt>
<rscale>  0 0.71010576E+03</rscale>
<asrwt>0</asrwt>
<pdfrwt beam="1">  1        2 0.15426037E+00 0.71010576E+03</pdfrwt>
<pdfrwt beam="2">  1       -2 0.16530019E+00 0.71010576E+03</pdfrwt>
<totfact> 0.59257626E+00</totfact>
</mgrwt>
</event>
<event>
 4    1  0.4880711E-008  0.9343467E+03  0.7818608E-02  0.9383636E-01
          2   -1    0    0  501    0  0.00000000000E+00  0.00000000000E+00  0.17811243713E+04  0.17811243713E+04  0.25500000000E-02 0. -1.
         -2   -1    0    0    0  501 -0.00000000000E+00 -0.00000000000E+00 -0.96553299549E+03  0.96553299549E+03  0.25500000000E-02 0.  1.
    8880022    1    1    2    0    0 -0.91144220766E+03  0.13742353089E+03  0.13714392586E+04  0.16594726324E+04  0.15294330000E+03 0.  0.
    8880022    1    1    2    0    0  0.91144220766E+03 -0.13742353089E+03 -0.55584788281E+03  0.10871847343E+04  0.15294330000E+03 0.  0.
<mgrwt>
<rscale>  0 0.93434671E+03</rscale>
<asrwt>0</asrwt>
<pdfrwt beam="1">  1        2 0.27401913E+00 0.93434671E+03</pdfrwt>
<pdfrwt beam="2">  1       -2 0.14854354E+00 0.93434671E+03</pdfrwt>
<totfact> 0.27282749E+00</totfact>
</mgrwt>
</event>
<event>
 4    1  0.4880711E-008  0.4331428E+03  0.7818608E-02  0.1032872E+00
          2   -1    0    0  501    0  0.00000000000E+00  0.00000000000E+00  0.66759031558E+03  0.66759031559E+03  0.25500000000E-02 0. -1.
         -2   -1    0    0    0  501 -0.00000000000E+00 -0.00000000000E+00 -0.57561621563E+03  0.57561621563E+03  0.25500000000E-02 0.  1.
    8880022    1    1    2    0    0  0.40510274037E+03  0.10620851359E+02  0.49067281948E+03  0.65450172004E+03  0.15294330000E+03 0.  0.
    8880022    1    1    2    0    0 -0.40510274037E+03 -0.10620851359E+02 -0.39869871953E+03  0.58870481118E+03  0.15294330000E+03 0.  0.
<mgrwt>
<rscale>  0 0.43314280E+03</rscale>
<asrwt>0</asrwt>
<pdfrwt beam="1">  1        2 0.10270620E+00 0.43314280E+03</pdfrwt>
<pdfrwt beam="2">  1       -2 0.88556340E-01 0.43314280E+03</pdfrwt>
<totfact> 0.49809941E+01</totfact>
</mgrwt>
</event>
<event>
 4    1  0.4880711E-008  0.3827139E+03  0.7818608E-02  0.1049935E+00
          2   -1    0    0  501    0  0.00000000000E+00  0.00000000000E+00  0.10217796758E+04  0.10217796758E+04  0.25500000000E-02 0. -1.
         -2   -1    0    0    0  501 -0.00000000000E+00 -0.00000000000E+00 -0.19785484874E+03  0.19785484875E+03  0.25500000000E-02 0.  1.
    8880022    1    1    2    0    0  0.32259120567E+03 -0.13788824055E+03  0.73203800282E+03  0.82604451663E+03  0.15294330000E+03 0.  0.
    8880022    1    1    2    0    0 -0.32259120567E+03  0.13788824055E+03  0.91886824248E+02  0.39359000793E+03  0.15294330000E+03 0.  0.
<mgrwt>
<rscale>  0 0.38271387E+03</rscale>
<asrwt>0</asrwt>
<pdfrwt beam="1">  1        2 0.15719687E+00 0.38271387E+03</pdfrwt>
<pdfrwt beam="2">  1       -2 0.30439208E-01 0.38271387E+03</pdfrwt>
<totfact> 0.25234921E+02</totfact>
</mgrwt>
</event>
<event>
 4    1  0.4880711E-008  0.7502537E+03  0.7818608E-02  0.9634952E-01
         -2   -1    0    0    0  501 -0.00000000000E+00  0.00000000000E+00  0.37089689912E+03  0.37089689913E+03  0.25500000000E-02 0.  1.
          2   -1    0    0  501    0  0.00000000000E+00 -0.00000000000E+00 -0.26041706282E+04  0.26041706282E+04  0.25500000000E-02 0. -1.
    8880022    1    1    2    0    0  0.73251994171E+03  0.53884765821E+02 -0.15578369892E+03  0.76625664556E+03  0.15294330000E+03 0.  0.
    8880022    1    1    2    0    0 -0.73251994171E+03 -0.53884765821E+02 -0.20774900302E+04  0.22088108818E+04  0.15294330000E+03 0.  0.
<mgrwt>
<rscale>  0 0.75025375E+03</rscale>
<asrwt>0</asrwt>
<pdfrwt beam="1">  1        2 0.40064162E+00 0.75025375E+03</pdfrwt>
<pdfrwt beam="2">  1       -2 0.57061063E-01 0.75025375E+03</pdfrwt>
<totfact> 0.91626539E+00</totfact>
</mgrwt>
</event>
<event>
 4    1  0.4880711E-008  0.2082085E+03  0.7818608E-02  0.1142993E+00
         -2   -1    0    0    0  501 -0.00000000000E+00  0.00000000000E+00  0.91530180517E+03  0.91530180517E+03  0.25500000000E-02 0.  1.
          2   -1    0    0  501    0  0.00000000000E+00 -0.00000000000E+00 -0.73726437036E+03  0.73726437036E+03  0.25500000000E-02 0. -1.
    8880022    1    1    2    0    0 -0.13506031039E+03 -0.41446997583E+02  0.88832084009E+03  0.91239503999E+03  0.15294330000E+03 0.  0.
    8880022    1    1    2    0    0  0.13506031039E+03  0.41446997583E+02 -0.71028340528E+03  0.74017113554E+03  0.15294330000E+03 0.  0.
<mgrwt>
<rscale>  0 0.20820854E+03</rscale>
<asrwt>0</asrwt>
<pdfrwt beam="1">  1        2 0.11342529E+00 0.20820854E+03</pdfrwt>
<pdfrwt beam="2">  1       -2 0.14081566E+00 0.20820854E+03</pdfrwt>
<totfact> 0.15210809E+01</totfact>
</mgrwt>
</event>
<event>
 4    1  0.4880711E-008  0.4443443E+03  0.7818608E-02  0.1029422E+00
          2   -1    0    0  501    0  0.00000000000E+00  0.00000000000E+00  0.90087797291E+03  0.90087797291E+03  0.25500000000E-02 0. -1.
         -2   -1    0    0    0  501 -0.00000000000E+00 -0.00000000000E+00 -0.38896319331E+03  0.38896319332E+03  0.25500000000E-02 0.  1.
    8880022    1    1    2    0    0 -0.39919362444E+03  0.12122151193E+03  0.68206293605E+03  0.81403421703E+03  0.15294330000E+03 0.  0.
    8880022    1    1    2    0    0  0.39919362444E+03 -0.12122151193E+03 -0.17014815645E+03  0.47580694920E+03  0.15294330000E+03 0.  0.
<mgrwt>
<rscale>  0 0.44434430E+03</rscale>
<asrwt>0</asrwt>
<pdfrwt beam="1">  1        2 0.13859661E+00 0.44434430E+03</pdfrwt>
<pdfrwt beam="2">  1       -2 0.59840492E-01 0.44434430E+03</pdfrwt>
<totfact> 0.79593675E+01</totfact>
</mgrwt>
</event>
<event>
 4    1  0.4880711E-008  0.1068809E+04  0.7818608E-02  0.9236138E-01
         -2   -1    0    0    0  501 -0.00000000000E+00  0.00000000000E+00  0.75195818477E+03  0.75195818477E+03  0.25500000000E-02 0.  1.
          2   -1    0    0  501    0  0.00000000000E+00 -0.00000000000E+00 -0.39173256552E+04  0.39173256552E+04  0.25500000000E-02 0. -1.
    8880022    1    1    2    0    0 -0.20962048268E+03 -0.10368314146E+04  0.24400347981E+03  0.10963072016E+04  0.15294330000E+03 0.  0.
    8880022    1    1    2    0    0  0.20962048268E+03  0.10368314146E+04 -0.34093709503E+04  0.35729766384E+04  0.15294330000E+03 0.  0.
<mgrwt>
<rscale>  0 0.10688086E+04</rscale>
<asrwt>0</asrwt>
<pdfrwt beam="1">  1        2 0.60266548E+00 0.10688086E+04</pdfrwt>
<pdfrwt beam="2">  1       -2 0.11568588E+00 0.10688086E+04</pdfrwt>
<totfact> 0.23906741E-01</totfact>
</mgrwt>
</event>
<event>
 4    1  0.4880711E-008  0.4156683E+03  0.7818608E-02  0.1038485E+00
         -2   -1    0    0    0  501 -0.00000000000E+00  0.00000000000E+00  0.26694407149E+03  0.26694407150E+03  0.25500000000E-02 0.  1.
          2   -1    0    0  501    0  0.00000000000E+00 -0.00000000000E+00 -0.11680172849E+04  0.11680172849E+04  0.25500000000E-02 0. -1.
    8880022    1    1    2    0    0  0.38650554367E+03 -0.13876786378E+01  0.28541739241E+02  0.41664702667E+03  0.15294330000E+03 0.  0.
    8880022    1    1    2    0    0 -0.38650554367E+03  0.13876786378E+01 -0.92961495265E+03  0.10183143297E+04  0.15294330000E+03 0. -1.
<mgrwt>
<rscale>  0 0.41566827E+03</rscale>
<asrwt>0</asrwt>
<pdfrwt beam="1">  1        2 0.17969496E+00 0.41566827E+03</pdfrwt>
<pdfrwt beam="2">  1       -2 0.41068319E-01 0.41566827E+03</pdfrwt>
<totfact> 0.11664581E+02</totfact>
</mgrwt>
</event>
<event>
 4    1  0.4880711E-008  0.2663422E+03  0.7818608E-02  0.1103392E+00
          2   -1    0    0  501    0  0.00000000000E+00  0.00000000000E+00  0.11604886325E+04  0.11604886325E+04  0.25500000000E-02 0. -1.
         -2   -1    0    0    0  501 -0.00000000000E+00 -0.00000000000E+00 -0.11324872640E+03  0.11324872642E+03  0.25500000000E-02 0.  1.
    8880022    1    1    2    0    0  0.12982459018E+03 -0.17519151835E+03  0.95567510636E+03  0.99209528487E+03  0.15294330000E+03 0.  0.
    8880022    1    1    2    0    0 -0.12982459018E+03  0.17519151835E+03  0.91564799751E+02  0.28164207407E+03  0.15294330000E+03 0.  0.
<mgrwt>
<rscale>  0 0.26634216E+03</rscale>
<asrwt>0</asrwt>
<pdfrwt beam="1">  1        2 0.17853671E+00 0.26634216E+03</pdfrwt>
<pdfrwt beam="2">  1       -2 0.17422882E-01 0.26634216E+03</pdfrwt>
<totfact> 0.56316385E+02</totfact>
</mgrwt>
</event>
<event>
 4    1  0.4880711E-008  0.7460167E+03  0.7818608E-02  0.9641620E-01
         -2   -1    0    0    0  501 -0.00000000000E+00  0.00000000000E+00  0.74707498822E+03  0.74707498823E+03  0.25500000000E-02 0.  1.
          2   -1    0    0  501    0  0.00000000000E+00 -0.00000000000E+00 -0.84601909278E+03  0.84601909279E+03  0.25500000000E-02 0. -1.
    8880022    1    1    2    0    0  0.32888010122E+03  0.65191033161E+03 -0.32477408260E+03  0.81364553657E+03  0.15294330000E+03 0.  0.
    8880022    1    1    2    0    0 -0.32888010122E+03 -0.65191033161E+03  0.22582997804E+03  0.77944854444E+03  0.15294330000E+03 0.  0.
<mgrwt>
<rscale>  0 0.74601666E+03</rscale>
<asrwt>0</asrwt>
<pdfrwt beam="1">  1        2 0.13015678E+00 0.74601666E+03</pdfrwt>
<pdfrwt beam="2">  1       -2 0.11493461E+00 0.74601666E+03</pdfrwt>
<totfact> 0.19152172E+01</totfact>
</mgrwt>
</event>
<event>
 4    1  0.4880711E-008  0.5459152E+03  0.7818608E-02  0.1002444E+00
          2   -1    0    0  501    0  0.00000000000E+00  0.00000000000E+00  0.35367734299E+04  0.35367734299E+04  0.25500000000E-02 0. -1.
         -2   -1    0    0    0  501 -0.00000000000E+00 -0.00000000000E+00 -0.12964338934E+03  0.12964338936E+03  0.25500000000E-02 0.  1.
    8880022    1    1    2    0    0  0.50677006696E+03  0.13347594492E+03  0.61897645348E+03  0.82532128993E+03  0.15294330000E+03 0.  0.
    8880022    1    1    2    0    0 -0.50677006696E+03 -0.13347594492E+03  0.27881535870E+04  0.28410955293E+04  0.15294330000E+03 0.  0.
<mgrwt>
<rscale>  0 0.54591518E+03</rscale>
<asrwt>0</asrwt>
<pdfrwt beam="1">  1        2 0.54411897E+00 0.54591518E+03</pdfrwt>
<pdfrwt beam="2">  1       -2 0.19945138E-01 0.54591518E+03</pdfrwt>
<totfact> 0.18499138E+01</totfact>
</mgrwt>
</event>
<event>
 4    1  0.4880711E-008  0.3124840E+03  0.7818608E-02  0.1079161E+00
         -2   -1    0    0    0  501 -0.00000000000E+00  0.00000000000E+00  0.36041468956E+03  0.36041468957E+03  0.25500000000E-02 0.  1.
          2   -1    0    0  501    0  0.00000000000E+00 -0.00000000000E+00 -0.58818646159E+03  0.58818646160E+03  0.25500000000E-02 0. -1.
    8880022    1    1    2    0    0 -0.45265580402E+02 -0.26871099617E+03  0.23445394548E+03  0.39065954205E+03  0.15294330000E+03 0.  1.
    8880022    1    1    2    0    0  0.45265580402E+02  0.26871099617E+03 -0.46222571751E+03  0.55794160911E+03  0.15294330000E+03 0.  0.
<mgrwt>
<rscale>  0 0.31248396E+03</rscale>
<asrwt>0</asrwt>
<pdfrwt beam="1">  1        2 0.90490225E-01 0.31248396E+03</pdfrwt>
<pdfrwt beam="2">  1       -2 0.55448414E-01 0.31248396E+03</pdfrwt>
<totfact> 0.16171793E+02</totfact>
</mgrwt>
</event>
<event>
 4    1  0.4880711E-008  0.3789850E+03  0.7818608E-02  0.1051310E+00
         -2   -1    0    0    0  501 -0.00000000000E+00  0.00000000000E+00  0.84607996630E+03  0.84607996630E+03  0.25500000000E-02 0.  1.
          2   -1    0    0  501    0  0.00000000000E+00 -0.00000000000E+00 -0.26618972838E+03  0.26618972839E+03  0.25500000000E-02 0. -1.
    8880022    1    1    2    0    0 -0.22370645589E+03  0.26494042041E+03 -0.44783055442E+02  0.38162177591E+03  0.15294330000E+03 0. -1.
    8880022    1    1    2    0    0  0.22370645589E+03 -0.26494042041E+03  0.62467329336E+03  0.73064791879E+03  0.15294330000E+03 0.  0.
<mgrwt>
<rscale>  0 0.37898504E+03</rscale>
<asrwt>0</asrwt>
<pdfrwt beam="1">  1        2 0.40952266E-01 0.37898504E+03</pdfrwt>
<pdfrwt beam="2">  1       -2 0.13016615E+00 0.37898504E+03</pdfrwt>
<totfact> 0.56388358E+01</totfact>
</mgrwt>
</event>
<event>
 4    1  0.4880711E-008  0.7906572E+03  0.7818608E-02  0.9573640E-01
         -2   -1    0    0    0  501 -0.00000000000E+00  0.00000000000E+00  0.79463912113E+03  0.79463912114E+03  0.25500000000E-02 0.  1.
          2   -1    0    0  501    0  0.00000000000E+00 -0.00000000000E+00 -0.23653908998E+04  0.23653908998E+04  0.25500000000E-02 0. -1.
    8880022    1    1    2    0    0  0.14172764847E+03  0.76266665001E+03 -0.20761759058E+04  0.22216312003E+04  0.15294330000E+03 0.  0.
    8880022    1    1    2    0    0 -0.14172764847E+03 -0.76266665001E+03  0.50542412708E+03  0.93839882067E+03  0.15294330000E+03 0.  0.
<mgrwt>
<rscale>  0 0.79065719E+03</rscale>
<asrwt>0</asrwt>
<pdfrwt beam="1">  1        2 0.36390629E+00 0.79065719E+03</pdfrwt>
<pdfrwt beam="2">  1       -2 0.12225217E+00 0.79065719E+03</pdfrwt>
<totfact> 0.21913422E+00</totfact>
</mgrwt>
</event>
<event>
 4    1  0.4880711E-008  0.3152345E+03  0.7818608E-02  0.1077864E+00
          2   -1    0    0  501    0  0.00000000000E+00  0.00000000000E+00  0.12936253856E+03  0.12936253858E+03  0.25500000000E-02 0. -1.
         -2   -1    0    0    0  501 -0.00000000000E+00 -0.00000000000E+00 -0.13781371513E+04  0.13781371513E+04  0.25500000000E-02 0.  1.
    8880022    1    1    2    0    0  0.47705928225E+02  0.27148719463E+03 -0.12293090229E+03  0.33835604352E+03  0.15294330000E+03 0.  0.
    8880022    1    1    2    0    0 -0.47705928225E+02 -0.27148719463E+03 -0.11258437105E+04  0.11691436464E+04  0.15294330000E+03 0.  0.
<mgrwt>
<rscale>  0 0.31523452E+03</rscale>
<asrwt>0</asrwt>
<pdfrwt beam="1">  1        2 0.19901930E-01 0.31523452E+03</pdfrwt>
<pdfrwt beam="2">  1       -2 0.21202109E+00 0.31523452E+03</pdfrwt>
<totfact> 0.33753782E+01</totfact>
</mgrwt>
</event>
<event>
 4    1  0.4880711E-008  0.1971830E+03  0.7818608E-02  0.1152138E+00
          2   -1    0    0  501    0  0.00000000000E+00  0.00000000000E+00  0.66441636448E+03  0.66441636448E+03  0.25500000000E-02 0. -1.
         -2   -1    0    0    0  501 -0.00000000000E+00 -0.00000000000E+00 -0.12460186748E+03  0.12460186750E+03  0.25500000000E-02 0.  1.
    8880022    1    1    2    0    0  0.92506999630E+02  0.83258145140E+02  0.55720917426E+03  0.59106952265E+03  0.15294330000E+03 0. -1.
    8880022    1    1    2    0    0 -0.92506999630E+02 -0.83258145140E+02 -0.17394677262E+02  0.19794870933E+03  0.15294330000E+03 0.  0.
<mgrwt>
<rscale>  0 0.19718295E+03</rscale>
<asrwt>0</asrwt>
<pdfrwt beam="1">  1        2 0.10221790E+00 0.19718295E+03</pdfrwt>
<pdfrwt beam="2">  1       -2 0.19169519E-01 0.19718295E+03</pdfrwt>
<totfact> 0.10119126E+03</totfact>
</mgrwt>
</event>
<event>
 4    1  0.4880711E-008  0.6233022E+03  0.7818608E-02  0.9858207E-01
         -2   -1    0    0    0  501 -0.00000000000E+00  0.00000000000E+00  0.44280907180E+03  0.44280907181E+03  0.25500000000E-02 0.  1.
          2   -1    0    0  501    0  0.00000000000E+00 -0.00000000000E+00 -0.99330001750E+03  0.99330001750E+03  0.25500000000E-02 0. -1.
    8880022    1    1    2    0    0 -0.14037952851E+02  0.60408358398E+03 -0.29931456603E+02  0.62402050100E+03  0.15294330000E+03 0.  0.
    8880022    1    1    2    0    0  0.14037952851E+02 -0.60408358398E+03 -0.52055948910E+03  0.81208858831E+03  0.15294330000E+03 0.  0.
<mgrwt>
<rscale>  0 0.62330225E+03</rscale>
<asrwt>0</asrwt>
<pdfrwt beam="1">  1        2 0.15281539E+00 0.62330225E+03</pdfrwt>
<pdfrwt beam="2">  1       -2 0.68124473E-01 0.62330225E+03</pdfrwt>
<totfact> 0.51560849E+01</totfact>
</mgrwt>
</event>
<event>
 4    1  0.4880711E-008  0.4255360E+03  0.7818608E-02  0.1035279E+00
          2   -1    0    0  501    0  0.00000000000E+00  0.00000000000E+00  0.18433856355E+03  0.18433856357E+03  0.25500000000E-02 0. -1.
         -2   -1    0    0    0  501 -0.00000000000E+00 -0.00000000000E+00 -0.18099525588E+04  0.18099525588E+04  0.25500000000E-02 0.  1.
    8880022    1    1    2    0    0 -0.17532050515E+03  0.35630312106E+03 -0.14870893161E+04  0.15467758340E+04  0.15294330000E+03 0.  0.
    8880022    1    1    2    0    0  0.17532050515E+03 -0.35630312106E+03 -0.13852467922E+03  0.44751528842E+03  0.15294330000E+03 0.  0.
<mgrwt>
<rscale>  0 0.42553595E+03</rscale>
<asrwt>0</asrwt>
<pdfrwt beam="1">  1        2 0.28359780E-01 0.42553595E+03</pdfrwt>
<pdfrwt beam="2">  1       -2 0.27845423E+00 0.42553595E+03</pdfrwt>
<totfact> 0.88378467E+00</totfact>
</mgrwt>
</event>
<event>
 4    1  0.4880711E-008  0.5970177E+03  0.7818608E-02  0.9911613E-01
         -2   -1    0    0    0  501 -0.00000000000E+00  0.00000000000E+00  0.65358547613E+03  0.65358547614E+03  0.25500000000E-02 0.  1.
          2   -1    0    0  501    0  0.00000000000E+00 -0.00000000000E+00 -0.14585256368E+04  0.14585256368E+04  0.25500000000E-02 0. -1.
    8880022    1    1    2    0    0 -0.57557605635E+03 -0.41841097100E+02  0.43314809425E+03  0.73759568777E+03  0.15294330000E+03 0.  0.
    8880022    1    1    2    0    0  0.57557605635E+03  0.41841097100E+02 -0.12380882549E+04  0.13745154252E+04  0.15294330000E+03 0.  0.
<mgrwt>
<rscale>  0 0.59701769E+03</rscale>
<asrwt>0</asrwt>
<pdfrwt beam="1">  1        2 0.22438856E+00 0.59701769E+03</pdfrwt>
<pdfrwt beam="2">  1       -2 0.10055161E+00 0.59701769E+03</pdfrwt>
<totfact> 0.11441307E+01</totfact>
</mgrwt>
</event>
<event>
 4    1  0.4880711E-008  0.3054025E+03  0.7818608E-02  0.1082571E+00
         -2   -1    0    0    0  501 -0.00000000000E+00  0.00000000000E+00  0.34976383052E+03  0.34976383053E+03  0.25500000000E-02 0.  1.
          2   -1    0    0  501    0  0.00000000000E+00 -0.00000000000E+00 -0.13311980049E+04  0.13311980049E+04  0.25500000000E-02 0. -1.
    8880022    1    1    2    0    0 -0.25523612777E+03  0.68800843127E+02  0.26088081395E+03  0.40165842334E+03  0.15294330000E+03 0.  1.
    8880022    1    1    2    0    0  0.25523612777E+03 -0.68800843127E+02 -0.12423149883E+04  0.12793034120E+04  0.15294330000E+03 0.  0.
<mgrwt>
<rscale>  0 0.30540250E+03</rscale>
<asrwt>0</asrwt>
<pdfrwt beam="1">  1        2 0.20479969E+00 0.30540250E+03</pdfrwt>
<pdfrwt beam="2">  1       -2 0.53809821E-01 0.30540250E+03</pdfrwt>
<totfact> 0.56169499E+01</totfact>
</mgrwt>
</event>
<event>
 4    1  0.5386966E-008  0.8779812E+03  0.7818608E-02  0.9453532E-01
         -2   -1    0    0    0  501 -0.00000000000E+00  0.00000000000E+00  0.14593173422E+04  0.14593173422E+04  0.25500000000E-02 0.  1.
          2   -1    0    0  501    0  0.00000000000E+00 -0.00000000000E+00 -0.17072931380E+04  0.17072931380E+04  0.25500000000E-02 0. -1.
    8880022    1    1    2    0    0  0.59451767901E+03 -0.62770066624E+03  0.11917811212E+04  0.14802679794E+04  0.15294330000E+03 0.  0.
    8880022    1    1    2    0    0 -0.59451767901E+03  0.62770066624E+03 -0.14397569170E+04  0.16863425008E+04  0.15294330000E+03 0.  0.
<mgrwt>
<rscale>  0 0.87798124E+03</rscale>
<asrwt>0</asrwt>
<pdfrwt beam="1">  1        2 0.26266048E+00 0.87798124E+03</pdfrwt>
<pdfrwt beam="2">  1       -2 0.22451036E+00 0.87798124E+03</pdfrwt>
<totfact> 0.91428746E-01</totfact>
</mgrwt>
</event>
<event>
 4    1  0.4880711E-008  0.7499901E+03  0.7818608E-02  0.9635366E-01
         -2   -1    0    0    0  501 -0.00000000000E+00  0.00000000000E+00  0.16570423767E+04  0.16570423767E+04  0.25500000000E-02 0.  1.
          2   -1    0    0  501    0  0.00000000000E+00 -0.00000000000E+00 -0.78585417138E+03  0.78585417138E+03  0.25500000000E-02 0. -1.
    8880022    1    1    2    0    0  0.73356172305E+03  0.31315189250E+02  0.13561869916E+04  0.15497510290E+04  0.15294330000E+03 0.  0.
    8880022    1    1    2    0    0 -0.73356172305E+03 -0.31315189250E+02 -0.48499878628E+03  0.89314551911E+03  0.15294330000E+03 0.  0.
<mgrwt>
<rscale>  0 0.74999006E+03</rscale>
<asrwt>0</asrwt>
<pdfrwt beam="1">  1        2 0.12090064E+00 0.74999006E+03</pdfrwt>
<pdfrwt beam="2">  1       -2 0.25492960E+00 0.74999006E+03</pdfrwt>
<totfact> 0.21830963E+00</totfact>
</mgrwt>
</event>
<event>
 4    1  0.4880711E-008  0.2839545E+03  0.7818608E-02  0.1093548E+00
         -2   -1    0    0    0  501 -0.00000000000E+00  0.00000000000E+00  0.17460406878E+03  0.17460406880E+03  0.25500000000E-02 0.  1.
          2   -1    0    0  501    0  0.00000000000E+00 -0.00000000000E+00 -0.17199238239E+04  0.17199238239E+04  0.25500000000E-02 0. -1.
    8880022    1    1    2    0    0  0.99846665732E+02 -0.21741466765E+03  0.37517446203E+02  0.28642225150E+03  0.15294330000E+03 0.  0.
    8880022    1    1    2    0    0 -0.99846665732E+02  0.21741466765E+03 -0.15828372013E+04  0.16081056412E+04  0.15294330000E+03 0. -1.
<mgrwt>
<rscale>  0 0.28395448E+03</rscale>
<asrwt>0</asrwt>
<pdfrwt beam="1">  1        2 0.26460365E+00 0.28395448E+03</pdfrwt>
<pdfrwt beam="2">  1       -2 0.26862166E-01 0.28395448E+03</pdfrwt>
<totfact> 0.13118616E+02</totfact>
</mgrwt>
</event>
<event>
 4    1  0.4880711E-008  0.5328517E+03  0.7818608E-02  0.1005543E+00
          2   -1    0    0  501    0  0.00000000000E+00  0.00000000000E+00  0.16850063836E+04  0.16850063836E+04  0.25500000000E-02 0. -1.
         -2   -1    0    0    0  501 -0.00000000000E+00 -0.00000000000E+00 -0.18172596032E+03  0.18172596034E+03  0.25500000000E-02 0.  1.
    8880022    1    1    2    0    0 -0.35357106863E+03  0.36813961523E+03  0.49988091965E+03  0.73062429724E+03  0.15294330000E+03 0.  0.
    8880022    1    1    2    0    0  0.35357106863E+03 -0.36813961523E+03  0.10033995037E+04  0.11361080467E+04  0.15294330000E+03 0.  0.
<mgrwt>
<rscale>  0 0.53285170E+03</rscale>
<asrwt>0</asrwt>
<pdfrwt beam="1">  1        2 0.25923176E+00 0.53285170E+03</pdfrwt>
<pdfrwt beam="2">  1       -2 0.27957840E-01 0.53285170E+03</pdfrwt>
<totfact> 0.12197753E+02</totfact>
</mgrwt>
</event>
<event>
 4    1  0.4880711E-008  0.3117202E+03  0.7818608E-02  0.1079524E+00
          2   -1    0    0  501    0  0.00000000000E+00  0.00000000000E+00  0.10539546335E+04  0.10539546335E+04  0.25500000000E-02 0. -1.
         -2   -1    0    0    0  501 -0.00000000000E+00 -0.00000000000E+00 -0.22555238887E+03  0.22555238889E+03  0.25500000000E-02 0.  1.
    8880022    1    1    2    0    0  0.68114306006E+02  0.26294154490E+03  0.90612433734E+03  0.95824359244E+03  0.15294330000E+03 0.  0.
    8880022    1    1    2    0    0 -0.68114306006E+02 -0.26294154490E+03 -0.77722092712E+02  0.32126342996E+03  0.15294330000E+03 0.  0.
<mgrwt>
<rscale>  0 0.31172018E+03</rscale>
<asrwt>0</asrwt>
<pdfrwt beam="1">  1        2 0.16214686E+00 0.31172018E+03</pdfrwt>
<pdfrwt beam="2">  1       -2 0.34700368E-01 0.31172018E+03</pdfrwt>
<totfact> 0.19075487E+02</totfact>
</mgrwt>
</event>
<event>
 4    1  0.4880711E-008  0.1692059E+03  0.7818608E-02  0.1178678E+00
          2   -1    0    0  501    0  0.00000000000E+00  0.00000000000E+00  0.24042497942E+04  0.24042497942E+04  0.25500000000E-02 0. -1.
         -2   -1    0    0    0  501 -0.00000000000E+00 -0.00000000000E+00 -0.17684435770E+03  0.17684435772E+03  0.25500000000E-02 0.  1.
    8880022    1    1    2    0    0  0.64144051020E+02 -0.33534087436E+02 -0.13263571244E+03  0.21499506862E+03  0.15294330000E+03 0.  1.
    8880022    1    1    2    0    0 -0.64144051020E+02  0.33534087436E+02  0.23600411489E+04  0.23660990833E+04  0.15294330000E+03 0.  0.
<mgrwt>
<rscale>  0 0.16920593E+03</rscale>
<asrwt>0</asrwt>
<pdfrwt beam="1">  1        2 0.36988457E+00 0.16920593E+03</pdfrwt>
<pdfrwt beam="2">  1       -2 0.27206825E-01 0.16920593E+03</pdfrwt>
<totfact> 0.58538451E+01</totfact>
</mgrwt>
</event>
<event>
 4    1  0.4880711E-008  0.2724836E+03  0.7818608E-02  0.1099867E+00
         -2   -1    0    0    0  501 -0.00000000000E+00  0.00000000000E+00  0.66284905069E+03  0.66284905069E+03  0.25500000000E-02 0.  1.
          2   -1    0    0  501    0  0.00000000000E+00 -0.00000000000E+00 -0.23120959367E+03  0.23120959368E+03  0.25500000000E-02 0. -1.
    8880022    1    1    2    0    0 -0.18905130251E+02  0.22471816920E+03  0.53679095543E+03  0.60198990221E+03  0.15294330000E+03 0.  0.
    8880022    1    1    2    0    0  0.18905130251E+02 -0.22471816920E+03 -0.10515149841E+03  0.29206874217E+03  0.15294330000E+03 0.  0.
<mgrwt>
<rscale>  0 0.27248360E+03</rscale>
<asrwt>0</asrwt>
<pdfrwt beam="1">  1        2 0.35570707E-01 0.27248360E+03</pdfrwt>
<pdfrwt beam="2">  1       -2 0.10197678E+00 0.27248360E+03</pdfrwt>
<totfact> 0.11988854E+02</totfact>
</mgrwt>
</event>
<event>
 4    1  0.4880711E-008  0.2160313E+03  0.7818608E-02  0.1136877E+00
          2   -1    0    0  501    0  0.00000000000E+00  0.00000000000E+00  0.32462731723E+04  0.32462731723E+04  0.25500000000E-02 0. -1.
         -2   -1    0    0    0  501 -0.00000000000E+00 -0.00000000000E+00 -0.17436267094E+02  0.17436267281E+02  0.25500000000E-02 0.  1.
    8880022    1    1    2    0    0 -0.66171565716E+02 -0.13747432013E+03  0.93080519268E+03  0.95554582545E+03  0.15294330000E+03 0.  1.
    8880022    1    1    2    0    0  0.66171565716E+02  0.13747432013E+03  0.22980317126E+04  0.23081636142E+04  0.15294330000E+03 0. -1.
<mgrwt>
<rscale>  0 0.21603129E+03</rscale>
<asrwt>0</asrwt>
<pdfrwt beam="1">  1        2 0.49942667E+00 0.21603129E+03</pdfrwt>
<pdfrwt beam="2">  1       -2 0.26825025E-02 0.21603129E+03</pdfrwt>
<totfact> 0.74864344E+02</totfact>
</mgrwt>
</event>
<event>
 4    1  0.4880711E-008  0.7207156E+03  0.7818608E-02  0.9682447E-01
         -2   -1    0    0    0  501 -0.00000000000E+00  0.00000000000E+00  0.28585147421E+04  0.28585147421E+04  0.25500000000E-02 0.  1.
          2   -1    0    0  501    0  0.00000000000E+00 -0.00000000000E+00 -0.40593917334E+03  0.40593917335E+03  0.25500000000E-02 0. -1.
    8880022    1    1    2    0    0  0.58146555874E+03  0.39741301775E+03  0.13198817068E+02  0.72083643392E+03  0.15294330000E+03 0.  0.
    8880022    1    1    2    0    0 -0.58146555874E+03 -0.39741301775E+03  0.24393767517E+04  0.25436174816E+04  0.15294330000E+03 0.  0.
<mgrwt>
<rscale>  0 0.72071559E+03</rscale>
<asrwt>0</asrwt>
<pdfrwt beam="1">  1        2 0.62452179E-01 0.72071559E+03</pdfrwt>
<pdfrwt beam="2">  1       -2 0.43977151E+00 0.72071559E+03</pdfrwt>
<totfact> 0.34017108E-01</totfact>
</mgrwt>
</event>
<event>
 4    1  0.6163019E-008  0.8052233E+03  0.7818608E-02  0.9552487E-01
         -2   -1    0    0    0  501 -0.00000000000E+00  0.00000000000E+00  0.85210708366E+03  0.85210708366E+03  0.25500000000E-02 0.  1.
          2   -1    0    0  501    0  0.00000000000E+00 -0.00000000000E+00 -0.16908318204E+04  0.16908318204E+04  0.25500000000E-02 0. -1.
    8880022    1    1    2    0    0  0.16458603766E+03  0.77324270113E+03 -0.13622866854E+04  0.15824694325E+04  0.15294330000E+03 0.  0.
    8880022    1    1    2    0    0 -0.16458603766E+03 -0.77324270113E+03  0.52356194866E+03  0.96046947153E+03  0.15294330000E+03 0.  0.
<mgrwt>
<rscale>  0 0.80522326E+03</rscale>
<asrwt>0</asrwt>
<pdfrwt beam="1">  1        2 0.26012797E+00 0.80522326E+03</pdfrwt>
<pdfrwt beam="2">  1       -2 0.13109340E+00 0.80522326E+03</pdfrwt>
<totfact> 0.43067122E+00</totfact>
</mgrwt>
</event>
<event>
 4    1  0.4880711E-008  0.9707529E+03  0.7818608E-02  0.9341217E-01
         -2   -1    0    0    0  501 -0.00000000000E+00  0.00000000000E+00  0.15342698897E+04  0.15342698897E+04  0.25500000000E-02 0.  1.
          2   -1    0    0  501    0  0.00000000000E+00 -0.00000000000E+00 -0.69838709745E+03  0.69838709745E+03  0.25500000000E-02 0. -1.
    8880022    1    1    2    0    0  0.15893819660E+03 -0.94536143189E+03  0.80550712474E+03  0.12614289391E+04  0.15294330000E+03 0.  0.
    8880022    1    1    2    0    0 -0.15893819660E+03  0.94536143189E+03  0.30375667516E+02  0.97122804811E+03  0.15294330000E+03 0.  0.
<mgrwt>
<rscale>  0 0.97075292E+03</rscale>
<asrwt>0</asrwt>
<pdfrwt beam="1">  1        2 0.10744417E+00 0.97075292E+03</pdfrwt>
<pdfrwt beam="2">  1       -2 0.23604152E+00 0.97075292E+03</pdfrwt>
<totfact> 0.32202942E+00</totfact>
</mgrwt>
</event>
<event>
 4    1  0.4880711E-008  0.7279857E+03  0.7818608E-02  0.9670535E-01
         -2   -1    0    0    0  501 -0.00000000000E+00  0.00000000000E+00  0.64887192299E+03  0.64887192300E+03  0.25500000000E-02 0.  1.
          2   -1    0    0  501    0  0.00000000000E+00 -0.00000000000E+00 -0.14600558343E+04  0.14600558343E+04  0.25500000000E-02 0. -1.
    8880022    1    1    2    0    0 -0.70271034193E+03 -0.11300294144E+03  0.29434235215E+03  0.78523917548E+03  0.15294330000E+03 0.  0.
    8880022    1    1    2    0    0  0.70271034193E+03  0.11300294144E+03 -0.11055262635E+04  0.13236885819E+04  0.15294330000E+03 0.  0.
<mgrwt>
<rscale>  0 0.72798567E+03</rscale>
<asrwt>0</asrwt>
<pdfrwt beam="1">  1        2 0.22462397E+00 0.72798567E+03</pdfrwt>
<pdfrwt beam="2">  1       -2 0.99826450E-01 0.72798567E+03</pdfrwt>
<totfact> 0.11389388E+01</totfact>
</mgrwt>
</event>
<event>
 4    1  0.4880711E-008  0.6544491E+03  0.7818608E-02  0.9798466E-01
         -2   -1    0    0    0  501 -0.00000000000E+00  0.00000000000E+00  0.80570355404E+03  0.80570355405E+03  0.25500000000E-02 0.  1.
          2   -1    0    0  501    0  0.00000000000E+00 -0.00000000000E+00 -0.13209206468E+04  0.13209206468E+04  0.25500000000E-02 0. -1.
    8880022    1    1    2    0    0 -0.61121816910E+03  0.17698689438E+03  0.56435389405E+03  0.86417531888E+03  0.15294330000E+03 0.  0.
    8880022    1    1    2    0    0  0.61121816910E+03 -0.17698689438E+03 -0.10795709868E+04  0.12624488820E+04  0.15294330000E+03 0.  0.
<mgrwt>
<rscale>  0 0.65444913E+03</rscale>
<asrwt>0</asrwt>
<pdfrwt beam="1">  1        2 0.20321856E+00 0.65444913E+03</pdfrwt>
<pdfrwt beam="2">  1       -2 0.12395439E+00 0.65444913E+03</pdfrwt>
<totfact> 0.81557171E+00</totfact>
</mgrwt>
</event>
<event>
 4    1  0.4880711E-008  0.2377698E+03  0.7818608E-02  0.1121288E+00
         -2   -1    0    0    0  501 -0.00000000000E+00  0.00000000000E+00  0.10492249483E+03  0.10492249486E+03  0.25500000000E-02 0.  1.
          2   -1    0    0  501    0  0.00000000000E+00 -0.00000000000E+00 -0.70725582728E+03  0.70725582728E+03  0.25500000000E-02 0. -1.
    8880022    1    1    2    0    0  0.15386938179E+03 -0.97298595910E+02 -0.10299164163E+03  0.25911722188E+03  0.15294330000E+03 0.  0.
    8880022    1    1    2    0    0 -0.15386938179E+03  0.97298595910E+02 -0.49934169082E+03  0.55306110026E+03  0.15294330000E+03 0.  0.
<mgrwt>
<rscale>  0 0.23776976E+03</rscale>
<asrwt>0</asrwt>
<pdfrwt beam="1">  1        2 0.10880859E+00 0.23776976E+03</pdfrwt>
<pdfrwt beam="2">  1       -2 0.16141923E-01 0.23776976E+03</pdfrwt>
<totfact> 0.12543359E+03</totfact>
</mgrwt>
</event>
<event>
 4    1  0.4880711E-008  0.3693723E+03  0.7818608E-02  0.1054933E+00
          2   -1    0    0  501    0  0.00000000000E+00  0.00000000000E+00  0.22026851207E+04  0.22026851207E+04  0.25500000000E-02 0. -1.
         -2   -1    0    0    0  501 -0.00000000000E+00 -0.00000000000E+00 -0.42114453362E+03  0.42114453363E+03  0.25500000000E-02 0.  1.
    8880022    1    1    2    0    0  0.57449295838E+02 -0.33127609649E+03  0.21023737935E+04  0.21345752491E+04  0.15294330000E+03 0.  0.
    8880022    1    1    2    0    0 -0.57449295838E+02  0.33127609649E+03 -0.32083320637E+03  0.48925440522E+03  0.15294330000E+03 0.  0.
<mgrwt>
<rscale>  0 0.36937234E+03</rscale>
<asrwt>0</asrwt>
<pdfrwt beam="1">  1        2 0.33887463E+00 0.36937234E+03</pdfrwt>
<pdfrwt beam="2">  1       -2 0.64791468E-01 0.36937234E+03</pdfrwt>
<totfact> 0.12793004E+01</totfact>
</mgrwt>
</event>
<event>
 4    1  0.4880711E-008  0.9400498E+03  0.7818608E-02  0.9376857E-01
          2   -1    0    0  501    0  0.00000000000E+00  0.00000000000E+00  0.27488244456E+04  0.27488244456E+04  0.25500000000E-02 0. -1.
         -2   -1    0    0    0  501 -0.00000000000E+00 -0.00000000000E+00 -0.67729718673E+03  0.67729718673E+03  0.25500000000E-02 0.  1.
    8880022    1    1    2    0    0  0.31827982168E+03  0.87120598261E+03  0.22774052955E+04  0.24637914770E+04  0.15294330000E+03 0.  0.
    8880022    1    1    2    0    0 -0.31827982168E+03 -0.87120598261E+03 -0.20587803658E+03  0.96233015540E+03  0.15294330000E+03 0.  0.
<mgrwt>
<rscale>  0 0.94004977E+03</rscale>
<asrwt>0</asrwt>
<pdfrwt beam="1">  1        2 0.42289607E+00 0.94004977E+03</pdfrwt>
<pdfrwt beam="2">  1       -2 0.10419957E+00 0.94004977E+03</pdfrwt>
<totfact> 0.19014590E+00</totfact>
</mgrwt>
</event>
<event>
 4    1  0.4880711E-008  0.4675098E+03  0.7818608E-02  0.1022625E+00
          2   -1    0    0  501    0  0.00000000000E+00  0.00000000000E+00  0.12926291282E+04  0.12926291282E+04  0.25500000000E-02 0. -1.
         -2   -1    0    0    0  501 -0.00000000000E+00 -0.00000000000E+00 -0.20453085265E+03  0.20453085267E+03  0.25500000000E-02 0.  1.
    8880022    1    1    2    0    0 -0.44176527028E+03  0.41444452463E+01  0.85567671735E+03  0.97506308928E+03  0.15294330000E+03 0.  0.
    8880022    1    1    2    0    0  0.44176527028E+03 -0.41444452463E+01  0.23242155815E+03  0.52209689154E+03  0.15294330000E+03 0.  0.
<mgrwt>
<rscale>  0 0.46750977E+03</rscale>
<asrwt>0</asrwt>
<pdfrwt beam="1">  1        2 0.19886602E+00 0.46750977E+03</pdfrwt>
<pdfrwt beam="2">  1       -2 0.31466285E-01 0.46750977E+03</pdfrwt>
<totfact> 0.16281130E+02</totfact>
</mgrwt>
</event>
<event>
 4    1  0.4880711E-008  0.3657472E+03  0.7818608E-02  0.1056331E+00
          2   -1    0    0  501    0  0.00000000000E+00  0.00000000000E+00  0.23254697393E+04  0.23254697393E+04  0.25500000000E-02 0. -1.
         -2   -1    0    0    0  501 -0.00000000000E+00 -0.00000000000E+00 -0.10627966298E+03  0.10627966301E+03  0.25500000000E-02 0.  1.
    8880022    1    1    2    0    0  0.27360100497E+03 -0.18847249444E+03  0.19331164335E+04  0.19674120538E+04  0.15294330000E+03 0.  1.
    8880022    1    1    2    0    0 -0.27360100497E+03  0.18847249444E+03  0.28607364289E+03  0.46433734854E+03  0.15294330000E+03 0. -1.
<mgrwt>
<rscale>  0 0.36574724E+03</rscale>
<asrwt>0</asrwt>
<pdfrwt beam="1">  1        2 0.35776456E+00 0.36574724E+03</pdfrwt>
<pdfrwt beam="2">  1       -2 0.16350718E-01 0.36574724E+03</pdfrwt>
<totfact> 0.14509073E+02</totfact>
</mgrwt>
</event>
<event>
 4    1  0.4880711E-008  0.8036409E+03  0.7818608E-02  0.9554762E-01
          2   -1    0    0  501    0  0.00000000000E+00  0.00000000000E+00  0.10289862743E+04  0.10289862743E+04  0.25500000000E-02 0. -1.
         -2   -1    0    0    0  501 -0.00000000000E+00 -0.00000000000E+00 -0.77286558519E+03  0.77286558520E+03  0.25500000000E-02 0.  1.
    8880022    1    1    2    0    0  0.54751322089E+03  0.56804603392E+03  0.51858669318E+03  0.95643652955E+03  0.15294330000E+03 0.  0.
    8880022    1    1    2    0    0 -0.54751322089E+03 -0.56804603392E+03 -0.26246600412E+03  0.84541532990E+03  0.15294330000E+03 0.  0.
<mgrwt>
<rscale>  0 0.80364089E+03</rscale>
<asrwt>0</asrwt>
<pdfrwt beam="1">  1        2 0.15830558E+00 0.80364089E+03</pdfrwt>
<pdfrwt beam="2">  1       -2 0.11890240E+00 0.80364089E+03</pdfrwt>
<totfact> 0.13260414E+01</totfact>
</mgrwt>
</event>
<event>
 4    1  0.4880711E-008  0.1611077E+04  0.7818608E-02  0.8813772E-01
         -2   -1    0    0    0  501 -0.00000000000E+00  0.00000000000E+00  0.17237031982E+04  0.17237031982E+04  0.25500000000E-02 0.  1.
          2   -1    0    0  501    0  0.00000000000E+00 -0.00000000000E+00 -0.20160348230E+04  0.20160348230E+04  0.25500000000E-02 0. -1.
    8880022    1    1    2    0    0 -0.76921279005E+03  0.14072987929E+04 -0.10868479018E+04  0.19434011998E+04  0.15294330000E+03 0.  0.
    8880022    1    1    2    0    0  0.76921279005E+03 -0.14072987929E+04  0.79451627698E+03  0.17963368215E+04  0.15294330000E+03 0.  0.
<mgrwt>
<rscale>  0 0.16110772E+04</rscale>
<asrwt>0</asrwt>
<pdfrwt beam="1">  1        2 0.31015920E+00 0.16110772E+04</pdfrwt>
<pdfrwt beam="2">  1       -2 0.26518511E+00 0.16110772E+04</pdfrwt>
<totfact> 0.31442186E-01</totfact>
</mgrwt>
</event>
<event>
 4    1  0.4880711E-008  0.4780534E+03  0.7818608E-02  0.1019672E+00
         -2   -1    0    0    0  501 -0.00000000000E+00  0.00000000000E+00  0.54917738537E+03  0.54917738538E+03  0.25500000000E-02 0.  1.
          2   -1    0    0  501    0  0.00000000000E+00 -0.00000000000E+00 -0.51721983870E+03  0.51721983871E+03  0.25500000000E-02 0. -1.
    8880022    1    1    2    0    0 -0.34370941388E+03 -0.29496988501E+03  0.25169107318E+03  0.54026238402E+03  0.15294330000E+03 0.  0.
    8880022    1    1    2    0    0  0.34370941388E+03  0.29496988501E+03 -0.21973352650E+03  0.52613484007E+03  0.15294330000E+03 0.  0.
<mgrwt>
<rscale>  0 0.47805339E+03</rscale>
<asrwt>0</asrwt>
<pdfrwt beam="1">  1        2 0.79572283E-01 0.47805339E+03</pdfrwt>
<pdfrwt beam="2">  1       -2 0.84488829E-01 0.47805339E+03</pdfrwt>
<totfact> 0.74612073E+01</totfact>
</mgrwt>
</event>
<event>
 4    1  0.4880711E-008  0.9856016E+03  0.7818608E-02  0.9324479E-01
         -2   -1    0    0    0  501 -0.00000000000E+00  0.00000000000E+00  0.10828250406E+04  0.10828250406E+04  0.25500000000E-02 0.  1.
          2   -1    0    0  501    0  0.00000000000E+00 -0.00000000000E+00 -0.97187487739E+03  0.97187487739E+03  0.25500000000E-02 0. -1.
    8880022    1    1    2    0    0  0.53271301069E+03 -0.81500659368E+03 -0.22947518596E+03  0.10119631483E+04  0.15294330000E+03 0.  0.
    8880022    1    1    2    0    0 -0.53271301069E+03  0.81500659368E+03  0.34042534916E+03  0.10427367697E+04  0.15294330000E+03 0.  0.
<mgrwt>
<rscale>  0 0.98560162E+03</rscale>
<asrwt>0</asrwt>
<pdfrwt beam="1">  1        2 0.14951921E+00 0.98560162E+03</pdfrwt>
<pdfrwt beam="2">  1       -2 0.16658847E+00 0.98560162E+03</pdfrwt>
<totfact> 0.58789081E+00</totfact>
</mgrwt>
</event>
<event>
 4    1  0.4880711E-008  0.5760791E+03  0.7818608E-02  0.9956316E-01
         -2   -1    0    0    0  501 -0.00000000000E+00  0.00000000000E+00  0.41166429815E+03  0.41166429816E+03  0.25500000000E-02 0.  1.
          2   -1    0    0  501    0  0.00000000000E+00 -0.00000000000E+00 -0.23618032458E+04  0.23618032458E+04  0.25500000000E-02 0. -1.
    8880022    1    1    2    0    0  0.35555529486E+03 -0.42668010591E+03  0.15038075007E+03  0.59538349279E+03  0.15294330000E+03 0.  0.
    8880022    1    1    2    0    0 -0.35555529486E+03  0.42668010591E+03 -0.21005196978E+04  0.21780840512E+04  0.15294330000E+03 0.  0.
<mgrwt>
<rscale>  0 0.57607910E+03</rscale>
<asrwt>0</asrwt>
<pdfrwt beam="1">  1        2 0.36335434E+00 0.57607910E+03</pdfrwt>
<pdfrwt beam="2">  1       -2 0.63332970E-01 0.57607910E+03</pdfrwt>
<totfact> 0.10413393E+01</totfact>
</mgrwt>
</event>
<event>
 4    1  0.5126542E-008  0.6111684E+03  0.7818608E-02  0.9882502E-01
          2   -1    0    0  501    0  0.00000000000E+00  0.00000000000E+00  0.11875895368E+04  0.11875895368E+04  0.25500000000E-02 0. -1.
         -2   -1    0    0    0  501 -0.00000000000E+00 -0.00000000000E+00 -0.10680133895E+04  0.10680133895E+04  0.25500000000E-02 0.  1.
    8880022    1    1    2    0    0 -0.33602243177E+03 -0.48705655653E+03  0.10070771613E+04  0.11780200447E+04  0.15294330000E+03 0.  0.
    8880022    1    1    2    0    0  0.33602243177E+03  0.48705655653E+03 -0.88750101397E+03  0.10775828816E+04  0.15294330000E+03 0.  0.
<mgrwt>
<rscale>  0 0.61116840E+03</rscale>
<asrwt>0</asrwt>
<pdfrwt beam="1">  1        2 0.18270608E+00 0.61116840E+03</pdfrwt>
<pdfrwt beam="2">  1       -2 0.16430975E+00 0.61116840E+03</pdfrwt>
<totfact> 0.47170191E+00</totfact>
</mgrwt>
</event>
<event>
 4    1  0.4880711E-008  0.1478147E+04  0.7818608E-02  0.8899116E-01
         -2   -1    0    0    0  501 -0.00000000000E+00  0.00000000000E+00  0.17421619967E+04  0.17421619967E+04  0.25500000000E-02 0.  1.
          2   -1    0    0  501    0  0.00000000000E+00 -0.00000000000E+00 -0.15992216330E+04  0.15992216330E+04  0.25500000000E-02 0. -1.
    8880022    1    1    2    0    0  0.13742277617E+04  0.52251826809E+03 -0.70460096070E+03  0.16374924269E+04  0.15294330000E+03 0.  0.
    8880022    1    1    2    0    0 -0.13742277617E+04 -0.52251826809E+03  0.84754132438E+03  0.17038912028E+04  0.15294330000E+03 0.  0.
<mgrwt>
<rscale>  0 0.14781471E+04</rscale>
<asrwt>0</asrwt>
<pdfrwt beam="1">  1        2 0.24603410E+00 0.14781471E+04</pdfrwt>
<pdfrwt beam="2">  1       -2 0.26802492E+00 0.14781471E+04</pdfrwt>
<totfact> 0.52386726E-01</totfact>
</mgrwt>
</event>
<event>
 4    1  0.4880711E-008  0.3173778E+03  0.7818608E-02  0.1076862E+00
          2   -1    0    0  501    0  0.00000000000E+00  0.00000000000E+00  0.70251392209E+03  0.70251392209E+03  0.25500000000E-02 0. -1.
         -2   -1    0    0    0  501 -0.00000000000E+00 -0.00000000000E+00 -0.21374059952E+03  0.21374059954E+03  0.25500000000E-02 0.  1.
    8880022    1    1    2    0    0  0.19235258188E+03 -0.20084201312E+03 -0.18457032848E+02  0.31791405295E+03  0.15294330000E+03 0.  0.
    8880022    1    1    2    0    0 -0.19235258188E+03  0.20084201312E+03  0.50723035541E+03  0.59834046868E+03  0.15294330000E+03 0.  0.
<mgrwt>
<rscale>  0 0.31737782E+03</rscale>
<asrwt>0</asrwt>
<pdfrwt beam="1">  1        2 0.10807907E+00 0.31737782E+03</pdfrwt>
<pdfrwt beam="2">  1       -2 0.32883169E-01 0.31737782E+03</pdfrwt>
<totfact> 0.36182293E+02</totfact>
</mgrwt>
</event>
<event>
 4    1  0.4880711E-008  0.3813390E+03  0.7818608E-02  0.1050440E+00
         -2   -1    0    0    0  501 -0.00000000000E+00  0.00000000000E+00  0.27324676512E+03  0.27324676513E+03  0.25500000000E-02 0.  1.
          2   -1    0    0  501    0  0.00000000000E+00 -0.00000000000E+00 -0.32350470134E+04  0.32350470134E+04  0.25500000000E-02 0. -1.
    8880022    1    1    2    0    0 -0.34333678888E+03 -0.64402270433E+02  0.12248229959E+03  0.40052636587E+03  0.15294330000E+03 0.  1.
    8880022    1    1    2    0    0  0.34333678888E+03  0.64402270433E+02 -0.30842825478E+04  0.31077674126E+04  0.15294330000E+03 0.  0.
<mgrwt>
<rscale>  0 0.38133903E+03</rscale>
<asrwt>0</asrwt>
<pdfrwt beam="1">  1        2 0.49769951E+00 0.38133903E+03</pdfrwt>
<pdfrwt beam="2">  1       -2 0.42037966E-01 0.38133903E+03</pdfrwt>
<totfact> 0.78175342E+00</totfact>
</mgrwt>
</event>
<event>
 4    1  0.6590773E-008  0.6933598E+03  0.7818608E-02  0.9728656E-01
         -2   -1    0    0    0  501 -0.00000000000E+00  0.00000000000E+00  0.12492099555E+04  0.12492099555E+04  0.25500000000E-02 0.  1.
          2   -1    0    0  501    0  0.00000000000E+00 -0.00000000000E+00 -0.18834476861E+04  0.18834476861E+04  0.25500000000E-02 0. -1.
    8880022    1    1    2    0    0  0.20886043200E+02 -0.67595850165E+03 -0.17142910317E+04  0.18492002372E+04  0.15294330000E+03 0.  0.
    8880022    1    1    2    0    0 -0.20886043200E+02  0.67595850165E+03  0.10800533011E+04  0.12834574044E+04  0.15294330000E+03 0.  0.
<mgrwt>
<rscale>  0 0.69335977E+03</rscale>
<asrwt>0</asrwt>
<pdfrwt beam="1">  1        2 0.28976118E+00 0.69335977E+03</pdfrwt>
<pdfrwt beam="2">  1       -2 0.19218615E+00 0.69335977E+03</pdfrwt>
<totfact> 0.12225448E+00</totfact>
</mgrwt>
</event>
<event>
 4    1  0.4880711E-008  0.8473662E+03  0.7818608E-02  0.9493879E-01
         -2   -1    0    0    0  501 -0.00000000000E+00  0.00000000000E+00  0.21128841728E+04  0.21128841728E+04  0.25500000000E-02 0.  1.
          2   -1    0    0  501    0  0.00000000000E+00 -0.00000000000E+00 -0.49038366189E+03  0.49038366190E+03  0.25500000000E-02 0. -1.
    8880022    1    1    2    0    0  0.83330998255E+03  0.15242829894E+02  0.15324590200E+04  0.17511311121E+04  0.15294330000E+03 0.  0.
    8880022    1    1    2    0    0 -0.83330998255E+03 -0.15242829894E+02  0.90041490928E+02  0.85213672259E+03  0.15294330000E+03 0.  0.
<mgrwt>
<rscale>  0 0.84736623E+03</rscale>
<asrwt>0</asrwt>
<pdfrwt beam="1">  1        2 0.75443642E-01 0.84736623E+03</pdfrwt>
<pdfrwt beam="2">  1       -2 0.32505910E+00 0.84736623E+03</pdfrwt>
<totfact> 0.14481256E+00</totfact>
</mgrwt>
</event>
<event>
 4    1  0.4880711E-008  0.7352901E+03  0.7818608E-02  0.9658715E-01
          2   -1    0    0  501    0  0.00000000000E+00  0.00000000000E+00  0.88865089857E+03  0.88865089858E+03  0.25500000000E-02 0. -1.
         -2   -1    0    0    0  501 -0.00000000000E+00 -0.00000000000E+00 -0.17234376813E+04  0.17234376813E+04  0.25500000000E-02 0.  1.
    8880022    1    1    2    0    0  0.67606633707E+03  0.24534503416E+03  0.63312991109E+03  0.97031181341E+03  0.15294330000E+03 0.  1.
    8880022    1    1    2    0    0 -0.67606633707E+03 -0.24534503416E+03 -0.14679166938E+04  0.16417767665E+04  0.15294330000E+03 0.  0.
<mgrwt>
<rscale>  0 0.73529010E+03</rscale>
<asrwt>0</asrwt>
<pdfrwt beam="1">  1        2 0.13671552E+00 0.73529010E+03</pdfrwt>
<pdfrwt beam="2">  1       -2 0.26514426E+00 0.73529010E+03</pdfrwt>
<totfact> 0.16091036E+00</totfact>
</mgrwt>
</event>
<event>
 4    1  0.4880711E-008  0.2655981E+03  0.7818608E-02  0.1103826E+00
         -2   -1    0    0    0  501 -0.00000000000E+00  0.00000000000E+00  0.66033572550E+02  0.66033572599E+02  0.25500000000E-02 0.  1.
          2   -1    0    0  501    0  0.00000000000E+00 -0.00000000000E+00 -0.13827397232E+04  0.13827397233E+04  0.25500000000E-02 0. -1.
    8880022    1    1    2    0    0  0.17040706517E+03 -0.13458133799E+03 -0.31290514092E+03  0.41042902508E+03  0.15294330000E+03 0.  0.
    8880022    1    1    2    0    0 -0.17040706517E+03  0.13458133799E+03 -0.10038010098E+04  0.10383442708E+04  0.15294330000E+03 0.  0.
<mgrwt>
<rscale>  0 0.26559811E+03</rscale>
<asrwt>0</asrwt>
<pdfrwt beam="1">  1        2 0.21272917E+00 0.26559811E+03</pdfrwt>
<pdfrwt beam="2">  1       -2 0.10159012E-01 0.26559811E+03</pdfrwt>
<totfact> 0.10241073E+03</totfact>
</mgrwt>
</event>
<event>
 4    1  0.4880711E-008  0.5312526E+03  0.7818608E-02  0.1005929E+00
          2   -1    0    0  501    0  0.00000000000E+00  0.00000000000E+00  0.25729112245E+04  0.25729112245E+04  0.25500000000E-02 0. -1.
         -2   -1    0    0    0  501 -0.00000000000E+00 -0.00000000000E+00 -0.27140098775E+03  0.27140098776E+03  0.25500000000E-02 0.  1.
    8880022    1    1    2    0    0 -0.29476495927E+03  0.41467014056E+03  0.22485161552E+04  0.23104229612E+04  0.15294330000E+03 0.  0.
    8880022    1    1    2    0    0  0.29476495927E+03 -0.41467014056E+03  0.52994081591E+02  0.53388925104E+03  0.15294330000E+03 0.  0.
<mgrwt>
<rscale>  0 0.53125263E+03</rscale>
<asrwt>0</asrwt>
<pdfrwt beam="1">  1        2 0.39583250E+00 0.53125263E+03</pdfrwt>
<pdfrwt beam="2">  1       -2 0.41753998E-01 0.53125263E+03</pdfrwt>
<totfact> 0.18733755E+01</totfact>
</mgrwt>
</event>
<event>
 4    1  0.4880711E-008  0.4134017E+03  0.7818608E-02  0.1039235E+00
          2   -1    0    0  501    0  0.00000000000E+00  0.00000000000E+00  0.25865797401E+04  0.25865797401E+04  0.25500000000E-02 0. -1.
         -2   -1    0    0    0  501 -0.00000000000E+00 -0.00000000000E+00 -0.15179989755E+03  0.15179989757E+03  0.25500000000E-02 0.  1.
    8880022    1    1    2    0    0  0.34963763669E+03 -0.15894275428E+03  0.22463264481E+04  0.22840497894E+04  0.15294330000E+03 0.  0.
    8880022    1    1    2    0    0 -0.34963763669E+03  0.15894275428E+03  0.18845339448E+03  0.45432984828E+03  0.15294330000E+03 0.  0.
<mgrwt>
<rscale>  0 0.41340166E+03</rscale>
<asrwt>0</asrwt>
<pdfrwt beam="1">  1        2 0.39793532E+00 0.41340166E+03</pdfrwt>
<pdfrwt beam="2">  1       -2 0.23353832E-01 0.41340166E+03</pdfrwt>
<totfact> 0.55642650E+01</totfact>
</mgrwt>
</event>
<event>
 4    1  0.4880711E-008  0.4191686E+03  0.7818608E-02  0.1037337E+00
          2   -1    0    0  501    0  0.00000000000E+00  0.00000000000E+00  0.22786477440E+04  0.22786477440E+04  0.25500000000E-02 0. -1.
         -2   -1    0    0    0  501 -0.00000000000E+00 -0.00000000000E+00 -0.10508702694E+03  0.10508702697E+03  0.25500000000E-02 0.  1.
    8880022    1    1    2    0    0 -0.37152364321E+03 -0.11950251917E+03  0.47178974621E+03  0.63110053652E+03  0.15294330000E+03 0.  0.
    8880022    1    1    2    0    0  0.37152364321E+03  0.11950251917E+03  0.17017709709E+04  0.17526342345E+04  0.15294330000E+03 0.  0.
<mgrwt>
<rscale>  0 0.41916861E+03</rscale>
<asrwt>0</asrwt>
<pdfrwt beam="1">  1        2 0.35056118E+00 0.41916861E+03</pdfrwt>
<pdfrwt beam="2">  1       -2 0.16167235E-01 0.41916861E+03</pdfrwt>
<totfact> 0.15513058E+02</totfact>
</mgrwt>
</event>
<event>
 4    1  0.7785451E-008  0.1056229E+04  0.7818608E-02  0.9248937E-01
         -2   -1    0    0    0  501 -0.00000000000E+00  0.00000000000E+00  0.17732088527E+04  0.17732088527E+04  0.25500000000E-02 0.  1.
          2   -1    0    0  501    0  0.00000000000E+00 -0.00000000000E+00 -0.22493713817E+04  0.22493713817E+04  0.25500000000E-02 0. -1.
    8880022    1    1    2    0    0 -0.14128078975E+03 -0.10355032749E+04  0.14689087046E+04  0.18092295955E+04  0.15294330000E+03 0.  0.
    8880022    1    1    2    0    0  0.14128078975E+03  0.10355032749E+04 -0.19450712336E+04  0.22133506389E+04  0.15294330000E+03 0.  0.
<mgrwt>
<rscale>  0 0.10562286E+04</rscale>
<asrwt>0</asrwt>
<pdfrwt beam="1">  1        2 0.34605714E+00 0.10562286E+04</pdfrwt>
<pdfrwt beam="2">  1       -2 0.27280136E+00 0.10562286E+04</pdfrwt>
<totfact> 0.22559626E-01</totfact>
</mgrwt>
</event>
<event>
 4    1  0.4880711E-008  0.4458084E+03  0.7818608E-02  0.1028979E+00
         -2   -1    0    0    0  501 -0.00000000000E+00  0.00000000000E+00  0.20790694116E+03  0.20790694117E+03  0.25500000000E-02 0.  1.
          2   -1    0    0  501    0  0.00000000000E+00 -0.00000000000E+00 -0.20372531882E+04  0.20372531882E+04  0.25500000000E-02 0. -1.
    8880022    1    1    2    0    0 -0.40922010182E+03  0.88838998424E+02 -0.17325199484E+04  0.17889579325E+04  0.15294330000E+03 0.  0.
    8880022    1    1    2    0    0  0.40922010182E+03 -0.88838998424E+02 -0.96826298641E+02  0.45620219695E+03  0.15294330000E+03 0.  0.
<mgrwt>
<rscale>  0 0.44580838E+03</rscale>
<asrwt>0</asrwt>
<pdfrwt beam="1">  1        2 0.31342355E+00 0.44580838E+03</pdfrwt>
<pdfrwt beam="2">  1       -2 0.31985685E-01 0.44580838E+03</pdfrwt>
<totfact> 0.62421846E+01</totfact>
</mgrwt>
</event>
<event>
 4    1  0.4880711E-008  0.1854988E+03  0.7818608E-02  0.1162585E+00
          2   -1    0    0  501    0  0.00000000000E+00  0.00000000000E+00  0.96129099224E+03  0.96129099225E+03  0.25500000000E-02 0. -1.
         -2   -1    0    0    0  501 -0.00000000000E+00 -0.00000000000E+00 -0.24388752459E+03  0.24388752461E+03  0.25500000000E-02 0.  1.
    8880022    1    1    2    0    0  0.28222783029E+02 -0.10110207194E+03  0.91531608843E+03  0.93392363135E+03  0.15294330000E+03 0. -1.
    8880022    1    1    2    0    0 -0.28222783029E+02  0.10110207194E+03 -0.19791262078E+03  0.27125488551E+03  0.15294330000E+03 0.  0.
<mgrwt>
<rscale>  0 0.18549881E+03</rscale>
<asrwt>0</asrwt>
<pdfrwt beam="1">  1        2 0.14789092E+00 0.18549881E+03</pdfrwt>
<pdfrwt beam="2">  1       -2 0.37521159E-01 0.18549881E+03</pdfrwt>
<totfact> 0.19175306E+02</totfact>
</mgrwt>
</event>
<event>
 4    1  0.4880711E-008  0.2889122E+03  0.7818608E-02  0.1090918E+00
         -2   -1    0    0    0  501 -0.00000000000E+00  0.00000000000E+00  0.92547436796E+02  0.92547436831E+02  0.25500000000E-02 0.  1.
          2   -1    0    0  501    0  0.00000000000E+00 -0.00000000000E+00 -0.23597405758E+04  0.23597405758E+04  0.25500000000E-02 0. -1.
    8880022    1    1    2    0    0 -0.70816040036E+02  0.23465655865E+03 -0.20973403292E+04  0.21171458905E+04  0.15294330000E+03 0.  0.
    8880022    1    1    2    0    0  0.70816040036E+02 -0.23465655865E+03 -0.16985280984E+03  0.33514212220E+03  0.15294330000E+03 0.  0.
<mgrwt>
<rscale>  0 0.28891221E+03</rscale>
<asrwt>0</asrwt>
<pdfrwt beam="1">  1        2 0.36303697E+00 0.28891221E+03</pdfrwt>
<pdfrwt beam="2">  1       -2 0.14238069E-01 0.28891221E+03</pdfrwt>
<totfact> 0.17836721E+02</totfact>
</mgrwt>
</event>
<event>
 4    1  0.4880711E-008  0.5746680E+03  0.7818608E-02  0.9959402E-01
         -2   -1    0    0    0  501 -0.00000000000E+00  0.00000000000E+00  0.41275677610E+04  0.41275677610E+04  0.25500000000E-02 0.  1.
          2   -1    0    0  501    0  0.00000000000E+00 -0.00000000000E+00 -0.32725123081E+03  0.32725123082E+03  0.25500000000E-02 0. -1.
    8880022    1    1    2    0    0 -0.47718865582E+03  0.28132299373E+03 -0.35909682841E+02  0.57578884878E+03  0.15294330000E+03 0.  0.
    8880022    1    1    2    0    0  0.47718865582E+03 -0.28132299373E+03  0.38362262130E+04  0.38790301430E+04  0.15294330000E+03 0.  1.
<mgrwt>
<rscale>  0 0.57466799E+03</rscale>
<asrwt>0</asrwt>
<pdfrwt beam="1">  1        2 0.50346343E-01 0.57466799E+03</pdfrwt>
<pdfrwt beam="2">  1       -2 0.63501042E+00 0.57466799E+03</pdfrwt>
<totfact> 0.39965124E-02</totfact>
</mgrwt>
</event>
<event>
 4    1  0.4880711E-008  0.2206328E+03  0.7818608E-02  0.1133412E+00
         -2   -1    0    0    0  501 -0.00000000000E+00  0.00000000000E+00  0.84771501173E+02  0.84771501212E+02  0.25500000000E-02 0.  1.
          2   -1    0    0  501    0  0.00000000000E+00 -0.00000000000E+00 -0.24940678683E+04  0.24940678683E+04  0.25500000000E-02 0. -1.
    8880022    1    1    2    0    0 -0.15086594180E+03  0.50265611186E+02 -0.23359325918E+04  0.23463290244E+04  0.15294330000E+03 0.  0.
    8880022    1    1    2    0    0  0.15086594180E+03 -0.50265611186E+02 -0.73363775325E+02  0.23251034516E+03  0.15294330000E+03 0.  1.
<mgrwt>
<rscale>  0 0.22063277E+03</rscale>
<asrwt>0</asrwt>
<pdfrwt beam="1">  1        2 0.38370269E+00 0.22063277E+03</pdfrwt>
<pdfrwt beam="2">  1       -2 0.13041771E-01 0.22063277E+03</pdfrwt>
<totfact> 0.17789000E+02</totfact>
</mgrwt>
</event>
<event>
 4    1  0.4880711E-008  0.5899478E+03  0.7818608E-02  0.9926483E-01
         -2   -1    0    0    0  501 -0.00000000000E+00  0.00000000000E+00  0.19600520487E+03  0.19600520489E+03  0.25500000000E-02 0.  1.
          2   -1    0    0  501    0  0.00000000000E+00 -0.00000000000E+00 -0.21314948890E+04  0.21314948890E+04  0.25500000000E-02 0. -1.
    8880022    1    1    2    0    0  0.44652647982E+03  0.35392216050E+03 -0.14432358561E+04  0.15591562404E+04  0.15294330000E+03 0.  0.
    8880022    1    1    2    0    0 -0.44652647982E+03 -0.35392216050E+03 -0.49225382807E+03  0.76834385345E+03  0.15294330000E+03 0.  0.
<mgrwt>
<rscale>  0 0.58994783E+03</rscale>
<asrwt>0</asrwt>
<pdfrwt beam="1">  1        2 0.32792227E+00 0.58994783E+03</pdfrwt>
<pdfrwt beam="2">  1       -2 0.30154648E-01 0.58994783E+03</pdfrwt>
<totfact> 0.60385014E+01</totfact>
</mgrwt>
</event>
<event>
 4    1  0.6166146E-008  0.9191600E+03  0.7818608E-02  0.9401942E-01
         -2   -1    0    0    0  501 -0.00000000000E+00  0.00000000000E+00  0.14204432390E+04  0.14204432390E+04  0.25500000000E-02 0.  1.
          2   -1    0    0  501    0  0.00000000000E+00 -0.00000000000E+00 -0.22084817146E+04  0.22084817146E+04  0.25500000000E-02 0. -1.
    8880022    1    1    2    0    0  0.66371974980E+03  0.61720298038E+03  0.11569827454E+04  0.14776549500E+04  0.15294330000E+03 0.  0.
    8880022    1    1    2    0    0 -0.66371974980E+03 -0.61720298038E+03 -0.19450212210E+04  0.21512700036E+04  0.15294330000E+03 0.  0.
<mgrwt>
<rscale>  0 0.91915999E+03</rscale>
<asrwt>0</asrwt>
<pdfrwt beam="1">  1        2 0.33976642E+00 0.91915999E+03</pdfrwt>
<pdfrwt beam="2">  1       -2 0.21852973E+00 0.91915999E+03</pdfrwt>
<totfact> 0.52464381E-01</totfact>
</mgrwt>
</event>
<event>
 4    1  0.4880711E-008  0.5427489E+03  0.7818608E-02  0.1003186E+00
          2   -1    0    0  501    0  0.00000000000E+00  0.00000000000E+00  0.29571708520E+04  0.29571708520E+04  0.25500000000E-02 0. -1.
         -2   -1    0    0    0  501 -0.00000000000E+00 -0.00000000000E+00 -0.40884263289E+03  0.40884263290E+03  0.25500000000E-02 0.  1.
    8880022    1    1    2    0    0 -0.20400248268E+03 -0.47913219277E+03 -0.18952031021E+03  0.57488631231E+03  0.15294330000E+03 0.  0.
    8880022    1    1    2    0    0  0.20400248268E+03  0.47913219277E+03  0.27378485293E+04  0.27911271726E+04  0.15294330000E+03 0. -1.
<mgrwt>
<rscale>  0 0.54274886E+03</rscale>
<asrwt>0</asrwt>
<pdfrwt beam="1">  1        2 0.45494936E+00 0.54274886E+03</pdfrwt>
<pdfrwt beam="2">  1       -2 0.62898866E-01 0.54274886E+03</pdfrwt>
<totfact> 0.48438527E+00</totfact>
</mgrwt>
</event>
<event>
 4    1  0.4880711E-008  0.8176446E+03  0.7818608E-02  0.9534823E-01
         -2   -1    0    0    0  501 -0.00000000000E+00  0.00000000000E+00  0.66938765694E+03  0.66938765695E+03  0.25500000000E-02 0.  1.
          2   -1    0    0  501    0  0.00000000000E+00 -0.00000000000E+00 -0.19743970976E+04  0.19743970976E+04  0.25500000000E-02 0. -1.
    8880022    1    1    2    0    0  0.79935248848E+03  0.78655364943E+02  0.27673539887E+03  0.86320634919E+03  0.15294330000E+03 0.  0.
    8880022    1    1    2    0    0 -0.79935248848E+03 -0.78655364943E+02 -0.15817448396E+04  0.17805784054E+04  0.15294330000E+03 0.  0.
<mgrwt>
<rscale>  0 0.81764462E+03</rscale>
<asrwt>0</asrwt>
<pdfrwt beam="1">  1        2 0.30375340E+00 0.81764462E+03</pdfrwt>
<pdfrwt beam="2">  1       -2 0.10298272E+00 0.81764462E+03</pdfrwt>
<totfact> 0.54472991E+00</totfact>
</mgrwt>
</event>
<event>
 4    1  0.4880711E-008  0.9206751E+03  0.7818608E-02  0.9400099E-01
          2   -1    0    0  501    0  0.00000000000E+00  0.00000000000E+00  0.18244182650E+04  0.18244182650E+04  0.25500000000E-02 0. -1.
         -2   -1    0    0    0  501 -0.00000000000E+00 -0.00000000000E+00 -0.68877631774E+03  0.68877631774E+03  0.25500000000E-02 0.  1.
    8880022    1    1    2    0    0  0.56666417069E+03 -0.70932553627E+03  0.12846942055E+04  0.15805321425E+04  0.15294330000E+03 0.  0.
    8880022    1    1    2    0    0 -0.56666417069E+03  0.70932553627E+03 -0.14905225825E+03  0.93266244025E+03  0.15294330000E+03 0.  0.
<mgrwt>
<rscale>  0 0.92067511E+03</rscale>
<asrwt>0</asrwt>
<pdfrwt beam="1">  1        2 0.28067973E+00 0.92067511E+03</pdfrwt>
<pdfrwt beam="2">  1       -2 0.10596559E+00 0.92067511E+03</pdfrwt>
<totfact> 0.60591466E+00</totfact>
</mgrwt>
</event>
<event>
 4    1  0.4880711E-008  0.7021182E+03  0.7818608E-02  0.9713617E-01
         -2   -1    0    0    0  501 -0.00000000000E+00  0.00000000000E+00  0.29239825955E+03  0.29239825956E+03  0.25500000000E-02 0.  1.
          2   -1    0    0  501    0  0.00000000000E+00 -0.00000000000E+00 -0.20068616983E+04  0.20068616983E+04  0.25500000000E-02 0. -1.
    8880022    1    1    2    0    0  0.30847190194E+03  0.61190151024E+03 -0.13169474897E+04  0.14924210921E+04  0.15294330000E+03 0.  0.
    8880022    1    1    2    0    0 -0.30847190194E+03 -0.61190151024E+03 -0.39751594905E+03  0.80683886575E+03  0.15294330000E+03 0.  0.
<mgrwt>
<rscale>  0 0.70211824E+03</rscale>
<asrwt>0</asrwt>
<pdfrwt beam="1">  1        2 0.30874795E+00 0.70211824E+03</pdfrwt>
<pdfrwt beam="2">  1       -2 0.44984349E-01 0.70211824E+03</pdfrwt>
<totfact> 0.32247208E+01</totfact>
</mgrwt>
</event>
<event>
 4    1  0.4880711E-008  0.5050889E+03  0.7818608E-02  0.1012459E+00
          2   -1    0    0  501    0  0.00000000000E+00  0.00000000000E+00  0.59254234479E+03  0.59254234480E+03  0.25500000000E-02 0. -1.
         -2   -1    0    0    0  501 -0.00000000000E+00 -0.00000000000E+00 -0.10882127705E+04  0.10882127705E+04  0.25500000000E-02 0.  1.
    8880022    1    1    2    0    0  0.44854689358E+03 -0.17472490339E+03 -0.90114864502E+03  0.10330458078E+04  0.15294330000E+03 0.  0.
    8880022    1    1    2    0    0 -0.44854689358E+03  0.17472490339E+03  0.40547821934E+03  0.64770930746E+03  0.15294330000E+03 0. -1.
<mgrwt>
<rscale>  0 0.50508886E+03</rscale>
<asrwt>0</asrwt>
<pdfrwt beam="1">  1        2 0.91160361E-01 0.50508886E+03</pdfrwt>
<pdfrwt beam="2">  1       -2 0.16741735E+00 0.50508886E+03</pdfrwt>
<totfact> 0.11732701E+01</totfact>
</mgrwt>
</event>
<event>
 4    1  0.4880711E-008  0.4916033E+03  0.7818608E-02  0.1015994E+00
          2   -1    0    0  501    0  0.00000000000E+00  0.00000000000E+00  0.14594353575E+04  0.14594353575E+04  0.25500000000E-02 0. -1.
         -2   -1    0    0    0  501 -0.00000000000E+00 -0.00000000000E+00 -0.35816331997E+03  0.35816331998E+03  0.25500000000E-02 0.  1.
    8880022    1    1    2    0    0 -0.44580081609E+03 -0.13979904646E+03 -0.11574244719E+03  0.50504465953E+03  0.15294330000E+03 0.  0.
    8880022    1    1    2    0    0  0.44580081609E+03  0.13979904646E+03  0.12170144847E+04  0.13125540179E+04  0.15294330000E+03 0.  0.
<mgrwt>
<rscale>  0 0.49160329E+03</rscale>
<asrwt>0</asrwt>
<pdfrwt beam="1">  1        2 0.22452851E+00 0.49160329E+03</pdfrwt>
<pdfrwt beam="2">  1       -2 0.55102050E-01 0.49160329E+03</pdfrwt>
<totfact> 0.43806772E+01</totfact>
</mgrwt>
</event>
<event>
 4    1  0.4880711E-008  0.1150896E+04  0.7818608E-02  0.9156957E-01
          2   -1    0    0  501    0  0.00000000000E+00  0.00000000000E+00  0.24307880694E+04  0.24307880694E+04  0.25500000000E-02 0. -1.
         -2   -1    0    0    0  501 -0.00000000000E+00 -0.00000000000E+00 -0.76424073512E+03  0.76424073512E+03  0.25500000000E-02 0.  1.
    8880022    1    1    2    0    0 -0.98216237838E+03 -0.58010917263E+03 -0.22540020112E+02  0.11511165428E+04  0.15294330000E+03 0.  0.
    8880022    1    1    2    0    0  0.98216237838E+03  0.58010917263E+03  0.16890873544E+04  0.20439122617E+04  0.15294330000E+03 0.  0.
<mgrwt>
<rscale>  0 0.11508958E+04</rscale>
<asrwt>0</asrwt>
<pdfrwt beam="1">  1        2 0.37396739E+00 0.11508958E+04</pdfrwt>
<pdfrwt beam="2">  1       -2 0.11757550E+00 0.11508958E+04</pdfrwt>
<totfact> 0.21021115E+00</totfact>
</mgrwt>
</event>
<event>
 4    1  0.4880711E-008  0.2485920E+03  0.7818608E-02  0.1114198E+00
         -2   -1    0    0    0  501 -0.00000000000E+00  0.00000000000E+00  0.52095458554E+02  0.52095458616E+02  0.25500000000E-02 0.  1.
          2   -1    0    0  501    0  0.00000000000E+00 -0.00000000000E+00 -0.29607503288E+04  0.29607503288E+04  0.25500000000E-02 0. -1.
    8880022    1    1    2    0    0 -0.16729683633E+03 -0.10206912545E+03 -0.28809628792E+03  0.38052261686E+03  0.15294330000E+03 0.  0.
    8880022    1    1    2    0    0  0.16729683633E+03  0.10206912545E+03 -0.26205585823E+04  0.26323231706E+04  0.15294330000E+03 0.  0.
<mgrwt>
<rscale>  0 0.24859202E+03</rscale>
<asrwt>0</asrwt>
<pdfrwt beam="1">  1        2 0.45549992E+00 0.24859202E+03</pdfrwt>
<pdfrwt beam="2">  1       -2 0.80146883E-02 0.24859202E+03</pdfrwt>
<totfact> 0.20902331E+02</totfact>
</mgrwt>
</event>
<event>
 4    1  0.4880711E-008  0.6875758E+03  0.7818608E-02  0.9738718E-01
          2   -1    0    0  501    0  0.00000000000E+00  0.00000000000E+00  0.11431672911E+04  0.11431672911E+04  0.25500000000E-02 0. -1.
         -2   -1    0    0    0  501 -0.00000000000E+00 -0.00000000000E+00 -0.49203501251E+03  0.49203501252E+03  0.25500000000E-02 0.  1.
    8880022    1    1    2    0    0 -0.55175046460E+02  0.66807524177E+03  0.65209987798E+03  0.94762583243E+03  0.15294330000E+03 0.  0.
    8880022    1    1    2    0    0  0.55175046460E+02 -0.66807524177E+03 -0.96759943027E+00  0.68757647115E+03  0.15294330000E+03 0.  0.
<mgrwt>
<rscale>  0 0.68757579E+03</rscale>
<asrwt>0</asrwt>
<pdfrwt beam="1">  1        2 0.17587189E+00 0.68757579E+03</pdfrwt>
<pdfrwt beam="2">  1       -2 0.75697695E-01 0.68757579E+03</pdfrwt>
<totfact> 0.32849278E+01</totfact>
</mgrwt>
</event>
<event>
 4    1  0.4880711E-008  0.7078469E+03  0.7818608E-02  0.9703906E-01
         -2   -1    0    0    0  501 -0.00000000000E+00  0.00000000000E+00  0.34896657487E+03  0.34896657487E+03  0.25500000000E-02 0.  1.
          2   -1    0    0  501    0  0.00000000000E+00 -0.00000000000E+00 -0.17156168736E+04  0.17156168736E+04  0.25500000000E-02 0. -1.
    8880022    1    1    2    0    0  0.56513127425E+03 -0.39784699295E+03 -0.26642989960E+03  0.75632805802E+03  0.15294330000E+03 0.  0.
    8880022    1    1    2    0    0 -0.56513127425E+03  0.39784699295E+03 -0.11002203991E+04  0.13082553904E+04  0.15294330000E+03 0.  0.
<mgrwt>
<rscale>  0 0.70784690E+03</rscale>
<asrwt>0</asrwt>
<pdfrwt beam="1">  1        2 0.26394105E+00 0.70784690E+03</pdfrwt>
<pdfrwt beam="2">  1       -2 0.53687166E-01 0.70784690E+03</pdfrwt>
<totfact> 0.32433955E+01</totfact>
</mgrwt>
</event>
<event>
 4    1  0.4880711E-008  0.2144654E+03  0.7818608E-02  0.1138078E+00
          2   -1    0    0  501    0  0.00000000000E+00  0.00000000000E+00  0.35184999636E+03  0.35184999637E+03  0.25500000000E-02 0. -1.
         -2   -1    0    0    0  501 -0.00000000000E+00 -0.00000000000E+00 -0.10914565616E+04  0.10914565616E+04  0.25500000000E-02 0.  1.
    8880022    1    1    2    0    0 -0.14590523084E+03  0.36268550279E+02 -0.10468622815E+04  0.10686047134E+04  0.15294330000E+03 0.  0.
    8880022    1    1    2    0    0  0.14590523084E+03 -0.36268550279E+02  0.30725571625E+03  0.37470184455E+03  0.15294330000E+03 0. -1.
<mgrwt>
<rscale>  0 0.21446538E+03</rscale>
<asrwt>0</asrwt>
<pdfrwt beam="1">  1        2 0.54130769E-01 0.21446538E+03</pdfrwt>
<pdfrwt beam="2">  1       -2 0.16791639E+00 0.21446538E+03</pdfrwt>
<totfact> 0.22150962E+01</totfact>
</mgrwt>
</event>
<event>
 4    1  0.4880711E-008  0.5408318E+03  0.7818608E-02  0.1003639E+00
         -2   -1    0    0    0  501 -0.00000000000E+00  0.00000000000E+00  0.11980532657E+04  0.11980532657E+04  0.25500000000E-02 0.  1.
          2   -1    0    0  501    0  0.00000000000E+00 -0.00000000000E+00 -0.39362017730E+03  0.39362017731E+03  0.25500000000E-02 0. -1.
    8880022    1    1    2    0    0 -0.29824603143E+03 -0.42444871319E+03  0.89263795218E+03  0.10436961110E+04  0.15294330000E+03 0.  0.
    8880022    1    1    2    0    0  0.29824603143E+03  0.42444871319E+03 -0.88204863789E+02  0.54797733202E+03  0.15294330000E+03 0.  0.
<mgrwt>
<rscale>  0 0.54083182E+03</rscale>
<asrwt>0</asrwt>
<pdfrwt beam="1">  1        2 0.60556951E-01 0.54083182E+03</pdfrwt>
<pdfrwt beam="2">  1       -2 0.18431589E+00 0.54083182E+03</pdfrwt>
<totfact> 0.14260521E+01</totfact>
</mgrwt>
</event>
<event>
 4    1  0.4880711E-008  0.1237513E+04  0.7818608E-02  0.9080641E-01
         -2   -1    0    0    0  501 -0.00000000000E+00  0.00000000000E+00  0.10818175528E+04  0.10818175528E+04  0.25500000000E-02 0.  1.
          2   -1    0    0  501    0  0.00000000000E+00 -0.00000000000E+00 -0.18237250271E+04  0.18237250271E+04  0.25500000000E-02 0. -1.
    8880022    1    1    2    0    0  0.61624767521E+03  0.10622076856E+04 -0.10581895420E+04  0.16282515544E+04  0.15294330000E+03 0.  0.
    8880022    1    1    2    0    0 -0.61624767521E+03 -0.10622076856E+04  0.31628206757E+03  0.12772910255E+04  0.15294330000E+03 0.  0.
<mgrwt>
<rscale>  0 0.12375128E+04</rscale>
<asrwt>0</asrwt>
<pdfrwt beam="1">  1        2 0.28057308E+00 0.12375128E+04</pdfrwt>
<pdfrwt beam="2">  1       -2 0.16643347E+00 0.12375128E+04</pdfrwt>
<totfact> 0.18307040E+00</totfact>
</mgrwt>
</event>
<event>
 4    1  0.4880711E-008  0.4332099E+03  0.7818608E-02  0.1032851E+00
          2   -1    0    0  501    0  0.00000000000E+00  0.00000000000E+00  0.10422665392E+04  0.10422665392E+04  0.25500000000E-02 0. -1.
         -2   -1    0    0    0  501 -0.00000000000E+00 -0.00000000000E+00 -0.42642891208E+03  0.42642891208E+03  0.25500000000E-02 0.  1.
    8880022    1    1    2    0    0 -0.31779553684E+03  0.25156533776E+03 -0.25025719268E+03  0.50029934829E+03  0.15294330000E+03 0.  0.
    8880022    1    1    2    0    0  0.31779553684E+03 -0.25156533776E+03  0.86609481984E+03  0.96839610304E+03  0.15294330000E+03 0.  0.
<mgrwt>
<rscale>  0 0.43320985E+03</rscale>
<asrwt>0</asrwt>
<pdfrwt beam="1">  1        2 0.16034870E+00 0.43320985E+03</pdfrwt>
<pdfrwt beam="2">  1       -2 0.65604448E-01 0.43320985E+03</pdfrwt>
<totfact> 0.53359188E+01</totfact>
</mgrwt>
</event>
<event>
 4    1  0.4880711E-008  0.8837942E+03  0.7818608E-02  0.9446069E-01
         -2   -1    0    0    0  501 -0.00000000000E+00  0.00000000000E+00  0.76235897840E+03  0.76235897840E+03  0.25500000000E-02 0.  1.
          2   -1    0    0  501    0  0.00000000000E+00 -0.00000000000E+00 -0.19158762371E+04  0.19158762371E+04  0.25500000000E-02 0. -1.
    8880022    1    1    2    0    0 -0.17554092081E+03  0.85257609242E+03  0.33661357176E+03  0.94572773986E+03  0.15294330000E+03 0.  0.
    8880022    1    1    2    0    0  0.17554092081E+03 -0.85257609242E+03 -0.14901308304E+04  0.17325074756E+04  0.15294330000E+03 0.  0.
<mgrwt>
<rscale>  0 0.88379424E+03</rscale>
<asrwt>0</asrwt>
<pdfrwt beam="1">  1        2 0.29475019E+00 0.88379424E+03</pdfrwt>
<pdfrwt beam="2">  1       -2 0.11728600E+00 0.88379424E+03</pdfrwt>
<totfact> 0.42370543E+00</totfact>
</mgrwt>
</event>
<event>
 4    1  0.4880711E-008  0.5181842E+03  0.7818608E-02  0.1009139E+00
         -2   -1    0    0    0  501 -0.00000000000E+00  0.00000000000E+00  0.46714570740E+03  0.46714570741E+03  0.25500000000E-02 0.  1.
          2   -1    0    0  501    0  0.00000000000E+00 -0.00000000000E+00 -0.77294316393E+03  0.77294316393E+03  0.25500000000E-02 0. -1.
    8880022    1    1    2    0    0  0.84299995405E+02  0.48786958906E+03 -0.46683369713E+03  0.69745865752E+03  0.15294330000E+03 0.  0.
    8880022    1    1    2    0    0 -0.84299995405E+02 -0.48786958906E+03  0.16103624060E+03  0.54263021382E+03  0.15294330000E+03 0.  0.
<mgrwt>
<rscale>  0 0.51818421E+03</rscale>
<asrwt>0</asrwt>
<pdfrwt beam="1">  1        2 0.11891433E+00 0.51818421E+03</pdfrwt>
<pdfrwt beam="2">  1       -2 0.71868571E-01 0.51818421E+03</pdfrwt>
<totfact> 0.65395013E+01</totfact>
</mgrwt>
</event>
<event>
 4    1  0.4880711E-008  0.4454708E+03  0.7818608E-02  0.1029081E+00
         -2   -1    0    0    0  501 -0.00000000000E+00  0.00000000000E+00  0.11822983183E+03  0.11822983186E+03  0.25500000000E-02 0.  1.
          2   -1    0    0  501    0  0.00000000000E+00 -0.00000000000E+00 -0.39372161445E+04  0.39372161445E+04  0.25500000000E-02 0. -1.
    8880022    1    1    2    0    0 -0.20607257556E+03 -0.36412454803E+03 -0.34453421062E+04  0.34740216572E+04  0.15294330000E+03 0.  0.
    8880022    1    1    2    0    0  0.20607257556E+03  0.36412454803E+03 -0.37364420645E+03  0.58142431916E+03  0.15294330000E+03 0.  0.
<mgrwt>
<rscale>  0 0.44547081E+03</rscale>
<asrwt>0</asrwt>
<pdfrwt beam="1">  1        2 0.60572546E+00 0.44547081E+03</pdfrwt>
<pdfrwt beam="2">  1       -2 0.18189208E-01 0.44547081E+03</pdfrwt>
<totfact> 0.11502707E+01</totfact>
</mgrwt>
</event>
<event>
 4    1  0.4880711E-008  0.7524684E+03  0.7818608E-02  0.9631486E-01
         -2   -1    0    0    0  501 -0.00000000000E+00  0.00000000000E+00  0.69479284506E+03  0.69479284506E+03  0.25500000000E-02 0.  1.
          2   -1    0    0  501    0  0.00000000000E+00 -0.00000000000E+00 -0.10373151227E+04  0.10373151227E+04  0.25500000000E-02 0. -1.
    8880022    1    1    2    0    0 -0.73552684890E+03 -0.42629965536E+02  0.22973557809E+03  0.78675736302E+03  0.15294330000E+03 0.  0.
    8880022    1    1    2    0    0  0.73552684890E+03  0.42629965536E+02 -0.57225785569E+03  0.94535060471E+03  0.15294330000E+03 0.  0.
<mgrwt>
<rscale>  0 0.75246841E+03</rscale>
<asrwt>0</asrwt>
<pdfrwt beam="1">  1        2 0.15958694E+00 0.75246841E+03</pdfrwt>
<pdfrwt beam="2">  1       -2 0.10689121E+00 0.75246841E+03</pdfrwt>
<totfact> 0.17073256E+01</totfact>
</mgrwt>
</event>
<event>
 4    1  0.4880711E-008  0.5493615E+03  0.7818608E-02  0.1001642E+00
         -2   -1    0    0    0  501 -0.00000000000E+00  0.00000000000E+00  0.39513046592E+03  0.39513046593E+03  0.25500000000E-02 0.  1.
          2   -1    0    0  501    0  0.00000000000E+00 -0.00000000000E+00 -0.14829628694E+04  0.14829628694E+04  0.25500000000E-02 0. -1.
    8880022    1    1    2    0    0 -0.96215765778E+02  0.51879568435E+03 -0.11978557797E+04  0.13178226579E+04  0.15294330000E+03 0.  0.
    8880022    1    1    2    0    0  0.96215765778E+02 -0.51879568435E+03  0.11002337620E+03  0.56027067745E+03  0.15294330000E+03 0.  0.
<mgrwt>
<rscale>  0 0.54936153E+03</rscale>
<asrwt>0</asrwt>
<pdfrwt beam="1">  1        2 0.22814813E+00 0.54936153E+03</pdfrwt>
<pdfrwt beam="2">  1       -2 0.60789303E-01 0.54936153E+03</pdfrwt>
<totfact> 0.34327250E+01</totfact>
</mgrwt>
</event>
<event>
 4    1  0.4880711E-008  0.7691535E+03  0.7818608E-02  0.9605772E-01
         -2   -1    0    0    0  501 -0.00000000000E+00  0.00000000000E+00  0.95055896987E+03  0.95055896987E+03  0.25500000000E-02 0.  1.
          2   -1    0    0  501    0  0.00000000000E+00 -0.00000000000E+00 -0.15355360106E+04  0.15355360106E+04  0.25500000000E-02 0. -1.
    8880022    1    1    2    0    0  0.69697883535E+03  0.28709919383E+03 -0.12510791068E+04  0.14686034279E+04  0.15294330000E+03 0.  0.
    8880022    1    1    2    0    0 -0.69697883535E+03 -0.28709919383E+03  0.66610206609E+03  0.10174915525E+04  0.15294330000E+03 0.  0.
<mgrwt>
<rscale>  0 0.76915349E+03</rscale>
<asrwt>0</asrwt>
<pdfrwt beam="1">  1        2 0.23623631E+00 0.76915349E+03</pdfrwt>
<pdfrwt beam="2">  1       -2 0.14623984E+00 0.76915349E+03</pdfrwt>
<totfact> 0.39771337E+00</totfact>
</mgrwt>
</event>
<event>
 4    1  0.4880711E-008  0.3453163E+03  0.7818608E-02  0.1064554E+00
          2   -1    0    0  501    0  0.00000000000E+00  0.00000000000E+00  0.82146213804E+03  0.82146213804E+03  0.25500000000E-02 0. -1.
         -2   -1    0    0    0  501 -0.00000000000E+00 -0.00000000000E+00 -0.86914987085E+03  0.86914987086E+03  0.25500000000E-02 0.  1.
    8880022    1    1    2    0    0  0.19153307450E+03 -0.24324219419E+03 -0.79533848870E+03  0.86706784526E+03  0.15294330000E+03 0.  1.
    8880022    1    1    2    0    0 -0.19153307450E+03  0.24324219419E+03  0.74765075589E+03  0.82354416363E+03  0.15294330000E+03 0.  0.
<mgrwt>
<rscale>  0 0.34531628E+03</rscale>
<asrwt>0</asrwt>
<pdfrwt beam="1">  1        2 0.12637879E+00 0.34531628E+03</pdfrwt>
<pdfrwt beam="2">  1       -2 0.13371536E+00 0.34531628E+03</pdfrwt>
<totfact> 0.14523360E+01</totfact>
</mgrwt>
</event>
<event>
 4    1  0.4880711E-008  0.4700583E+03  0.7818608E-02  0.1021904E+00
          2   -1    0    0  501    0  0.00000000000E+00  0.00000000000E+00  0.55814173847E+03  0.55814173847E+03  0.25500000000E-02 0. -1.
         -2   -1    0    0    0  501 -0.00000000000E+00 -0.00000000000E+00 -0.18294285647E+04  0.18294285647E+04  0.25500000000E-02 0.  1.
    8880022    1    1    2    0    0 -0.38936609448E+03 -0.21437636403E+03  0.42111394119E+03  0.63110362499E+03  0.15294330000E+03 0.  0.
    8880022    1    1    2    0    0  0.38936609448E+03  0.21437636403E+03 -0.16924007675E+04  0.17564666782E+04  0.15294330000E+03 0.  0.
<mgrwt>
<rscale>  0 0.47005833E+03</rscale>
<asrwt>0</asrwt>
<pdfrwt beam="1">  1        2 0.85867961E-01 0.47005833E+03</pdfrwt>
<pdfrwt beam="2">  1       -2 0.28145054E+00 0.47005833E+03</pdfrwt>
<totfact> 0.24445238E+00</totfact>
</mgrwt>
</event>
<event>
 4    1  0.4880711E-008  0.4814858E+03  0.7818608E-02  0.1018728E+00
          2   -1    0    0  501    0  0.00000000000E+00  0.00000000000E+00  0.35341492621E+04  0.35341492621E+04  0.25500000000E-02 0. -1.
         -2   -1    0    0    0  501 -0.00000000000E+00 -0.00000000000E+00 -0.23065042827E+03  0.23065042829E+03  0.25500000000E-02 0.  1.
    8880022    1    1    2    0    0  0.32564773353E+03 -0.31998505666E+03  0.32441319771E+04  0.32796677912E+04  0.15294330000E+03 0.  0.
    8880022    1    1    2    0    0 -0.32564773353E+03  0.31998505666E+03  0.59366856649E+02  0.48513189910E+03  0.15294330000E+03 0.  0.
<mgrwt>
<rscale>  0 0.48148576E+03</rscale>
<asrwt>0</asrwt>
<pdfrwt beam="1">  1        2 0.54371528E+00 0.48148576E+03</pdfrwt>
<pdfrwt beam="2">  1       -2 0.35484681E-01 0.48148576E+03</pdfrwt>
<totfact> 0.66596661E+00</totfact>
</mgrwt>
</event>
<event>
 4    1  0.4880711E-008  0.3882047E+03  0.7818608E-02  0.1047942E+00
         -2   -1    0    0    0  501 -0.00000000000E+00  0.00000000000E+00  0.13696587148E+03  0.13696587151E+03  0.25500000000E-02 0.  1.
          2   -1    0    0  501    0  0.00000000000E+00 -0.00000000000E+00 -0.21233600858E+04  0.21233600858E+04  0.25500000000E-02 0. -1.
    8880022    1    1    2    0    0 -0.31776863253E+03  0.16227855028E+03 -0.17776752563E+04  0.18195692351E+04  0.15294330000E+03 0.  0.
    8880022    1    1    2    0    0  0.31776863253E+03 -0.16227855028E+03 -0.20871895810E+03  0.44075672222E+03  0.15294330000E+03 0.  0.
<mgrwt>
<rscale>  0 0.38820469E+03</rscale>
<asrwt>0</asrwt>
<pdfrwt beam="1">  1        2 0.32667076E+00 0.38820469E+03</pdfrwt>
<pdfrwt beam="2">  1       -2 0.21071674E-01 0.38820469E+03</pdfrwt>
<totfact> 0.12023130E+02</totfact>
</mgrwt>
</event>
<event>
 4    1  0.4880711E-008  0.8914984E+03  0.7818608E-02  0.9436272E-01
          2   -1    0    0  501    0  0.00000000000E+00  0.00000000000E+00  0.13161760974E+04  0.13161760974E+04  0.25500000000E-02 0. -1.
         -2   -1    0    0    0  501 -0.00000000000E+00 -0.00000000000E+00 -0.76682006264E+03  0.76682006265E+03  0.25500000000E-02 0.  1.
    8880022    1    1    2    0    0  0.59600845675E+03 -0.64509816561E+03  0.75481953400E+03  0.11681275212E+04  0.15294330000E+03 0.  0.
    8880022    1    1    2    0    0 -0.59600845675E+03  0.64509816561E+03 -0.20546349929E+03  0.91486863884E+03  0.15294330000E+03 0.  0.
<mgrwt>
<rscale>  0 0.89149839E+03</rscale>
<asrwt>0</asrwt>
<pdfrwt beam="1">  1        2 0.20248863E+00 0.89149839E+03</pdfrwt>
<pdfrwt beam="2">  1       -2 0.11797232E+00 0.89149839E+03</pdfrwt>
<totfact> 0.89996033E+00</totfact>
</mgrwt>
</event>
<event>
 4    1  0.4880711E-008  0.3383020E+03  0.7818608E-02  0.1067521E+00
          2   -1    0    0  501    0  0.00000000000E+00  0.00000000000E+00  0.29790629920E+03  0.29790629921E+03  0.25500000000E-02 0. -1.
         -2   -1    0    0    0  501 -0.00000000000E+00 -0.00000000000E+00 -0.42359920394E+03  0.42359920395E+03  0.25500000000E-02 0.  1.
    8880022    1    1    2    0    0  0.16002878877E+03 -0.25582686808E+03 -0.17290193910E+03  0.37992543114E+03  0.15294330000E+03 0.  1.
    8880022    1    1    2    0    0 -0.16002878877E+03  0.25582686808E+03  0.47209034363E+02  0.34158007202E+03  0.15294330000E+03 0. -1.
<mgrwt>
<rscale>  0 0.33830201E+03</rscale>
<asrwt>0</asrwt>
<pdfrwt beam="1">  1        2 0.45831738E-01 0.33830201E+03</pdfrwt>
<pdfrwt beam="2">  1       -2 0.65169109E-01 0.33830201E+03</pdfrwt>
<totfact> 0.24575177E+02</totfact>
</mgrwt>
</event>
<event>
 4    1  0.4880711E-008  0.1771774E+03  0.7818608E-02  0.1170563E+00
         -2   -1    0    0    0  501 -0.00000000000E+00  0.00000000000E+00  0.25824487385E+03  0.25824487386E+03  0.25500000000E-02 0.  1.
          2   -1    0    0  501    0  0.00000000000E+00 -0.00000000000E+00 -0.12509430282E+03  0.12509430284E+03  0.25500000000E-02 0. -1.
    8880022    1    1    2    0    0  0.78204040585E+02  0.43408658928E+02  0.34350955331E+02  0.18047665993E+03  0.15294330000E+03 0.  0.
    8880022    1    1    2    0    0 -0.78204040585E+02 -0.43408658928E+02  0.98799615703E+02  0.20286251677E+03  0.15294330000E+03 0. -1.
<mgrwt>
<rscale>  0 0.17717742E+03</rscale>
<asrwt>0</asrwt>
<pdfrwt beam="1">  1        2 0.19245277E-01 0.17717742E+03</pdfrwt>
<pdfrwt beam="2">  1       -2 0.39729981E-01 0.17717742E+03</pdfrwt>
<totfact> 0.17241475E+03</totfact>
</mgrwt>
</event>
<event>
 4    1  0.4880711E-008  0.1660894E+03  0.7818608E-02  0.1181988E+00
         -2   -1    0    0    0  501 -0.00000000000E+00  0.00000000000E+00  0.34243390652E+03  0.34243390653E+03  0.25500000000E-02 0.  1.
          2   -1    0    0  501    0  0.00000000000E+00 -0.00000000000E+00 -0.13319098523E+04  0.13319098523E+04  0.25500000000E-02 0. -1.
    8880022    1    1    2    0    0 -0.47067034532E+02 -0.44482993067E+02  0.31672178096E+03  0.35762883268E+03  0.15294330000E+03 0.  1.
    8880022    1    1    2    0    0  0.47067034532E+02  0.44482993067E+02 -0.13061977267E+04  0.13167149261E+04  0.15294330000E+03 0.  0.
<mgrwt>
<rscale>  0 0.16608942E+03</rscale>
<asrwt>0</asrwt>
<pdfrwt beam="1">  1        2 0.20490921E+00 0.16608942E+03</pdfrwt>
<pdfrwt beam="2">  1       -2 0.52682140E-01 0.16608942E+03</pdfrwt>
<totfact> 0.61242087E+01</totfact>
</mgrwt>
</event>
<event>
 4    1  0.4880711E-008  0.3616160E+03  0.7818608E-02  0.1057946E+00
         -2   -1    0    0    0  501 -0.00000000000E+00  0.00000000000E+00  0.15694185924E+03  0.15694185926E+03  0.25500000000E-02 0.  1.
          2   -1    0    0  501    0  0.00000000000E+00 -0.00000000000E+00 -0.22494605805E+04  0.22494605805E+04  0.25500000000E-02 0. -1.
    8880022    1    1    2    0    0  0.25424450171E+03 -0.20672246284E+03 -0.91555752563E+02  0.37302620837E+03  0.15294330000E+03 0.  0.
    8880022    1    1    2    0    0 -0.25424450171E+03  0.20672246284E+03 -0.20009629687E+04  0.20333762314E+04  0.15294330000E+03 0.  0.
<mgrwt>
<rscale>  0 0.36161595E+03</rscale>
<asrwt>0</asrwt>
<pdfrwt beam="1">  1        2 0.34607083E+00 0.36161595E+03</pdfrwt>
<pdfrwt beam="2">  1       -2 0.24144903E-01 0.36161595E+03</pdfrwt>
<totfact> 0.81452428E+01</totfact>
</mgrwt>
</event>
<event>
 4    1  0.4880711E-008  0.6138593E+03  0.7818608E-02  0.9877062E-01
         -2   -1    0    0    0  501 -0.00000000000E+00  0.00000000000E+00  0.77874963713E+03  0.77874963713E+03  0.25500000000E-02 0.  1.
          2   -1    0    0  501    0  0.00000000000E+00 -0.00000000000E+00 -0.96215939761E+03  0.96215939762E+03  0.25500000000E-02 0. -1.
    8880022    1    1    2    0    0 -0.55175506471E+03 -0.22135487299E+03  0.52200383934E+03  0.80579854339E+03  0.15294330000E+03 0.  0.
    8880022    1    1    2    0    0  0.55175506471E+03  0.22135487299E+03 -0.70541359982E+03  0.93511049136E+03  0.15294330000E+03 0.  0.
<mgrwt>
<rscale>  0 0.61385934E+03</rscale>
<asrwt>0</asrwt>
<pdfrwt beam="1">  1        2 0.14802452E+00 0.61385934E+03</pdfrwt>
<pdfrwt beam="2">  1       -2 0.11980764E+00 0.61385934E+03</pdfrwt>
<totfact> 0.14685387E+01</totfact>
</mgrwt>
</event>
<event>
 4    1  0.4880711E-008  0.4076819E+03  0.7818608E-02  0.1041152E+00
         -2   -1    0    0    0  501 -0.00000000000E+00  0.00000000000E+00  0.39742185299E+03  0.39742185299E+03  0.25500000000E-02 0.  1.
          2   -1    0    0  501    0  0.00000000000E+00 -0.00000000000E+00 -0.11033457349E+04  0.11033457350E+04  0.25500000000E-02 0. -1.
    8880022    1    1    2    0    0 -0.37257142113E+03 -0.63272323052E+02 -0.94427432405E+03  0.10285224853E+04  0.15294330000E+03 0.  0.
    8880022    1    1    2    0    0  0.37257142113E+03  0.63272323052E+02  0.23835044208E+03  0.47224510264E+03  0.15294330000E+03 0.  0.
<mgrwt>
<rscale>  0 0.40768187E+03</rscale>
<asrwt>0</asrwt>
<pdfrwt beam="1">  1        2 0.16974550E+00 0.40768187E+03</pdfrwt>
<pdfrwt beam="2">  1       -2 0.61141824E-01 0.40768187E+03</pdfrwt>
<totfact> 0.57113253E+01</totfact>
</mgrwt>
</event>
<event>
 4    1  0.4880711E-008  0.6572938E+03  0.7818608E-02  0.9793188E-01
         -2   -1    0    0    0  501 -0.00000000000E+00  0.00000000000E+00  0.35890424254E+03  0.35890424255E+03  0.25500000000E-02 0.  1.
          2   -1    0    0  501    0  0.00000000000E+00 -0.00000000000E+00 -0.12889693651E+04  0.12889693651E+04  0.25500000000E-02 0. -1.
    8880022    1    1    2    0    0 -0.59385498570E+03 -0.23660036386E+03 -0.67687467719E+03  0.94350117003E+03  0.15294330000E+03 0.  0.
    8880022    1    1    2    0    0  0.59385498570E+03  0.23660036386E+03 -0.25319044533E+03  0.70437243759E+03  0.15294330000E+03 0.  0.
<mgrwt>
<rscale>  0 0.65729379E+03</rscale>
<asrwt>0</asrwt>
<pdfrwt beam="1">  1        2 0.19830298E+00 0.65729379E+03</pdfrwt>
<pdfrwt beam="2">  1       -2 0.55216038E-01 0.65729379E+03</pdfrwt>
<totfact> 0.53211537E+01</totfact>
</mgrwt>
</event>
<event>
 4    1  0.4880711E-008  0.3797524E+03  0.7818608E-02  0.1051025E+00
          2   -1    0    0  501    0  0.00000000000E+00  0.00000000000E+00  0.20563558933E+04  0.20563558933E+04  0.25500000000E-02 0. -1.
         -2   -1    0    0    0  501 -0.00000000000E+00 -0.00000000000E+00 -0.33637672800E+03  0.33637672801E+03  0.25500000000E-02 0.  1.
    8880022    1    1    2    0    0 -0.34439390795E+03  0.47042883607E+02  0.19243617217E+04  0.19614739065E+04  0.15294330000E+03 0.  0.
    8880022    1    1    2    0    0  0.34439390795E+03 -0.47042883607E+02 -0.20438255642E+03  0.43125871483E+03  0.15294330000E+03 0.  1.
<mgrwt>
<rscale>  0 0.37975235E+03</rscale>
<asrwt>0</asrwt>
<pdfrwt beam="1">  1        2 0.31636245E+00 0.37975235E+03</pdfrwt>
<pdfrwt beam="2">  1       -2 0.51750266E-01 0.37975235E+03</pdfrwt>
<totfact> 0.24355332E+01</totfact>
</mgrwt>
</event>
<event>
 4    1  0.4880711E-008  0.3615369E+03  0.7818608E-02  0.1057977E+00
          2   -1    0    0  501    0  0.00000000000E+00  0.00000000000E+00  0.20492084955E+04  0.20492084955E+04  0.25500000000E-02 0. -1.
         -2   -1    0    0    0  501 -0.00000000000E+00 -0.00000000000E+00 -0.93258227431E+02  0.93258227465E+02  0.25500000000E-02 0.  1.
    8880022    1    1    2    0    0  0.33632580619E+02 -0.32586213860E+03  0.37575712733E+03  0.52144257173E+03  0.15294330000E+03 0.  0.
    8880022    1    1    2    0    0 -0.33632580619E+02  0.32586213860E+03  0.15801931407E+04  0.16210241512E+04  0.15294330000E+03 0. -1.
<mgrwt>
<rscale>  0 0.36153691E+03</rscale>
<asrwt>0</asrwt>
<pdfrwt beam="1">  1        2 0.31526281E+00 0.36153691E+03</pdfrwt>
<pdfrwt beam="2">  1       -2 0.14347421E-01 0.36153691E+03</pdfrwt>
<totfact> 0.25440491E+02</totfact>
</mgrwt>
</event>
<event>
 4    1  0.4880711E-008  0.2812413E+03  0.7818608E-02  0.1095013E+00
         -2   -1    0    0    0  501 -0.00000000000E+00  0.00000000000E+00  0.73670139233E+02  0.73670139278E+02  0.25500000000E-02 0.  1.
          2   -1    0    0  501    0  0.00000000000E+00 -0.00000000000E+00 -0.25012380579E+04  0.25012380579E+04  0.25500000000E-02 0. -1.
    8880022    1    1    2    0    0  0.23348187732E+03  0.34514561684E+02 -0.24113943836E+03  0.37046581995E+03  0.15294330000E+03 0.  1.
    8880022    1    1    2    0    0 -0.23348187732E+03 -0.34514561684E+02 -0.21864284803E+04  0.22044423772E+04  0.15294330000E+03 0.  0.
<mgrwt>
<rscale>  0 0.28124135E+03</rscale>
<asrwt>0</asrwt>
<pdfrwt beam="1">  1        2 0.38480579E+00 0.28124135E+03</pdfrwt>
<pdfrwt beam="2">  1       -2 0.11333870E-01 0.28124135E+03</pdfrwt>
<totfact> 0.21720692E+02</totfact>
</mgrwt>
</event>
<event>
 4    1  0.4880711E-008  0.6925421E+03  0.7818608E-02  0.9730072E-01
          2   -1    0    0  501    0  0.00000000000E+00  0.00000000000E+00  0.13905973013E+04  0.13905973013E+04  0.25500000000E-02 0. -1.
         -2   -1    0    0    0  501 -0.00000000000E+00 -0.00000000000E+00 -0.34530943209E+03  0.34530943210E+03  0.25500000000E-02 0.  1.
    8880022    1    1    2    0    0 -0.22828629852E+03 -0.63569511798E+03  0.49269293160E+03  0.84991816958E+03  0.15294330000E+03 0.  1.
    8880022    1    1    2    0    0  0.22828629852E+03  0.63569511798E+03  0.55259493758E+03  0.88598856379E+03  0.15294330000E+03 0. -1.
<mgrwt>
<rscale>  0 0.69254211E+03</rscale>
<asrwt>0</asrwt>
<pdfrwt beam="1">  1        2 0.21393804E+00 0.69254211E+03</pdfrwt>
<pdfrwt beam="2">  1       -2 0.53124528E-01 0.69254211E+03</pdfrwt>
<totfact> 0.50240026E+01</totfact>
</mgrwt>
</event>
<event>
 4    1  0.4880711E-008  0.3227185E+03  0.7818608E-02  0.1074405E+00
          2   -1    0    0  501    0  0.00000000000E+00  0.00000000000E+00  0.32278758438E+03  0.32278758439E+03  0.25500000000E-02 0. -1.
         -2   -1    0    0    0  501 -0.00000000000E+00 -0.00000000000E+00 -0.46879697095E+03  0.46879697095E+03  0.25500000000E-02 0.  1.
    8880022    1    1    2    0    0 -0.22048019968E+03  0.17928768811E+03 -0.29399366362E+03  0.43655414421E+03  0.15294330000E+03 0.  0.
    8880022    1    1    2    0    0  0.22048019968E+03 -0.17928768811E+03  0.14798427705E+03  0.35503041113E+03  0.15294330000E+03 0.  0.
<mgrwt>
<rscale>  0 0.32271853E+03</rscale>
<asrwt>0</asrwt>
<pdfrwt beam="1">  1        2 0.49659628E-01 0.32271853E+03</pdfrwt>
<pdfrwt beam="2">  1       -2 0.72122611E-01 0.32271853E+03</pdfrwt>
<totfact> 0.18130548E+02</totfact>
</mgrwt>
</event>
<event>
 4    1  0.4880711E-008  0.8207599E+03  0.7818608E-02  0.9530445E-01
          2   -1    0    0  501    0  0.00000000000E+00  0.00000000000E+00  0.13216062071E+04  0.13216062071E+04  0.25500000000E-02 0. -1.
         -2   -1    0    0    0  501 -0.00000000000E+00 -0.00000000000E+00 -0.96197704643E+03  0.96197704643E+03  0.25500000000E-02 0.  1.
    8880022    1    1    2    0    0  0.56162706486E+03  0.57864518299E+03  0.96269961151E+03  0.12650839509E+04  0.15294330000E+03 0.  0.
    8880022    1    1    2    0    0 -0.56162706486E+03 -0.57864518299E+03 -0.60307045084E+03  0.10184993026E+04  0.15294330000E+03 0.  0.
<mgrwt>
<rscale>  0 0.82075993E+03</rscale>
<asrwt>0</asrwt>
<pdfrwt beam="1">  1        2 0.20332403E+00 0.82075993E+03</pdfrwt>
<pdfrwt beam="2">  1       -2 0.14799647E+00 0.82075993E+03</pdfrwt>
<totfact> 0.50518884E+00</totfact>
</mgrwt>
</event>
<event>
 4    1  0.5393789E-008  0.7830071E+03  0.7818608E-02  0.9584945E-01
         -2   -1    0    0    0  501 -0.00000000000E+00  0.00000000000E+00  0.13759153689E+04  0.13759153689E+04  0.25500000000E-02 0.  1.
          2   -1    0    0  501    0  0.00000000000E+00 -0.00000000000E+00 -0.20279475626E+04  0.20279475626E+04  0.25500000000E-02 0. -1.
    8880022    1    1    2    0    0 -0.74991583735E+03  0.16533215945E+03  0.11773523167E+04  0.14139514195E+04  0.15294330000E+03 0.  0.
    8880022    1    1    2    0    0  0.74991583735E+03 -0.16533215945E+03 -0.18293845104E+04  0.19899115121E+04  0.15294330000E+03 0.  0.
<mgrwt>
<rscale>  0 0.78300711E+03</rscale>
<asrwt>0</asrwt>
<pdfrwt beam="1">  1        2 0.31199193E+00 0.78300711E+03</pdfrwt>
<pdfrwt beam="2">  1       -2 0.21167929E+00 0.78300711E+03</pdfrwt>
<totfact> 0.74834661E-01</totfact>
</mgrwt>
</event>
<event>
 4    1  0.4880711E-008  0.2574306E+03  0.7818608E-02  0.1108697E+00
          2   -1    0    0  501    0  0.00000000000E+00  0.00000000000E+00  0.13527043757E+04  0.13527043757E+04  0.25500000000E-02 0. -1.
         -2   -1    0    0    0  501 -0.00000000000E+00 -0.00000000000E+00 -0.27150166428E+03  0.27150166429E+03  0.25500000000E-02 0.  1.
    8880022    1    1    2    0    0  0.20113696622E+03  0.49221716699E+02  0.12757923361E+04  0.13015055107E+04  0.15294330000E+03 0. -1.
    8880022    1    1    2    0    0 -0.20113696622E+03 -0.49221716699E+02 -0.19458962465E+03  0.32270052930E+03  0.15294330000E+03 0.  0.
<mgrwt>
<rscale>  0 0.25743059E+03</rscale>
<asrwt>0</asrwt>
<pdfrwt beam="1">  1        2 0.20810836E+00 0.25743059E+03</pdfrwt>
<pdfrwt beam="2">  1       -2 0.41769487E-01 0.25743059E+03</pdfrwt>
<totfact> 0.91405593E+01</totfact>
</mgrwt>
</event>
<event>
 4    1  0.4880711E-008  0.1905755E+03  0.7818608E-02  0.1157943E+00
          2   -1    0    0  501    0  0.00000000000E+00  0.00000000000E+00  0.95714060583E+03  0.95714060583E+03  0.25500000000E-02 0. -1.
         -2   -1    0    0    0  501 -0.00000000000E+00 -0.00000000000E+00 -0.21259359967E+03  0.21259359969E+03  0.25500000000E-02 0.  1.
    8880022    1    1    2    0    0  0.91501134045E+01  0.11332978905E+03  0.90238136069E+03  0.92228582272E+03  0.15294330000E+03 0.  0.
    8880022    1    1    2    0    0 -0.91501134045E+01 -0.11332978905E+03 -0.15783435454E+03  0.24744838279E+03  0.15294330000E+03 0.  1.
<mgrwt>
<rscale>  0 0.19057549E+03</rscale>
<asrwt>0</asrwt>
<pdfrwt beam="1">  1        2 0.14725240E+00 0.19057549E+03</pdfrwt>
<pdfrwt beam="2">  1       -2 0.32706708E-01 0.19057549E+03</pdfrwt>
<totfact> 0.24874362E+02</totfact>
</mgrwt>
</event>
<event>
 4    1  0.4880711E-008  0.3050346E+03  0.7818608E-02  0.1082751E+00
          2   -1    0    0  501    0  0.00000000000E+00  0.00000000000E+00  0.19635358329E+04  0.19635358329E+04  0.25500000000E-02 0. -1.
         -2   -1    0    0    0  501 -0.00000000000E+00 -0.00000000000E+00 -0.65561762210E+02  0.65561762259E+02  0.25500000000E-02 0.  1.
    8880022    1    1    2    0    0  0.22297730161E+02 -0.26297773173E+03  0.41481437617E+03  0.51489522803E+03  0.15294330000E+03 0.  0.
    8880022    1    1    2    0    0 -0.22297730161E+02  0.26297773173E+03  0.14831596945E+04  0.15142023671E+04  0.15294330000E+03 0. -1.
<mgrwt>
<rscale>  0 0.30503464E+03</rscale>
<asrwt>0</asrwt>
<pdfrwt beam="1">  1        2 0.30208246E+00 0.30503464E+03</pdfrwt>
<pdfrwt beam="2">  1       -2 0.10086424E-01 0.30503464E+03</pdfrwt>
<totfact> 0.50641602E+02</totfact>
</mgrwt>
</event>
<event>
 4    1  0.4880711E-008  0.2901822E+03  0.7818608E-02  0.1090254E+00
         -2   -1    0    0    0  501 -0.00000000000E+00  0.00000000000E+00  0.17339149751E+03  0.17339149753E+03  0.25500000000E-02 0.  1.
          2   -1    0    0  501    0  0.00000000000E+00 -0.00000000000E+00 -0.86878519495E+03  0.86878519496E+03  0.25500000000E-02 0. -1.
    8880022    1    1    2    0    0  0.24178670795E+03 -0.48510317427E+02 -0.16481072314E+01  0.29018689203E+03  0.15294330000E+03 0.  0.
    8880022    1    1    2    0    0 -0.24178670795E+03  0.48510317427E+02 -0.69374559021E+03  0.75198980045E+03  0.15294330000E+03 0.  0.
<mgrwt>
<rscale>  0 0.29018221E+03</rscale>
<asrwt>0</asrwt>
<pdfrwt beam="1">  1        2 0.13365926E+00 0.29018221E+03</pdfrwt>
<pdfrwt beam="2">  1       -2 0.26675616E-01 0.29018221E+03</pdfrwt>
<totfact> 0.40509846E+02</totfact>
</mgrwt>
</event>
<event>
 4    1  0.4880711E-008  0.1028522E+04  0.7818608E-02  0.9277804E-01
          2   -1    0    0  501    0  0.00000000000E+00  0.00000000000E+00  0.14798291045E+04  0.14798291045E+04  0.25500000000E-02 0. -1.
         -2   -1    0    0    0  501 -0.00000000000E+00 -0.00000000000E+00 -0.15214590787E+04  0.15214590787E+04  0.25500000000E-02 0.  1.
    8880022    1    1    2    0    0  0.97427339381E+03  0.29198919224E+03  0.10718291157E+04  0.14854883508E+04  0.15294330000E+03 0.  0.
    8880022    1    1    2    0    0 -0.97427339381E+03 -0.29198919224E+03 -0.11134590898E+04  0.15157998324E+04  0.15294330000E+03 0.  0.
<mgrwt>
<rscale>  0 0.10285222E+04</rscale>
<asrwt>0</asrwt>
<pdfrwt beam="1">  1        2 0.22766602E+00 0.10285222E+04</pdfrwt>
<pdfrwt beam="2">  1       -2 0.23407063E+00 0.10285222E+04</pdfrwt>
<totfact> 0.10427206E+00</totfact>
</mgrwt>
</event>
<event>
 4    1  0.4880711E-008  0.9646814E+03  0.7818608E-02  0.9348153E-01
          2   -1    0    0  501    0  0.00000000000E+00  0.00000000000E+00  0.10248513861E+04  0.10248513861E+04  0.25500000000E-02 0. -1.
         -2   -1    0    0    0  501 -0.00000000000E+00 -0.00000000000E+00 -0.16757938987E+04  0.16757938987E+04  0.25500000000E-02 0.  1.
    8880022    1    1    2    0    0  0.11630003570E+02 -0.95240921648E+03 -0.12394521374E+04  0.15706214778E+04  0.15294330000E+03 0.  0.
    8880022    1    1    2    0    0 -0.11630003570E+02  0.95240921648E+03  0.58850962482E+03  0.11300238069E+04  0.15294330000E+03 0.  0.
<mgrwt>
<rscale>  0 0.96468141E+03</rscale>
<asrwt>0</asrwt>
<pdfrwt beam="1">  1        2 0.15766944E+00 0.96468141E+03</pdfrwt>
<pdfrwt beam="2">  1       -2 0.25781445E+00 0.96468141E+03</pdfrwt>
<totfact> 0.14006928E+00</totfact>
</mgrwt>
</event>
<event>
 4    1  0.4880711E-008  0.6707550E+03  0.7818608E-02  0.9768595E-01
         -2   -1    0    0    0  501 -0.00000000000E+00  0.00000000000E+00  0.65482043087E+03  0.65482043088E+03  0.25500000000E-02 0.  1.
          2   -1    0    0  501    0  0.00000000000E+00 -0.00000000000E+00 -0.92874083614E+03  0.92874083614E+03  0.25500000000E-02 0. -1.
    8880022    1    1    2    0    0 -0.64911794814E+03 -0.71878142940E+02  0.26692988817E+03  0.72191675160E+03  0.15294330000E+03 0.  0.
    8880022    1    1    2    0    0  0.64911794814E+03  0.71878142940E+02 -0.54085029344E+03  0.86164451542E+03  0.15294330000E+03 0. -1.
<mgrwt>
<rscale>  0 0.67075497E+03</rscale>
<asrwt>0</asrwt>
<pdfrwt beam="1">  1        2 0.14288321E+00 0.67075497E+03</pdfrwt>
<pdfrwt beam="2">  1       -2 0.10074160E+00 0.67075497E+03</pdfrwt>
<totfact> 0.23310655E+01</totfact>
</mgrwt>
</event>
<event>
 4    1  0.4880711E-008  0.5014711E+03  0.7818608E-02  0.1013396E+00
         -2   -1    0    0    0  501 -0.00000000000E+00  0.00000000000E+00  0.35409348394E+03  0.35409348395E+03  0.25500000000E-02 0.  1.
          2   -1    0    0  501    0  0.00000000000E+00 -0.00000000000E+00 -0.21906545709E+04  0.21906545709E+04  0.25500000000E-02 0. -1.
    8880022    1    1    2    0    0 -0.26439277807E+01  0.47757157305E+03  0.12770822124E+03  0.51747718842E+03  0.15294330000E+03 0.  0.
    8880022    1    1    2    0    0  0.26439277807E+01 -0.47757157305E+03 -0.19642693082E+04  0.20272708664E+04  0.15294330000E+03 0.  0.
<mgrwt>
<rscale>  0 0.50147109E+03</rscale>
<asrwt>0</asrwt>
<pdfrwt beam="1">  1        2 0.33702377E+00 0.50147109E+03</pdfrwt>
<pdfrwt beam="2">  1       -2 0.54475922E-01 0.50147109E+03</pdfrwt>
<totfact> 0.18008621E+01</totfact>
</mgrwt>
</event>
<event>
 4    1  0.4880711E-008  0.6188397E+03  0.7818608E-02  0.9867073E-01
         -2   -1    0    0    0  501 -0.00000000000E+00  0.00000000000E+00  0.56562465802E+03  0.56562465803E+03  0.25500000000E-02 0.  1.
          2   -1    0    0  501    0  0.00000000000E+00 -0.00000000000E+00 -0.17266987060E+04  0.17266987060E+04  0.25500000000E-02 0. -1.
    8880022    1    1    2    0    0 -0.57883784002E+03 -0.15658109706E+03 -0.14741660433E+04  0.15987895613E+04  0.15294330000E+03 0.  0.
    8880022    1    1    2    0    0  0.57883784002E+03  0.15658109706E+03  0.31309199534E+03  0.69353380275E+03  0.15294330000E+03 0.  0.
<mgrwt>
<rscale>  0 0.61883967E+03</rscale>
<asrwt>0</asrwt>
<pdfrwt beam="1">  1        2 0.26564595E+00 0.61883967E+03</pdfrwt>
<pdfrwt beam="2">  1       -2 0.87019179E-01 0.61883967E+03</pdfrwt>
<totfact> 0.11366728E+01</totfact>
</mgrwt>
</event>
<event>
 4    1  0.4880711E-008  0.4186495E+03  0.7818608E-02  0.1037507E+00
          2   -1    0    0  501    0  0.00000000000E+00  0.00000000000E+00  0.27226467886E+04  0.27226467886E+04  0.25500000000E-02 0. -1.
         -2   -1    0    0    0  501 -0.00000000000E+00 -0.00000000000E+00 -0.24124635816E+03  0.24124635817E+03  0.25500000000E-02 0.  1.
    8880022    1    1    2    0    0  0.24682255931E+03 -0.30158639353E+03 -0.28214034542E+02  0.41959911023E+03  0.15294330000E+03 0.  0.
    8880022    1    1    2    0    0 -0.24682255931E+03  0.30158639353E+03  0.25096144650E+04  0.25442940366E+04  0.15294330000E+03 0.  0.
<mgrwt>
<rscale>  0 0.41864947E+03</rscale>
<asrwt>0</asrwt>
<pdfrwt beam="1">  1        2 0.41886873E+00 0.41864947E+03</pdfrwt>
<pdfrwt beam="2">  1       -2 0.37114825E-01 0.41864947E+03</pdfrwt>
<totfact> 0.19889186E+01</totfact>
</mgrwt>
</event>
<event>
 4    1  0.4880711E-008  0.6824730E+03  0.7818608E-02  0.9747684E-01
          2   -1    0    0  501    0  0.00000000000E+00  0.00000000000E+00  0.13179348381E+04  0.13179348381E+04  0.25500000000E-02 0. -1.
         -2   -1    0    0    0  501 -0.00000000000E+00 -0.00000000000E+00 -0.42555445033E+03  0.42555445034E+03  0.25500000000E-02 0.  1.
    8880022    1    1    2    0    0 -0.60070745589E+03 -0.28553165234E+03  0.87253727731E+02  0.68802807942E+03  0.15294330000E+03 0.  1.
    8880022    1    1    2    0    0  0.60070745589E+03  0.28553165234E+03  0.80512666006E+03  0.10554612090E+04  0.15294330000E+03 0.  0.
<mgrwt>
<rscale>  0 0.68247302E+03</rscale>
<asrwt>0</asrwt>
<pdfrwt beam="1">  1        2 0.20275920E+00 0.68247302E+03</pdfrwt>
<pdfrwt beam="2">  1       -2 0.65469916E-01 0.68247302E+03</pdfrwt>
<totfact> 0.35650634E+01</totfact>
</mgrwt>
</event>
<event>
 4    1  0.4880711E-008  0.5526604E+03  0.7818608E-02  0.1000880E+00
         -2   -1    0    0    0  501 -0.00000000000E+00  0.00000000000E+00  0.87033310726E+03  0.87033310727E+03  0.25500000000E-02 0.  1.
          2   -1    0    0  501    0  0.00000000000E+00 -0.00000000000E+00 -0.80946193019E+03  0.80946193020E+03  0.25500000000E-02 0. -1.
    8880022    1    1    2    0    0 -0.51168961572E+03 -0.14218158783E+03 -0.60169787685E+03  0.81699073115E+03  0.15294330000E+03 0.  0.
    8880022    1    1    2    0    0  0.51168961572E+03  0.14218158783E+03  0.66256905393E+03  0.86280430631E+03  0.15294330000E+03 0.  0.
<mgrwt>
<rscale>  0 0.55266040E+03</rscale>
<asrwt>0</asrwt>
<pdfrwt beam="1">  1        2 0.12453261E+00 0.55266040E+03</pdfrwt>
<pdfrwt beam="2">  1       -2 0.13389740E+00 0.55266040E+03</pdfrwt>
<totfact> 0.14210734E+01</totfact>
</mgrwt>
</event>
<event>
 4    1  0.4880711E-008  0.2245373E+03  0.7818608E-02  0.1130545E+00
          2   -1    0    0  501    0  0.00000000000E+00  0.00000000000E+00  0.25153604488E+04  0.25153604488E+04  0.25500000000E-02 0. -1.
         -2   -1    0    0    0  501 -0.00000000000E+00 -0.00000000000E+00 -0.19827201086E+03  0.19827201088E+03  0.25500000000E-02 0.  1.
    8880022    1    1    2    0    0  0.13797745570E+03 -0.89373253444E+02 -0.12786376905E+03  0.25839147270E+03  0.15294330000E+03 0.  0.
    8880022    1    1    2    0    0 -0.13797745570E+03  0.89373253444E+02  0.24449522070E+04  0.24552409870E+04  0.15294330000E+03 0. -1.
<mgrwt>
<rscale>  0 0.22453732E+03</rscale>
<asrwt>0</asrwt>
<pdfrwt beam="1">  1        2 0.38697852E+00 0.22453732E+03</pdfrwt>
<pdfrwt beam="2">  1       -2 0.30503387E-01 0.22453732E+03</pdfrwt>
<totfact> 0.40277146E+01</totfact>
</mgrwt>
</event>
<event>
 4    1  0.4880711E-008  0.5776585E+03  0.7818608E-02  0.9952873E-01
          2   -1    0    0  501    0  0.00000000000E+00  0.00000000000E+00  0.88812656742E+03  0.88812656742E+03  0.25500000000E-02 0. -1.
         -2   -1    0    0    0  501 -0.00000000000E+00 -0.00000000000E+00 -0.48361796089E+03  0.48361796089E+03  0.25500000000E-02 0.  1.
    8880022    1    1    2    0    0  0.46114636945E+03  0.31247670808E+03  0.52621565022E+03  0.78140401247E+03  0.15294330000E+03 0.  0.
    8880022    1    1    2    0    0 -0.46114636945E+03 -0.31247670808E+03 -0.12170704369E+03  0.59034051585E+03  0.15294330000E+03 0.  0.
<mgrwt>
<rscale>  0 0.57765848E+03</rscale>
<asrwt>0</asrwt>
<pdfrwt beam="1">  1        2 0.13663486E+00 0.57765848E+03</pdfrwt>
<pdfrwt beam="2">  1       -2 0.74402763E-01 0.57765848E+03</pdfrwt>
<totfact> 0.50058006E+01</totfact>
</mgrwt>
</event>
<event>
 4    1  0.4880711E-008  0.5002133E+03  0.7818608E-02  0.1013723E+00
         -2   -1    0    0    0  501 -0.00000000000E+00  0.00000000000E+00  0.78992804048E+03  0.78992804049E+03  0.25500000000E-02 0.  1.
          2   -1    0    0  501    0  0.00000000000E+00 -0.00000000000E+00 -0.43726273384E+03  0.43726273385E+03  0.25500000000E-02 0. -1.
    8880022    1    1    2    0    0 -0.12355180155E+03 -0.45995284488E+03  0.49845368403E+03  0.70616527479E+03  0.15294330000E+03 0.  0.
    8880022    1    1    2    0    0  0.12355180155E+03  0.45995284488E+03 -0.14578837738E+03  0.52102549955E+03  0.15294330000E+03 0.  0.
<mgrwt>
<rscale>  0 0.50021327E+03</rscale>
<asrwt>0</asrwt>
<pdfrwt beam="1">  1        2 0.67271191E-01 0.50021327E+03</pdfrwt>
<pdfrwt beam="2">  1       -2 0.12152739E+00 0.50021327E+03</pdfrwt>
<totfact> 0.38213558E+01</totfact>
</mgrwt>
</event>
<event>
 4    1  0.4880711E-008  0.5379306E+03  0.7818608E-02  0.1004327E+00
         -2   -1    0    0    0  501 -0.00000000000E+00  0.00000000000E+00  0.21505179212E+03  0.21505179214E+03  0.25500000000E-02 0.  1.
          2   -1    0    0  501    0  0.00000000000E+00 -0.00000000000E+00 -0.25357436274E+04  0.25357436274E+04  0.25500000000E-02 0. -1.
    8880022    1    1    2    0    0  0.24687684185E+03  0.45280187095E+03 -0.21026237758E+04  0.21703446973E+04  0.15294330000E+03 0.  0.
    8880022    1    1    2    0    0 -0.24687684185E+03 -0.45280187095E+03 -0.21806805944E+03  0.58045072223E+03  0.15294330000E+03 0.  0.
<mgrwt>
<rscale>  0 0.53793063E+03</rscale>
<asrwt>0</asrwt>
<pdfrwt beam="1">  1        2 0.39011438E+00 0.53793063E+03</pdfrwt>
<pdfrwt beam="2">  1       -2 0.33084893E-01 0.53793063E+03</pdfrwt>
<totfact> 0.30654758E+01</totfact>
</mgrwt>
</event>
<event>
 4    1  0.4880711E-008  0.2203350E+03  0.7818608E-02  0.1133634E+00
         -2   -1    0    0    0  501 -0.00000000000E+00  0.00000000000E+00  0.56670748719E+03  0.56670748720E+03  0.25500000000E-02 0.  1.
          2   -1    0    0  501    0  0.00000000000E+00 -0.00000000000E+00 -0.41709154632E+03  0.41709154633E+03  0.25500000000E-02 0. -1.
    8880022    1    1    2    0    0 -0.94237843539E+02 -0.12757391096E+03 -0.36367601349E+03  0.42521496883E+03  0.15294330000E+03 0.  0.
    8880022    1    1    2    0    0  0.94237843539E+02  0.12757391096E+03  0.51329195436E+03  0.55858406470E+03  0.15294330000E+03 0.  0.
<mgrwt>
<rscale>  0 0.22033503E+03</rscale>
<asrwt>0</asrwt>
<pdfrwt beam="1">  1        2 0.64167931E-01 0.22033503E+03</pdfrwt>
<pdfrwt beam="2">  1       -2 0.87185766E-01 0.22033503E+03</pdfrwt>
<totfact> 0.91154590E+01</totfact>
</mgrwt>
</event>
<event>
 4    1  0.4880711E-008  0.3093826E+03  0.7818608E-02  0.1080642E+00
         -2   -1    0    0    0  501 -0.00000000000E+00  0.00000000000E+00  0.92980904678E+02  0.92980904713E+02  0.25500000000E-02 0.  1.
          2   -1    0    0  501    0  0.00000000000E+00 -0.00000000000E+00 -0.12747295490E+04  0.12747295490E+04  0.25500000000E-02 0. -1.
    8880022    1    1    2    0    0 -0.18497980237E+03  0.19521375299E+03 -0.29088826301E+03  0.42465700420E+03  0.15294330000E+03 0.  0.
    8880022    1    1    2    0    0  0.18497980237E+03 -0.19521375299E+03 -0.89086038128E+03  0.94305344949E+03  0.15294330000E+03 0.  0.
<mgrwt>
<rscale>  0 0.30938259E+03</rscale>
<asrwt>0</asrwt>
<pdfrwt beam="1">  1        2 0.19611223E+00 0.30938259E+03</pdfrwt>
<pdfrwt beam="2">  1       -2 0.14304756E-01 0.30938259E+03</pdfrwt>
<totfact> 0.67153907E+02</totfact>
</mgrwt>
</event>
<event>
 4    1  0.4880711E-008  0.4685966E+03  0.7818608E-02  0.1022317E+00
          2   -1    0    0  501    0  0.00000000000E+00  0.00000000000E+00  0.27421969136E+04  0.27421969136E+04  0.25500000000E-02 0. -1.
         -2   -1    0    0    0  501 -0.00000000000E+00 -0.00000000000E+00 -0.11956114140E+03  0.11956114143E+03  0.25500000000E-02 0.  1.
    8880022    1    1    2    0    0 -0.20167127585E+03 -0.39436002003E+03  0.48902316026E+03  0.67729346164E+03  0.15294330000E+03 0.  0.
    8880022    1    1    2    0    0  0.20167127585E+03  0.39436002003E+03  0.21336126120E+04  0.21844645934E+04  0.15294330000E+03 0.  0.
<mgrwt>
<rscale>  0 0.46859661E+03</rscale>
<asrwt>0</asrwt>
<pdfrwt beam="1">  1        2 0.42187648E+00 0.46859661E+03</pdfrwt>
<pdfrwt beam="2">  1       -2 0.18394020E-01 0.46859661E+03</pdfrwt>
<totfact> 0.67898228E+01</totfact>
</mgrwt>
</event>
<event>
 4    1  0.4880711E-008  0.1145728E+04  0.7818608E-02  0.9161734E-01
          2   -1    0    0  501    0  0.00000000000E+00  0.00000000000E+00  0.28848286371E+04  0.28848286371E+04  0.25500000000E-02 0. -1.
         -2   -1    0    0    0  501 -0.00000000000E+00 -0.00000000000E+00 -0.92310779672E+03  0.92310779672E+03  0.25500000000E-02 0.  1.
    8880022    1    1    2    0    0  0.40881647612E+02  0.11347376087E+04 -0.37492539437E+03  0.12055129423E+04  0.15294330000E+03 0.  0.
    8880022    1    1    2    0    0 -0.40881647612E+02 -0.11347376087E+04  0.23366462348E+04  0.26024234915E+04  0.15294330000E+03 0.  0.
<mgrwt>
<rscale>  0 0.11457279E+04</rscale>
<asrwt>0</asrwt>
<pdfrwt beam="1">  1        2 0.44381978E+00 0.11457279E+04</pdfrwt>
<pdfrwt beam="2">  1       -2 0.14201659E+00 0.11457279E+04</pdfrwt>
<totfact> 0.70412490E-01</totfact>
</mgrwt>
</event>
<event>
 4    1  0.4880711E-008  0.6874735E+03  0.7818608E-02  0.9738897E-01
          2   -1    0    0  501    0  0.00000000000E+00  0.00000000000E+00  0.24612615476E+04  0.24612615476E+04  0.25500000000E-02 0. -1.
         -2   -1    0    0    0  501 -0.00000000000E+00 -0.00000000000E+00 -0.25304120726E+03  0.25304120727E+03  0.25500000000E-02 0.  1.
    8880022    1    1    2    0    0 -0.84031706800E+02  0.66495625082E+03  0.43767027784E+03  0.81496936652E+03  0.15294330000E+03 0.  0.
    8880022    1    1    2    0    0  0.84031706800E+02 -0.66495625082E+03  0.17705500625E+04  0.18993333883E+04  0.15294330000E+03 0.  0.
<mgrwt>
<rscale>  0 0.68747349E+03</rscale>
<asrwt>0</asrwt>
<pdfrwt beam="1">  1        2 0.37865561E+00 0.68747349E+03</pdfrwt>
<pdfrwt beam="2">  1       -2 0.38929418E-01 0.68747349E+03</pdfrwt>
<totfact> 0.24094771E+01</totfact>
</mgrwt>
</event>
<event>
 4    1  0.4880711E-008  0.2453234E+03  0.7818608E-02  0.1116296E+00
          2   -1    0    0  501    0  0.00000000000E+00  0.00000000000E+00  0.12726118755E+03  0.12726118758E+03  0.25500000000E-02 0. -1.
         -2   -1    0    0    0  501 -0.00000000000E+00 -0.00000000000E+00 -0.14014142335E+04  0.14014142335E+04  0.25500000000E-02 0.  1.
    8880022    1    1    2    0    0 -0.13862076611E+03  0.13257532760E+03 -0.14929464617E+02  0.24577728986E+03  0.15294330000E+03 0.  0.
    8880022    1    1    2    0    0  0.13862076611E+03 -0.13257532760E+03 -0.12592235814E+04  0.12828981312E+04  0.15294330000E+03 0.  1.
<mgrwt>
<rscale>  0 0.24532343E+03</rscale>
<asrwt>0</asrwt>
<pdfrwt beam="1">  1        2 0.19578645E-01 0.24532343E+03</pdfrwt>
<pdfrwt beam="2">  1       -2 0.21560218E+00 0.24532343E+03</pdfrwt>
<totfact> 0.33072354E+01</totfact>
</mgrwt>
</event>
<event>
 4    1  0.4880711E-008  0.3328757E+03  0.7818608E-02  0.1069872E+00
         -2   -1    0    0    0  501 -0.00000000000E+00  0.00000000000E+00  0.17258898306E+03  0.17258898308E+03  0.25500000000E-02 0.  1.
          2   -1    0    0  501    0  0.00000000000E+00 -0.00000000000E+00 -0.89854843563E+03  0.89854843563E+03  0.25500000000E-02 0. -1.
    8880022    1    1    2    0    0  0.29532286213E+03 -0.14105751352E+02 -0.76819631888E+02  0.34162475609E+03  0.15294330000E+03 0.  0.
    8880022    1    1    2    0    0 -0.29532286213E+03  0.14105751352E+02 -0.64913982068E+03  0.72951266262E+03  0.15294330000E+03 0.  0.
<mgrwt>
<rscale>  0 0.33287568E+03</rscale>
<asrwt>0</asrwt>
<pdfrwt beam="1">  1        2 0.13823822E+00 0.33287568E+03</pdfrwt>
<pdfrwt beam="2">  1       -2 0.26552152E-01 0.33287568E+03</pdfrwt>
<totfact> 0.38906327E+02</totfact>
</mgrwt>
</event>
<event>
 4    1  0.4880711E-008  0.1470714E+04  0.7818608E-02  0.8904165E-01
         -2   -1    0    0    0  501 -0.00000000000E+00  0.00000000000E+00  0.12902468014E+04  0.12902468014E+04  0.25500000000E-02 0.  1.
          2   -1    0    0  501    0  0.00000000000E+00 -0.00000000000E+00 -0.22456785136E+04  0.22456785136E+04  0.25500000000E-02 0. -1.
    8880022    1    1    2    0    0 -0.11264386786E+04 -0.93313701007E+03  0.41241246337E+03  0.15274437696E+04  0.15294330000E+03 0.  0.
    8880022    1    1    2    0    0  0.11264386786E+04  0.93313701007E+03 -0.13678441756E+04  0.20084815454E+04  0.15294330000E+03 0.  0.
<mgrwt>
<rscale>  0 0.14707143E+04</rscale>
<asrwt>0</asrwt>
<pdfrwt beam="1">  1        2 0.34548900E+00 0.14707143E+04</pdfrwt>
<pdfrwt beam="2">  1       -2 0.19849951E+00 0.14707143E+04</pdfrwt>
<totfact> 0.62387140E-01</totfact>
</mgrwt>
</event>
<event>
 4    1  0.4880711E-008  0.1991133E+03  0.7818608E-02  0.1150489E+00
          2   -1    0    0  501    0  0.00000000000E+00  0.00000000000E+00  0.28816111079E+03  0.28816111080E+03  0.25500000000E-02 0. -1.
         -2   -1    0    0    0  501 -0.00000000000E+00 -0.00000000000E+00 -0.17688102398E+03  0.17688102400E+03  0.25500000000E-02 0.  1.
    8880022    1    1    2    0    0  0.11297152726E+03  0.59092148721E+02 -0.53958920841E+02  0.20629509486E+03  0.15294330000E+03 0.  0.
    8880022    1    1    2    0    0 -0.11297152726E+03 -0.59092148721E+02  0.16523900766E+03  0.25874703994E+03  0.15294330000E+03 0.  0.
<mgrwt>
<rscale>  0 0.19911329E+03</rscale>
<asrwt>0</asrwt>
<pdfrwt beam="1">  1        2 0.44332478E-01 0.19911329E+03</pdfrwt>
<pdfrwt beam="2">  1       -2 0.27212465E-01 0.19911329E+03</pdfrwt>
<totfact> 0.13855058E+03</totfact>
</mgrwt>
</event>
<event>
 4    1  0.4880711E-008  0.7207342E+03  0.7818608E-02  0.9682417E-01
         -2   -1    0    0    0  501 -0.00000000000E+00  0.00000000000E+00  0.60439932716E+03  0.60439932717E+03  0.25500000000E-02 0.  1.
          2   -1    0    0  501    0  0.00000000000E+00 -0.00000000000E+00 -0.22503973300E+04  0.22503973300E+04  0.25500000000E-02 0. -1.
    8880022    1    1    2    0    0  0.49643587875E+03  0.49961739499E+03 -0.19451961859E+04  0.20744266624E+04  0.15294330000E+03 0.  0.
    8880022    1    1    2    0    0 -0.49643587875E+03 -0.49961739499E+03  0.29919818300E+03  0.78036999482E+03  0.15294330000E+03 0.  1.
<mgrwt>
<rscale>  0 0.72073419E+03</rscale>
<asrwt>0</asrwt>
<pdfrwt beam="1">  1        2 0.34621497E+00 0.72073419E+03</pdfrwt>
<pdfrwt beam="2">  1       -2 0.92984513E-01 0.72073419E+03</pdfrwt>
<totfact> 0.49663791E+00</totfact>
</mgrwt>
</event>
<event>
 4    1  0.4880711E-008  0.3534850E+03  0.7818608E-02  0.1061194E+00
         -2   -1    0    0    0  501 -0.00000000000E+00  0.00000000000E+00  0.28337219679E+03  0.28337219680E+03  0.25500000000E-02 0.  1.
          2   -1    0    0  501    0  0.00000000000E+00 -0.00000000000E+00 -0.89119206425E+03  0.89119206425E+03  0.25500000000E-02 0. -1.
    8880022    1    1    2    0    0 -0.31833983103E+03 -0.14824667352E+02  0.11352267743E+03  0.37126684485E+03  0.15294330000E+03 0.  1.
    8880022    1    1    2    0    0  0.31833983103E+03  0.14824667352E+02 -0.72134254489E+03  0.80329741619E+03  0.15294330000E+03 0.  0.
<mgrwt>
<rscale>  0 0.35348504E+03</rscale>
<asrwt>0</asrwt>
<pdfrwt beam="1">  1        2 0.13710647E+00 0.35348504E+03</pdfrwt>
<pdfrwt beam="2">  1       -2 0.43595723E-01 0.35348504E+03</pdfrwt>
<totfact> 0.15513038E+02</totfact>
</mgrwt>
</event>
<event>
 4    1  0.4880711E-008  0.2624768E+03  0.7818608E-02  0.1105664E+00
         -2   -1    0    0    0  501 -0.00000000000E+00  0.00000000000E+00  0.60520654728E+02  0.60520654781E+02  0.25500000000E-02 0.  1.
          2   -1    0    0  501    0  0.00000000000E+00 -0.00000000000E+00 -0.19737909243E+04  0.19737909243E+04  0.25500000000E-02 0. -1.
    8880022    1    1    2    0    0  0.31881413752E+02 -0.21091702394E+03 -0.29488637336E+03  0.39478100478E+03  0.15294330000E+03 0.  0.
    8880022    1    1    2    0    0 -0.31881413752E+02  0.21091702394E+03 -0.16183838962E+04  0.16395305743E+04  0.15294330000E+03 0.  0.
<mgrwt>
<rscale>  0 0.26247680E+03</rscale>
<asrwt>0</asrwt>
<pdfrwt beam="1">  1        2 0.30366009E+00 0.26247680E+03</pdfrwt>
<pdfrwt beam="2">  1       -2 0.93108715E-02 0.26247680E+03</pdfrwt>
<totfact> 0.57208624E+02</totfact>
</mgrwt>
</event>
<event>
 4    1  0.4880711E-008  0.3181133E+03  0.7818608E-02  0.1076521E+00
          2   -1    0    0  501    0  0.00000000000E+00  0.00000000000E+00  0.98436710387E+03  0.98436710387E+03  0.25500000000E-02 0. -1.
         -2   -1    0    0    0  501 -0.00000000000E+00 -0.00000000000E+00 -0.70317399858E+03  0.70317399859E+03  0.25500000000E-02 0.  1.
    8880022    1    1    2    0    0 -0.19914154042E+03  0.19531269135E+03  0.92025206737E+03  0.97368368633E+03  0.15294330000E+03 0.  0.
    8880022    1    1    2    0    0  0.19914154042E+03 -0.19531269135E+03 -0.63905896208E+03  0.71385741612E+03  0.15294330000E+03 0.  0.
<mgrwt>
<rscale>  0 0.31811327E+03</rscale>
<asrwt>0</asrwt>
<pdfrwt beam="1">  1        2 0.15144109E+00 0.31811327E+03</pdfrwt>
<pdfrwt beam="2">  1       -2 0.10818062E+00 0.31811327E+03</pdfrwt>
<totfact> 0.19203519E+01</totfact>
</mgrwt>
</event>
<event>
 4    1  0.4880711E-008  0.6841475E+03  0.7818608E-02  0.9744733E-01
          2   -1    0    0  501    0  0.00000000000E+00  0.00000000000E+00  0.56231003934E+03  0.56231003935E+03  0.25500000000E-02 0. -1.
         -2   -1    0    0    0  501 -0.00000000000E+00 -0.00000000000E+00 -0.15127318475E+04  0.15127318475E+04  0.25500000000E-02 0.  1.
    8880022    1    1    2    0    0  0.30481225954E+03  0.59308992188E+03 -0.11710061185E+04  0.13562127973E+04  0.15294330000E+03 0.  0.
    8880022    1    1    2    0    0 -0.30481225954E+03 -0.59308992188E+03  0.22058431034E+03  0.71882908955E+03  0.15294330000E+03 0.  0.
<mgrwt>
<rscale>  0 0.68414751E+03</rscale>
<asrwt>0</asrwt>
<pdfrwt beam="1">  1        2 0.86509237E-01 0.68414751E+03</pdfrwt>
<pdfrwt beam="2">  1       -2 0.23272797E+00 0.68414751E+03</pdfrwt>
<totfact> 0.45630414E+00</totfact>
</mgrwt>
</event>
<event>
 4    1  0.4880711E-008  0.1041667E+04  0.7818608E-02  0.9263990E-01
         -2   -1    0    0    0  501 -0.00000000000E+00  0.00000000000E+00  0.12422898320E+04  0.12422898320E+04  0.25500000000E-02 0.  1.
          2   -1    0    0  501    0  0.00000000000E+00 -0.00000000000E+00 -0.19410813563E+04  0.19410813563E+04  0.25500000000E-02 0. -1.
    8880022    1    1    2    0    0  0.10301301128E+04  0.22580140959E+02  0.83105388461E+03  0.13325614898E+04  0.15294330000E+03 0.  0.
    8880022    1    1    2    0    0 -0.10301301128E+04 -0.22580140959E+02 -0.15298454089E+04  0.18508096985E+04  0.15294330000E+03 0.  0.
<mgrwt>
<rscale>  0 0.10416667E+04</rscale>
<asrwt>0</asrwt>
<pdfrwt beam="1">  1        2 0.29862790E+00 0.10416667E+04</pdfrwt>
<pdfrwt beam="2">  1       -2 0.19112151E+00 0.10416667E+04</pdfrwt>
<totfact> 0.10881197E+00</totfact>
</mgrwt>
</event>
<event>
 4    1  0.4880711E-008  0.6882245E+03  0.7818608E-02  0.9737585E-01
         -2   -1    0    0    0  501 -0.00000000000E+00  0.00000000000E+00  0.27949090916E+04  0.27949090916E+04  0.25500000000E-02 0.  1.
          2   -1    0    0  501    0  0.00000000000E+00 -0.00000000000E+00 -0.30890082020E+03  0.30890082021E+03  0.25500000000E-02 0. -1.
    8880022    1    1    2    0    0 -0.41997738395E+03  0.52333571174E+03  0.22856460003E+04  0.23870128953E+04  0.15294330000E+03 0.  0.
    8880022    1    1    2    0    0  0.41997738395E+03 -0.52333571174E+03  0.20036227102E+03  0.71679701651E+03  0.15294330000E+03 0.  0.
<mgrwt>
<rscale>  0 0.68822447E+03</rscale>
<asrwt>0</asrwt>
<pdfrwt beam="1">  1        2 0.47523206E-01 0.68822447E+03</pdfrwt>
<pdfrwt beam="2">  1       -2 0.42998599E+00 0.68822447E+03</pdfrwt>
<totfact> 0.53927691E-01</totfact>
</mgrwt>
</event>
<event>
 4    1  0.4880711E-008  0.2563373E+03  0.7818608E-02  0.1109364E+00
         -2   -1    0    0    0  501 -0.00000000000E+00  0.00000000000E+00  0.25935384834E+03  0.25935384836E+03  0.25500000000E-02 0.  1.
          2   -1    0    0  501    0  0.00000000000E+00 -0.00000000000E+00 -0.95143955643E+03  0.95143955643E+03  0.25500000000E-02 0. -1.
    8880022    1    1    2    0    0  0.12571464029E+03 -0.16282802770E+03  0.17252217944E+03  0.30898655764E+03  0.15294330000E+03 0.  1.
    8880022    1    1    2    0    0 -0.12571464029E+03  0.16282802770E+03 -0.86460788753E+03  0.90180684715E+03  0.15294330000E+03 0.  0.
<mgrwt>
<rscale>  0 0.25633726E+03</rscale>
<asrwt>0</asrwt>
<pdfrwt beam="1">  1        2 0.14637531E+00 0.25633726E+03</pdfrwt>
<pdfrwt beam="2">  1       -2 0.39900593E-01 0.25633726E+03</pdfrwt>
<totfact> 0.17077793E+02</totfact>
</mgrwt>
</event>
<event>
 4    1  0.4880711E-008  0.3940208E+03  0.7818608E-02  0.1045870E+00
          2   -1    0    0  501    0  0.00000000000E+00  0.00000000000E+00  0.12261947271E+04  0.12261947271E+04  0.25500000000E-02 0. -1.
         -2   -1    0    0    0  501 -0.00000000000E+00 -0.00000000000E+00 -0.22952138529E+03  0.22952138530E+03  0.25500000000E-02 0.  1.
    8880022    1    1    2    0    0  0.34669915670E+03  0.10798361905E+03  0.10965197249E+02  0.39417338292E+03  0.15294330000E+03 0.  0.
    8880022    1    1    2    0    0 -0.34669915670E+03 -0.10798361905E+03  0.98570814456E+03  0.10615427295E+04  0.15294330000E+03 0.  0.
<mgrwt>
<rscale>  0 0.39402084E+03</rscale>
<asrwt>0</asrwt>
<pdfrwt beam="1">  1        2 0.18864534E+00 0.39402084E+03</pdfrwt>
<pdfrwt beam="2">  1       -2 0.35310983E-01 0.39402084E+03</pdfrwt>
<totfact> 0.14453952E+02</totfact>
</mgrwt>
</event>
<event>
 4    1  0.4880711E-008  0.7574466E+03  0.7818608E-02  0.9623740E-01
         -2   -1    0    0    0  501 -0.00000000000E+00  0.00000000000E+00  0.14734406585E+04  0.14734406585E+04  0.25500000000E-02 0.  1.
          2   -1    0    0  501    0  0.00000000000E+00 -0.00000000000E+00 -0.12774936104E+04  0.12774936104E+04  0.25500000000E-02 0. -1.
    8880022    1    1    2    0    0 -0.36818830496E+03  0.64402721924E+03  0.12448208529E+04  0.14571562359E+04  0.15294330000E+03 0.  0.
    8880022    1    1    2    0    0  0.36818830496E+03 -0.64402721924E+03 -0.10488738048E+04  0.12937780329E+04  0.15294330000E+03 0.  0.
<mgrwt>
<rscale>  0 0.75744659E+03</rscale>
<asrwt>0</asrwt>
<pdfrwt beam="1">  1        2 0.19653748E+00 0.75744659E+03</pdfrwt>
<pdfrwt beam="2">  1       -2 0.22668318E+00 0.75744659E+03</pdfrwt>
<totfact> 0.15770115E+00</totfact>
</mgrwt>
</event>
<event>
 4    1  0.5967482E-008  0.3488024E+03  0.7818608E-02  0.1063108E+00
         -2   -1    0    0    0  501 -0.00000000000E+00  0.00000000000E+00  0.81888066180E+03  0.81888066181E+03  0.25500000000E-02 0.  1.
          2   -1    0    0  501    0  0.00000000000E+00 -0.00000000000E+00 -0.15781873724E+04  0.15781873724E+04  0.25500000000E-02 0. -1.
    8880022    1    1    2    0    0  0.30564019746E+03 -0.69681818551E+02 -0.15203774448E+04  0.15598752238E+04  0.15294330000E+03 0.  0.
    8880022    1    1    2    0    0 -0.30564019746E+03  0.69681818551E+02  0.76107073426E+03  0.83719281035E+03  0.15294330000E+03 0.  0.
<mgrwt>
<rscale>  0 0.34880244E+03</rscale>
<asrwt>0</asrwt>
<pdfrwt beam="1">  1        2 0.24279806E+00 0.34880244E+03</pdfrwt>
<pdfrwt beam="2">  1       -2 0.12598164E+00 0.34880244E+03</pdfrwt>
<totfact> 0.60467468E+00</totfact>
</mgrwt>
</event>
<event>
 4    1  0.4880711E-008  0.7472621E+03  0.7818608E-02  0.9639655E-01
          2   -1    0    0  501    0  0.00000000000E+00  0.00000000000E+00  0.35072408495E+04  0.35072408495E+04  0.25500000000E-02 0. -1.
         -2   -1    0    0    0  501 -0.00000000000E+00 -0.00000000000E+00 -0.56558388015E+03  0.56558388016E+03  0.25500000000E-02 0.  1.
    8880022    1    1    2    0    0 -0.31096548005E+02 -0.73078178171E+03  0.31969769626E+04  0.32831482391E+04  0.15294330000E+03 0.  0.
    8880022    1    1    2    0    0  0.31096548005E+02  0.73078178171E+03 -0.25531999322E+03  0.78967649055E+03  0.15294330000E+03 0.  0.
<mgrwt>
<rscale>  0 0.74726211E+03</rscale>
<asrwt>0</asrwt>
<pdfrwt beam="1">  1        2 0.53957551E+00 0.74726211E+03</pdfrwt>
<pdfrwt beam="2">  1       -2 0.87012905E-01 0.74726211E+03</pdfrwt>
<totfact> 0.99987767E-01</totfact>
</mgrwt>
</event>
<event>
 4    1  0.4880711E-008  0.5972468E+03  0.7818608E-02  0.9911135E-01
         -2   -1    0    0    0  501 -0.00000000000E+00  0.00000000000E+00  0.48330906532E+03  0.48330906533E+03  0.25500000000E-02 0.  1.
          2   -1    0    0  501    0  0.00000000000E+00 -0.00000000000E+00 -0.87148518778E+03  0.87148518778E+03  0.25500000000E-02 0. -1.
    8880022    1    1    2    0    0  0.71763711718E+02  0.57285430274E+03  0.70979764774E+02  0.60144980049E+03  0.15294330000E+03 0.  0.
    8880022    1    1    2    0    0 -0.71763711718E+02 -0.57285430274E+03 -0.45915588723E+03  0.75334445261E+03  0.15294330000E+03 0.  0.
<mgrwt>
<rscale>  0 0.59724680E+03</rscale>
<asrwt>0</asrwt>
<pdfrwt beam="1">  1        2 0.13407464E+00 0.59724680E+03</pdfrwt>
<pdfrwt beam="2">  1       -2 0.74355241E-01 0.59724680E+03</pdfrwt>
<totfact> 0.51337619E+01</totfact>
</mgrwt>
</event>
<event>
 4    1  0.4880711E-008  0.2230569E+03  0.7818608E-02  0.1131624E+00
         -2   -1    0    0    0  501 -0.00000000000E+00  0.00000000000E+00  0.55234502415E+03  0.55234502416E+03  0.25500000000E-02 0.  1.
          2   -1    0    0  501    0  0.00000000000E+00 -0.00000000000E+00 -0.17409299141E+04  0.17409299141E+04  0.25500000000E-02 0. -1.
    8880022    1    1    2    0    0 -0.11592743968E+02  0.16195169831E+03 -0.17108715122E+04  0.17253509001E+04  0.15294330000E+03 0.  0.
    8880022    1    1    2    0    0  0.11592743968E+02 -0.16195169831E+03  0.52228662225E+03  0.56792403814E+03  0.15294330000E+03 0.  1.
<mgrwt>
<rscale>  0 0.22305694E+03</rscale>
<asrwt>0</asrwt>
<pdfrwt beam="1">  1        2 0.26783537E+00 0.22305694E+03</pdfrwt>
<pdfrwt beam="2">  1       -2 0.84976158E-01 0.22305694E+03</pdfrwt>
<totfact> 0.13168376E+01</totfact>
</mgrwt>
</event>
<event>
 4    1  0.5879569E-008  0.4825368E+03  0.7818608E-02  0.1018440E+00
         -2   -1    0    0    0  501 -0.00000000000E+00  0.00000000000E+00  0.63626664129E+03  0.63626664130E+03  0.25500000000E-02 0.  1.
          2   -1    0    0  501    0  0.00000000000E+00 -0.00000000000E+00 -0.21387765036E+04  0.21387765036E+04  0.25500000000E-02 0. -1.
    8880022    1    1    2    0    0  0.14409052966E+02  0.45743033126E+03 -0.20145074094E+04  0.20714926706E+04  0.15294330000E+03 0.  0.
    8880022    1    1    2    0    0 -0.14409052966E+02 -0.45743033126E+03  0.51199754705E+03  0.70355047435E+03  0.15294330000E+03 0.  0.
<mgrwt>
<rscale>  0 0.48253682E+03</rscale>
<asrwt>0</asrwt>
<pdfrwt beam="1">  1        2 0.32904254E+00 0.48253682E+03</pdfrwt>
<pdfrwt beam="2">  1       -2 0.97887176E-01 0.48253682E+03</pdfrwt>
<totfact> 0.53419759E+00</totfact>
</mgrwt>
</event>
<event>
 4    1  0.4880711E-008  0.7938308E+03  0.7818608E-02  0.9568990E-01
         -2   -1    0    0    0  501 -0.00000000000E+00  0.00000000000E+00  0.52542371925E+03  0.52542371925E+03  0.25500000000E-02 0.  1.
          2   -1    0    0  501    0  0.00000000000E+00 -0.00000000000E+00 -0.20088852919E+04  0.20088852919E+04  0.25500000000E-02 0. -1.
    8880022    1    1    2    0    0 -0.43089296603E+03  0.64892748429E+03  0.62664877143E+02  0.79630030006E+03  0.15294330000E+03 0.  0.
    8880022    1    1    2    0    0  0.43089296603E+03 -0.64892748429E+03 -0.15461264498E+04  0.17380087111E+04  0.15294330000E+03 0.  0.
<mgrwt>
<rscale>  0 0.79383076E+03</rscale>
<asrwt>0</asrwt>
<pdfrwt beam="1">  1        2 0.30905927E+00 0.79383076E+03</pdfrwt>
<pdfrwt beam="2">  1       -2 0.80834419E-01 0.79383076E+03</pdfrwt>
<totfact> 0.91783311E+00</totfact>
</mgrwt>
</event>
<event>
 4    1  0.4880711E-008  0.2169751E+03  0.7818608E-02  0.1136159E+00
         -2   -1    0    0    0  501 -0.00000000000E+00  0.00000000000E+00  0.20011622613E+02  0.20011622776E+02  0.25500000000E-02 0.  1.
          2   -1    0    0  501    0  0.00000000000E+00 -0.00000000000E+00 -0.28660514491E+04  0.28660514491E+04  0.25500000000E-02 0. -1.
    8880022    1    1    2    0    0  0.15331234428E+03 -0.13485716774E+02 -0.20338323175E+04  0.20453733371E+04  0.15294330000E+03 0.  1.
    8880022    1    1    2    0    0 -0.15331234428E+03  0.13485716774E+02 -0.81220750904E+03  0.84068973481E+03  0.15294330000E+03 0.  0.
<mgrwt>
<rscale>  0 0.21697510E+03</rscale>
<asrwt>0</asrwt>
<pdfrwt beam="1">  1        2 0.44093067E+00 0.21697510E+03</pdfrwt>
<pdfrwt beam="2">  1       -2 0.30787135E-02 0.21697510E+03</pdfrwt>
<totfact> 0.10273419E+03</totfact>
</mgrwt>
</event>
<event>
 4    1  0.4880711E-008  0.4512961E+03  0.7818608E-02  0.1027336E+00
          2   -1    0    0  501    0  0.00000000000E+00  0.00000000000E+00  0.37904563900E+04  0.37904563900E+04  0.25500000000E-02 0. -1.
         -2   -1    0    0    0  501 -0.00000000000E+00 -0.00000000000E+00 -0.10851264756E+03  0.10851264759E+03  0.25500000000E-02 0.  1.
    8880022    1    1    2    0    0 -0.35432367374E+03  0.23394712004E+03  0.32261124406E+04  0.32575250810E+04  0.15294330000E+03 0.  0.
    8880022    1    1    2    0    0  0.35432367374E+03 -0.23394712004E+03  0.45583130187E+03  0.64144395666E+03  0.15294330000E+03 0.  1.
<mgrwt>
<rscale>  0 0.45129610E+03</rscale>
<asrwt>0</asrwt>
<pdfrwt beam="1">  1        2 0.58314716E+00 0.45129610E+03</pdfrwt>
<pdfrwt beam="2">  1       -2 0.16694253E-01 0.45129610E+03</pdfrwt>
<totfact> 0.17089460E+01</totfact>
</mgrwt>
</event>
<event>
 4    1  0.4880711E-008  0.9935665E+03  0.7818608E-02  0.9315629E-01
          2   -1    0    0  501    0  0.00000000000E+00  0.00000000000E+00  0.14519470085E+04  0.14519470085E+04  0.25500000000E-02 0. -1.
         -2   -1    0    0    0  501 -0.00000000000E+00 -0.00000000000E+00 -0.13074047639E+04  0.13074047639E+04  0.25500000000E-02 0.  1.
    8880022    1    1    2    0    0  0.36445239643E+03  0.91156848076E+03  0.10281032457E+04  0.14297449357E+04  0.15294330000E+03 0. -1.
    8880022    1    1    2    0    0 -0.36445239643E+03 -0.91156848076E+03 -0.88356100113E+03  0.13296068367E+04  0.15294330000E+03 0.  0.
<mgrwt>
<rscale>  0 0.99356645E+03</rscale>
<asrwt>0</asrwt>
<pdfrwt beam="1">  1        2 0.22337646E+00 0.99356645E+03</pdfrwt>
<pdfrwt beam="2">  1       -2 0.20113920E+00 0.99356645E+03</pdfrwt>
<totfact> 0.17566642E+00</totfact>
</mgrwt>
</event>
<event>
 4    1  0.4880711E-008  0.1230670E+04  0.7818608E-02  0.9086427E-01
          2   -1    0    0  501    0  0.00000000000E+00  0.00000000000E+00  0.40171894437E+04  0.40171894437E+04  0.25500000000E-02 0. -1.
         -2   -1    0    0    0  501 -0.00000000000E+00 -0.00000000000E+00 -0.42657983077E+03  0.42657983078E+03  0.25500000000E-02 0.  1.
    8880022    1    1    2    0    0 -0.77293316923E+03 -0.94537324396E+03  0.10379484465E+04  0.16099331927E+04  0.15294330000E+03 0.  0.
    8880022    1    1    2    0    0  0.77293316923E+03  0.94537324396E+03  0.25526611664E+04  0.28338360817E+04  0.15294330000E+03 0.  0.
<mgrwt>
<rscale>  0 0.12306697E+04</rscale>
<asrwt>0</asrwt>
<pdfrwt beam="1">  1        2 0.61802911E+00 0.12306697E+04</pdfrwt>
<pdfrwt beam="2">  1       -2 0.65627670E-01 0.12306697E+04</pdfrwt>
<totfact> 0.71875648E-01</totfact>
</mgrwt>
</event>
<event>
 4    1  0.4880711E-008  0.8108181E+03  0.7818608E-02  0.9544489E-01
          2   -1    0    0  501    0  0.00000000000E+00  0.00000000000E+00  0.39441197219E+03  0.39441197220E+03  0.25500000000E-02 0. -1.
         -2   -1    0    0    0  501 -0.00000000000E+00 -0.00000000000E+00 -0.19465771480E+04  0.19465771480E+04  0.25500000000E-02 0.  1.
    8880022    1    1    2    0    0 -0.35527183451E+03  0.71261228945E+03 -0.12197934842E+04  0.14646918271E+04  0.15294330000E+03 0.  0.
    8880022    1    1    2    0    0  0.35527183451E+03 -0.71261228945E+03 -0.33237169170E+03  0.87629729312E+03  0.15294330000E+03 0.  0.
<mgrwt>
<rscale>  0 0.81081811E+03</rscale>
<asrwt>0</asrwt>
<pdfrwt beam="1">  1        2 0.60678766E-01 0.81081811E+03</pdfrwt>
<pdfrwt beam="2">  1       -2 0.29947340E+00 0.81081811E+03</pdfrwt>
<totfact> 0.26688888E+00</totfact>
</mgrwt>
</event>
<event>
 4    1  0.4880711E-008  0.5611340E+03  0.7818608E-02  0.9989492E-01
         -2   -1    0    0    0  501 -0.00000000000E+00  0.00000000000E+00  0.17852343953E+03  0.17852343954E+03  0.25500000000E-02 0.  1.
          2   -1    0    0  501    0  0.00000000000E+00 -0.00000000000E+00 -0.19090222024E+04  0.19090222024E+04  0.25500000000E-02 0. -1.
    8880022    1    1    2    0    0 -0.52545536483E+03 -0.12400153741E+03 -0.57731982832E+03  0.80508978313E+03  0.15294330000E+03 0.  0.
    8880022    1    1    2    0    0  0.52545536483E+03  0.12400153741E+03 -0.11531789346E+04  0.12824558588E+04  0.15294330000E+03 0.  0.
<mgrwt>
<rscale>  0 0.56113401E+03</rscale>
<asrwt>0</asrwt>
<pdfrwt beam="1">  1        2 0.29369571E+00 0.56113401E+03</pdfrwt>
<pdfrwt beam="2">  1       -2 0.27465146E-01 0.56113401E+03</pdfrwt>
<totfact> 0.95009274E+01</totfact>
</mgrwt>
</event>
<event>
 4    1  0.4880711E-008  0.4891122E+03  0.7818608E-02  0.1016661E+00
         -2   -1    0    0    0  501 -0.00000000000E+00  0.00000000000E+00  0.16648342323E+03  0.16648342325E+03  0.25500000000E-02 0.  1.
          2   -1    0    0  501    0  0.00000000000E+00 -0.00000000000E+00 -0.17147395158E+04  0.17147395158E+04  0.25500000000E-02 0. -1.
    8880022    1    1    2    0    0  0.43036462406E+03 -0.17500112294E+03 -0.11527082017E+04  0.12521848721E+04  0.15294330000E+03 0.  0.
    8880022    1    1    2    0    0 -0.43036462406E+03  0.17500112294E+03 -0.39554789086E+03  0.62903806694E+03  0.15294330000E+03 0.  1.
<mgrwt>
<rscale>  0 0.48911221E+03</rscale>
<asrwt>0</asrwt>
<pdfrwt beam="1">  1        2 0.26380607E+00 0.48911221E+03</pdfrwt>
<pdfrwt beam="2">  1       -2 0.25612835E-01 0.48911221E+03</pdfrwt>
<totfact> 0.13856598E+02</totfact>
</mgrwt>
</event>
<event>
 4    1  0.4880711E-008  0.4717619E+03  0.7818608E-02  0.1021424E+00
          2   -1    0    0  501    0  0.00000000000E+00  0.00000000000E+00  0.68921725835E+03  0.68921725835E+03  0.25500000000E-02 0. -1.
         -2   -1    0    0    0  501 -0.00000000000E+00 -0.00000000000E+00 -0.53730762567E+03  0.53730762567E+03  0.25500000000E-02 0.  1.
    8880022    1    1    2    0    0  0.43596016721E+03 -0.95427166993E+02  0.46333624591E+03  0.66124106148E+03  0.15294330000E+03 0.  0.
    8880022    1    1    2    0    0 -0.43596016721E+03  0.95427166993E+02 -0.31142661323E+03  0.56528382255E+03  0.15294330000E+03 0.  1.
<mgrwt>
<rscale>  0 0.47176187E+03</rscale>
<asrwt>0</asrwt>
<pdfrwt beam="1">  1        2 0.10603342E+00 0.47176187E+03</pdfrwt>
<pdfrwt beam="2">  1       -2 0.82662712E-01 0.47176187E+03</pdfrwt>
<totfact> 0.55714783E+01</totfact>
</mgrwt>
</event>
<event>
 4    1  0.4880711E-008  0.3960224E+03  0.7818608E-02  0.1045166E+00
         -2   -1    0    0    0  501 -0.00000000000E+00  0.00000000000E+00  0.25355764737E+03  0.25355764738E+03  0.25500000000E-02 0.  1.
          2   -1    0    0  501    0  0.00000000000E+00 -0.00000000000E+00 -0.96715019686E+03  0.96715019686E+03  0.25500000000E-02 0. -1.
    8880022    1    1    2    0    0 -0.10201136702E+03  0.35076452427E+03  0.96491473727E+01  0.39613991158E+03  0.15294330000E+03 0.  0.
    8880022    1    1    2    0    0  0.10201136702E+03 -0.35076452427E+03 -0.72324169686E+03  0.82456793267E+03  0.15294330000E+03 0.  0.
<mgrwt>
<rscale>  0 0.39602238E+03</rscale>
<asrwt>0</asrwt>
<pdfrwt beam="1">  1        2 0.14879234E+00 0.39602238E+03</pdfrwt>
<pdfrwt beam="2">  1       -2 0.39008869E-01 0.39602238E+03</pdfrwt>
<totfact> 0.17103746E+02</totfact>
</mgrwt>
</event>
<event>
 4    1  0.4880711E-008  0.3653383E+03  0.7818608E-02  0.1056490E+00
         -2   -1    0    0    0  501 -0.00000000000E+00  0.00000000000E+00  0.23431025807E+03  0.23431025808E+03  0.25500000000E-02 0.  1.
          2   -1    0    0  501    0  0.00000000000E+00 -0.00000000000E+00 -0.15398905216E+04  0.15398905216E+04  0.25500000000E-02 0. -1.
    8880022    1    1    2    0    0  0.29238373705E+03  0.15681894907E+03 -0.13569482347E+04  0.14052688701E+04  0.15294330000E+03 0.  0.
    8880022    1    1    2    0    0 -0.29238373705E+03 -0.15681894907E+03  0.51367971151E+02  0.36893190964E+03  0.15294330000E+03 0.  0.
<mgrwt>
<rscale>  0 0.36533832E+03</rscale>
<asrwt>0</asrwt>
<pdfrwt beam="1">  1        2 0.23690623E+00 0.36533832E+03</pdfrwt>
<pdfrwt beam="2">  1       -2 0.36047733E-01 0.36533832E+03</pdfrwt>
<totfact> 0.93573666E+01</totfact>
</mgrwt>
</event>
<event>
 4    1  0.4880711E-008  0.1666435E+03  0.7818608E-02  0.1181394E+00
          2   -1    0    0  501    0  0.00000000000E+00  0.00000000000E+00  0.31929746203E+03  0.31929746204E+03  0.25500000000E-02 0. -1.
         -2   -1    0    0    0  501 -0.00000000000E+00 -0.00000000000E+00 -0.70952830503E+03  0.70952830503E+03  0.25500000000E-02 0.  1.
    8880022    1    1    2    0    0  0.55246954841E+02 -0.36416866396E+02 -0.67697017992E+03  0.69717909586E+03  0.15294330000E+03 0.  0.
    8880022    1    1    2    0    0 -0.55246954841E+02  0.36416866396E+02  0.28673933692E+03  0.33164667122E+03  0.15294330000E+03 0. -1.
<mgrwt>
<rscale>  0 0.16664353E+03</rscale>
<asrwt>0</asrwt>
<pdfrwt beam="1">  1        2 0.49122687E-01 0.16664353E+03</pdfrwt>
<pdfrwt beam="2">  1       -2 0.10915820E+00 0.16664353E+03</pdfrwt>
<totfact> 0.73083106E+01</totfact>
</mgrwt>
</event>
<event>
 4    1  0.4880711E-008  0.2746304E+03  0.7818608E-02  0.1098658E+00
          2   -1    0    0  501    0  0.00000000000E+00  0.00000000000E+00  0.15051551237E+04  0.15051551237E+04  0.25500000000E-02 0. -1.
         -2   -1    0    0    0  501 -0.00000000000E+00 -0.00000000000E+00 -0.22340485299E+03  0.22340485301E+03  0.25500000000E-02 0.  1.
    8880022    1    1    2    0    0  0.14027322617E+03 -0.17987117605E+03  0.14020811250E+04  0.14287243793E+04  0.15294330000E+03 0.  0.
    8880022    1    1    2    0    0 -0.14027322617E+03  0.17987117605E+03 -0.12033085429E+03  0.29983559739E+03  0.15294330000E+03 0.  0.
<mgrwt>
<rscale>  0 0.27463043E+03</rscale>
<asrwt>0</asrwt>
<pdfrwt beam="1">  1        2 0.23156233E+00 0.27463043E+03</pdfrwt>
<pdfrwt beam="2">  1       -2 0.34369977E-01 0.27463043E+03</pdfrwt>
<totfact> 0.10895706E+02</totfact>
</mgrwt>
</event>
<event>
 4    1  0.4880711E-008  0.4884377E+03  0.7818608E-02  0.1016842E+00
         -2   -1    0    0    0  501 -0.00000000000E+00  0.00000000000E+00  0.55184353022E+03  0.55184353023E+03  0.25500000000E-02 0.  1.
          2   -1    0    0  501    0  0.00000000000E+00 -0.00000000000E+00 -0.13070371053E+04  0.13070371053E+04  0.25500000000E-02 0. -1.
    8880022    1    1    2    0    0  0.12525116045E+03 -0.44664512397E+03 -0.11379442283E+04  0.12383410030E+04  0.15294330000E+03 0.  0.
    8880022    1    1    2    0    0 -0.12525116045E+03  0.44664512397E+03  0.38275065324E+03  0.62053963252E+03  0.15294330000E+03 0.  0.
<mgrwt>
<rscale>  0 0.48843769E+03</rscale>
<asrwt>0</asrwt>
<pdfrwt beam="1">  1        2 0.20108263E+00 0.48843769E+03</pdfrwt>
<pdfrwt beam="2">  1       -2 0.84899005E-01 0.48843769E+03</pdfrwt>
<totfact> 0.20962638E+01</totfact>
</mgrwt>
</event>
<event>
 4    1  0.4880711E-008  0.5475815E+03  0.7818608E-02  0.1002055E+00
         -2   -1    0    0    0  501 -0.00000000000E+00  0.00000000000E+00  0.40593904953E+03  0.40593904953E+03  0.25500000000E-02 0.  1.
          2   -1    0    0  501    0  0.00000000000E+00 -0.00000000000E+00 -0.37634865849E+04  0.37634865849E+04  0.25500000000E-02 0. -1.
    8880022    1    1    2    0    0 -0.46688981355E+02  0.52371170182E+03  0.19019592869E+03  0.57967227975E+03  0.15294330000E+03 0.  0.
    8880022    1    1    2    0    0  0.46688981355E+02 -0.52371170182E+03 -0.35477434640E+04  0.35897533547E+04  0.15294330000E+03 0.  0.
<mgrwt>
<rscale>  0 0.54758146E+03</rscale>
<asrwt>0</asrwt>
<pdfrwt beam="1">  1        2 0.57899791E+00 0.54758146E+03</pdfrwt>
<pdfrwt beam="2">  1       -2 0.62452164E-01 0.54758146E+03</pdfrwt>
<totfact> 0.14498558E+00</totfact>
</mgrwt>
</event>
<event>
 4    1  0.4880711E-008  0.4213218E+03  0.7818608E-02  0.1036637E+00
         -2   -1    0    0    0  501 -0.00000000000E+00  0.00000000000E+00  0.16892187644E+03  0.16892187646E+03  0.25500000000E-02 0.  1.
          2   -1    0    0  501    0  0.00000000000E+00 -0.00000000000E+00 -0.14082339549E+04  0.14082339549E+04  0.25500000000E-02 0. -1.
    8880022    1    1    2    0    0  0.18561232252E+03  0.34593134310E+03 -0.22239787421E+03  0.47641672502E+03  0.15294330000E+03 0.  0.
    8880022    1    1    2    0    0 -0.18561232252E+03 -0.34593134310E+03 -0.10169142042E+04  0.11007391063E+04  0.15294330000E+03 0.  0.
<mgrwt>
<rscale>  0 0.42132183E+03</rscale>
<asrwt>0</asrwt>
<pdfrwt beam="1">  1        2 0.21665137E+00 0.42132183E+03</pdfrwt>
<pdfrwt beam="2">  1       -2 0.25987982E-01 0.42132183E+03</pdfrwt>
<totfact> 0.20001404E+02</totfact>
</mgrwt>
</event>
<event>
 4    1  0.4880711E-008  0.9707948E+03  0.7818608E-02  0.9341170E-01
         -2   -1    0    0    0  501 -0.00000000000E+00  0.00000000000E+00  0.20691144065E+04  0.20691144065E+04  0.25500000000E-02 0.  1.
          2   -1    0    0  501    0  0.00000000000E+00 -0.00000000000E+00 -0.11266955668E+04  0.11266955668E+04  0.25500000000E-02 0. -1.
    8880022    1    1    2    0    0  0.83050204015E+03  0.47887080626E+03 -0.76211777572E+03  0.12342066459E+04  0.15294330000E+03 0.  0.
    8880022    1    1    2    0    0 -0.83050204015E+03 -0.47887080626E+03  0.17045366154E+04  0.19616033274E+04  0.15294330000E+03 0.  0.
<mgrwt>
<rscale>  0 0.97079480E+03</rscale>
<asrwt>0</asrwt>
<pdfrwt beam="1">  1        2 0.17333778E+00 0.97079480E+03</pdfrwt>
<pdfrwt beam="2">  1       -2 0.31832529E+00 0.97079480E+03</pdfrwt>
<totfact> 0.52022464E-01</totfact>
</mgrwt>
</event>
<event>
 4    1  0.4880711E-008  0.2804348E+03  0.7818608E-02  0.1095452E+00
         -2   -1    0    0    0  501 -0.00000000000E+00  0.00000000000E+00  0.34393587624E+03  0.34393587625E+03  0.25500000000E-02 0.  1.
          2   -1    0    0  501    0  0.00000000000E+00 -0.00000000000E+00 -0.13757668749E+04  0.13757668749E+04  0.25500000000E-02 0. -1.
    8880022    1    1    2    0    0 -0.22850121981E+03 -0.55129058733E+02 -0.13010666922E+04  0.13309463592E+04  0.15294330000E+03 0. -1.
    8880022    1    1    2    0    0  0.22850121981E+03  0.55129058733E+02  0.26923569354E+03  0.38875639193E+03  0.15294330000E+03 0.  0.
<mgrwt>
<rscale>  0 0.28043479E+03</rscale>
<asrwt>0</asrwt>
<pdfrwt beam="1">  1        2 0.21165644E+00 0.28043479E+03</pdfrwt>
<pdfrwt beam="2">  1       -2 0.52913213E-01 0.28043479E+03</pdfrwt>
<totfact> 0.55275710E+01</totfact>
</mgrwt>
</event>
<event>
 4    1  0.4880711E-008  0.2114143E+03  0.7818608E-02  0.1140451E+00
          2   -1    0    0  501    0  0.00000000000E+00  0.00000000000E+00  0.12090822092E+03  0.12090822095E+03  0.25500000000E-02 0. -1.
         -2   -1    0    0    0  501 -0.00000000000E+00 -0.00000000000E+00 -0.45147583485E+03  0.45147583485E+03  0.25500000000E-02 0.  1.
    8880022    1    1    2    0    0  0.14548031117E+03 -0.11824806587E+02 -0.28710855892E+03  0.35654918961E+03  0.15294330000E+03 0.  1.
    8880022    1    1    2    0    0 -0.14548031117E+03  0.11824806587E+02 -0.43459054998E+02  0.21583486619E+03  0.15294330000E+03 0.  0.
<mgrwt>
<rscale>  0 0.21141429E+03</rscale>
<asrwt>0</asrwt>
<pdfrwt beam="1">  1        2 0.18601265E-01 0.21141429E+03</pdfrwt>
<pdfrwt beam="2">  1       -2 0.69457820E-01 0.21141429E+03</pdfrwt>
<totfact> 0.58495996E+02</totfact>
</mgrwt>
</event>
<event>
 4    1  0.4880711E-008  0.3557794E+03  0.7818608E-02  0.1060268E+00
          2   -1    0    0  501    0  0.00000000000E+00  0.00000000000E+00  0.22675174751E+04  0.22675174751E+04  0.25500000000E-02 0. -1.
         -2   -1    0    0    0  501 -0.00000000000E+00 -0.00000000000E+00 -0.97348683800E+02  0.97348683833E+02  0.25500000000E-02 0.  1.
    8880022    1    1    2    0    0  0.18714507091E+03  0.26108243879E+03  0.18573584455E+04  0.18911264806E+04  0.15294330000E+03 0.  0.
    8880022    1    1    2    0    0 -0.18714507091E+03 -0.26108243879E+03  0.31281034580E+03  0.47373967837E+03  0.15294330000E+03 0.  1.
<mgrwt>
<rscale>  0 0.35577938E+03</rscale>
<asrwt>0</asrwt>
<pdfrwt beam="1">  1        2 0.34884884E+00 0.35577938E+03</pdfrwt>
<pdfrwt beam="2">  1       -2 0.14976720E-01 0.35577938E+03</pdfrwt>
<totfact> 0.18108382E+02</totfact>
</mgrwt>
</event>
<event>
 4    1  0.5199195E-008  0.8526608E+03  0.7818608E-02  0.9486773E-01
         -2   -1    0    0    0  501 -0.00000000000E+00  0.00000000000E+00  0.11087479607E+04  0.11087479607E+04  0.25500000000E-02 0.  1.
          2   -1    0    0  501    0  0.00000000000E+00 -0.00000000000E+00 -0.13577220012E+04  0.13577220012E+04  0.25500000000E-02 0. -1.
    8880022    1    1    2    0    0 -0.46524246288E+02  0.83754064604E+03 -0.10112528430E+04  0.13227482016E+04  0.15294330000E+03 0.  0.
    8880022    1    1    2    0    0  0.46524246288E+02 -0.83754064604E+03  0.76227880247E+03  0.11437217603E+04  0.15294330000E+03 0.  0.
<mgrwt>
<rscale>  0 0.85266083E+03</rscale>
<asrwt>0</asrwt>
<pdfrwt beam="1">  1        2 0.20888031E+00 0.85266083E+03</pdfrwt>
<pdfrwt beam="2">  1       -2 0.17057661E+00 0.85266083E+03</pdfrwt>
<totfact> 0.32647578E+00</totfact>
</mgrwt>
</event>
<event>
 4    1  0.4880711E-008  0.1288430E+04  0.7818608E-02  0.9038791E-01
          2   -1    0    0  501    0  0.00000000000E+00  0.00000000000E+00  0.15053532983E+04  0.15053532983E+04  0.25500000000E-02 0. -1.
         -2   -1    0    0    0  501 -0.00000000000E+00 -0.00000000000E+00 -0.15851629557E+04  0.15851629557E+04  0.25500000000E-02 0.  1.
    8880022    1    1    2    0    0  0.12598885443E+04  0.22212819915E+03 -0.89235022175E+03  0.15672717225E+04  0.15294330000E+03 0.  0.
    8880022    1    1    2    0    0 -0.12598885443E+04 -0.22212819915E+03  0.81254056438E+03  0.15232445315E+04  0.15294330000E+03 0.  0.
<mgrwt>
<rscale>  0 0.12884299E+04</rscale>
<asrwt>0</asrwt>
<pdfrwt beam="1">  1        2 0.23159282E+00 0.12884299E+04</pdfrwt>
<pdfrwt beam="2">  1       -2 0.24387122E+00 0.12884299E+04</pdfrwt>
<totfact> 0.84951033E-01</totfact>
</mgrwt>
</event>
<event>
 4    1  0.4880711E-008  0.4530224E+03  0.7818608E-02  0.1026825E+00
         -2   -1    0    0    0  501 -0.00000000000E+00  0.00000000000E+00  0.29636089673E+03  0.29636089674E+03  0.25500000000E-02 0.  1.
          2   -1    0    0  501    0  0.00000000000E+00 -0.00000000000E+00 -0.14200248747E+04  0.14200248747E+04  0.25500000000E-02 0. -1.
    8880022    1    1    2    0    0  0.97015139076E+02  0.41524179023E+03  0.52441041262E+02  0.45604758237E+03  0.15294330000E+03 0.  0.
    8880022    1    1    2    0    0 -0.97015139076E+02 -0.41524179023E+03 -0.11761050192E+04  0.12603381891E+04  0.15294330000E+03 0.  0.
<mgrwt>
<rscale>  0 0.45302244E+03</rscale>
<asrwt>0</asrwt>
<pdfrwt beam="1">  1        2 0.21846536E+00 0.45302244E+03</pdfrwt>
<pdfrwt beam="2">  1       -2 0.45593985E-01 0.45302244E+03</pdfrwt>
<totfact> 0.67983558E+01</totfact>
</mgrwt>
</event>
<event>
 4    1  0.4880711E-008  0.8129715E+03  0.7818608E-02  0.9541429E-01
         -2   -1    0    0    0  501 -0.00000000000E+00  0.00000000000E+00  0.89761613330E+03  0.89761613330E+03  0.25500000000E-02 0.  1.
          2   -1    0    0  501    0  0.00000000000E+00 -0.00000000000E+00 -0.14491097195E+04  0.14491097195E+04  0.25500000000E-02 0. -1.
    8880022    1    1    2    0    0  0.77265694865E+03  0.20132622279E+03 -0.10986823964E+04  0.13667573557E+04  0.15294330000E+03 0.  0.
    8880022    1    1    2    0    0 -0.77265694865E+03 -0.20132622279E+03  0.54718881018E+03  0.97996849709E+03  0.15294330000E+03 0.  0.
<mgrwt>
<rscale>  0 0.81297150E+03</rscale>
<asrwt>0</asrwt>
<pdfrwt beam="1">  1        2 0.22293996E+00 0.81297150E+03</pdfrwt>
<pdfrwt beam="2">  1       -2 0.13809479E+00 0.81297150E+03</pdfrwt>
<totfact> 0.51281648E+00</totfact>
</mgrwt>
</event>
<event>
 4    1  0.4880711E-008  0.5856737E+03  0.7818608E-02  0.9935583E-01
          2   -1    0    0  501    0  0.00000000000E+00  0.00000000000E+00  0.17879117109E+04  0.17879117109E+04  0.25500000000E-02 0. -1.
         -2   -1    0    0    0  501 -0.00000000000E+00 -0.00000000000E+00 -0.24845935212E+03  0.24845935213E+03  0.25500000000E-02 0.  1.
    8880022    1    1    2    0    0  0.34341028939E+03  0.44910060506E+03  0.12557274369E+04  0.13855919418E+04  0.15294330000E+03 0.  0.
    8880022    1    1    2    0    0 -0.34341028939E+03 -0.44910060506E+03  0.28372492185E+03  0.65077912122E+03  0.15294330000E+03 0.  0.
<mgrwt>
<rscale>  0 0.58567366E+03</rscale>
<asrwt>0</asrwt>
<pdfrwt beam="1">  1        2 0.27506334E+00 0.58567366E+03</pdfrwt>
<pdfrwt beam="2">  1       -2 0.38224516E-01 0.58567366E+03</pdfrwt>
<totfact> 0.59275007E+01</totfact>
</mgrwt>
</event>
<event>
 4    1  0.4880711E-008  0.3239537E+03  0.7818608E-02  0.1073844E+00
          2   -1    0    0  501    0  0.00000000000E+00  0.00000000000E+00  0.13796608310E+04  0.13796608310E+04  0.25500000000E-02 0. -1.
         -2   -1    0    0    0  501 -0.00000000000E+00 -0.00000000000E+00 -0.14695735325E+03  0.14695735327E+03  0.25500000000E-02 0.  1.
    8880022    1    1    2    0    0  0.57643107806E+02 -0.27969913647E+03  0.11465030481E+04  0.11913921383E+04  0.15294330000E+03 0.  0.
    8880022    1    1    2    0    0 -0.57643107806E+02  0.27969913647E+03  0.86200429623E+02  0.33522604597E+03  0.15294330000E+03 0.  1.
<mgrwt>
<rscale>  0 0.32395368E+03</rscale>
<asrwt>0</asrwt>
<pdfrwt beam="1">  1        2 0.21225551E+00 0.32395368E+03</pdfrwt>
<pdfrwt beam="2">  1       -2 0.22608824E-01 0.32395368E+03</pdfrwt>
<totfact> 0.26908847E+02</totfact>
</mgrwt>
</event>
<event>
 4    1  0.4880711E-008  0.2319321E+03  0.7818608E-02  0.1125287E+00
         -2   -1    0    0    0  501 -0.00000000000E+00  0.00000000000E+00  0.76530594875E+02  0.76530594917E+02  0.25500000000E-02 0.  1.
          2   -1    0    0  501    0  0.00000000000E+00 -0.00000000000E+00 -0.12507762432E+04  0.12507762432E+04  0.25500000000E-02 0. -1.
    8880022    1    1    2    0    0  0.25120102629E+02  0.17253938778E+03 -0.10263580078E+04  0.10522372703E+04  0.15294330000E+03 0.  0.
    8880022    1    1    2    0    0 -0.25120102629E+02 -0.17253938778E+03 -0.14788764054E+03  0.27506956780E+03  0.15294330000E+03 0.  0.
<mgrwt>
<rscale>  0 0.23193213E+03</rscale>
<asrwt>0</asrwt>
<pdfrwt beam="1">  1        2 0.19242710E+00 0.23193213E+03</pdfrwt>
<pdfrwt beam="2">  1       -2 0.11773939E-01 0.23193213E+03</pdfrwt>
<totfact> 0.95779198E+02</totfact>
</mgrwt>
</event>
<event>
 4    1  0.4880711E-008  0.5338397E+03  0.7818608E-02  0.1005305E+00
          2   -1    0    0  501    0  0.00000000000E+00  0.00000000000E+00  0.55193067377E+03  0.55193067377E+03  0.25500000000E-02 0. -1.
         -2   -1    0    0    0  501 -0.00000000000E+00 -0.00000000000E+00 -0.70980590572E+03  0.70980590573E+03  0.25500000000E-02 0.  1.
    8880022    1    1    2    0    0 -0.37710070227E+03 -0.34552599803E+03  0.25042115681E+03  0.58965715781E+03  0.15294330000E+03 0.  0.
    8880022    1    1    2    0    0  0.37710070227E+03  0.34552599803E+03 -0.40829638876E+03  0.67207942169E+03  0.15294330000E+03 0.  0.
<mgrwt>
<rscale>  0 0.53383968E+03</rscale>
<asrwt>0</asrwt>
<pdfrwt beam="1">  1        2 0.84912411E-01 0.53383968E+03</pdfrwt>
<pdfrwt beam="2">  1       -2 0.10920091E+00 0.53383968E+03</pdfrwt>
<totfact> 0.37825799E+01</totfact>
</mgrwt>
</event>
<event>
 4    1  0.4880711E-008  0.1711507E+03  0.7818608E-02  0.1176653E+00
         -2   -1    0    0    0  501 -0.00000000000E+00  0.00000000000E+00  0.55387960063E+03  0.55387960063E+03  0.25500000000E-02 0.  1.
          2   -1    0    0  501    0  0.00000000000E+00 -0.00000000000E+00 -0.14266698888E+04  0.14266698888E+04  0.25500000000E-02 0. -1.
    8880022    1    1    2    0    0  0.42400769287E+02 -0.64055355983E+02 -0.14081419891E+04  0.14185049977E+04  0.15294330000E+03 0. -1.
    8880022    1    1    2    0    0 -0.42400769287E+02  0.64055355983E+02  0.53535170101E+03  0.56204449170E+03  0.15294330000E+03 0.  0.
<mgrwt>
<rscale>  0 0.17115071E+03</rscale>
<asrwt>0</asrwt>
<pdfrwt beam="1">  1        2 0.21948767E+00 0.17115071E+03</pdfrwt>
<pdfrwt beam="2">  1       -2 0.85212247E-01 0.17115071E+03</pdfrwt>
<totfact> 0.19670807E+01</totfact>
</mgrwt>
</event>
<event>
 4    1  0.4880711E-008  0.2667729E+03  0.7818608E-02  0.1103141E+00
          2   -1    0    0  501    0  0.00000000000E+00  0.00000000000E+00  0.17395015040E+04  0.17395015040E+04  0.25500000000E-02 0. -1.
         -2   -1    0    0    0  501 -0.00000000000E+00 -0.00000000000E+00 -0.31652318112E+03  0.31652318113E+03  0.25500000000E-02 0.  1.
    8880022    1    1    2    0    0  0.20425414721E+03 -0.77822846997E+02  0.16707647360E+04  0.16919286653E+04  0.15294330000E+03 0.  0.
    8880022    1    1    2    0    0 -0.20425414721E+03  0.77822846997E+02 -0.24778641312E+03  0.36409601990E+03  0.15294330000E+03 0.  0.
<mgrwt>
<rscale>  0 0.26677295E+03</rscale>
<asrwt>0</asrwt>
<pdfrwt beam="1">  1        2 0.26761561E+00 0.26677295E+03</pdfrwt>
<pdfrwt beam="2">  1       -2 0.48695874E-01 0.26677295E+03</pdfrwt>
<totfact> 0.41922439E+01</totfact>
</mgrwt>
</event>
<event>
 4    1  0.4880711E-008  0.1222112E+04  0.7818608E-02  0.9093719E-01
          2   -1    0    0  501    0  0.00000000000E+00  0.00000000000E+00  0.15965594979E+04  0.15965594979E+04  0.25500000000E-02 0. -1.
         -2   -1    0    0    0  501 -0.00000000000E+00 -0.00000000000E+00 -0.12734674169E+04  0.12734674169E+04  0.25500000000E-02 0.  1.
    8880022    1    1    2    0    0  0.11831254157E+04  0.26529310082E+03 -0.57773396425E+03  0.13517893197E+04  0.15294330000E+03 0.  0.
    8880022    1    1    2    0    0 -0.11831254157E+04 -0.26529310082E+03  0.90082604525E+03  0.15182375951E+04  0.15294330000E+03 0.  0.
<mgrwt>
<rscale>  0 0.12221120E+04</rscale>
<asrwt>0</asrwt>
<pdfrwt beam="1">  1        2 0.24562454E+00 0.12221120E+04</pdfrwt>
<pdfrwt beam="2">  1       -2 0.19591807E+00 0.12221120E+04</pdfrwt>
<totfact> 0.15340114E+00</totfact>
</mgrwt>
</event>
<event>
 4    1  0.4880711E-008  0.5121873E+03  0.7818608E-02  0.1010646E+00
          2   -1    0    0  501    0  0.00000000000E+00  0.00000000000E+00  0.11096327801E+04  0.11096327801E+04  0.25500000000E-02 0. -1.
         -2   -1    0    0    0  501 -0.00000000000E+00 -0.00000000000E+00 -0.51868353188E+03  0.51868353189E+03  0.25500000000E-02 0.  1.
    8880022    1    1    2    0    0 -0.11458810307E+03  0.47519862338E+03  0.89607749619E+03  0.10321292057E+04  0.15294330000E+03 0.  0.
    8880022    1    1    2    0    0  0.11458810307E+03 -0.47519862338E+03 -0.30512824796E+03  0.59618710632E+03  0.15294330000E+03 0.  0.
<mgrwt>
<rscale>  0 0.51218729E+03</rscale>
<asrwt>0</asrwt>
<pdfrwt beam="1">  1        2 0.17071274E+00 0.51218729E+03</pdfrwt>
<pdfrwt beam="2">  1       -2 0.79797466E-01 0.51218729E+03</pdfrwt>
<totfact> 0.31285475E+01</totfact>
</mgrwt>
</event>
<event>
 4    1  0.4880711E-008  0.5965183E+03  0.7818608E-02  0.9912656E-01
         -2   -1    0    0    0  501 -0.00000000000E+00  0.00000000000E+00  0.85634721418E+03  0.85634721419E+03  0.25500000000E-02 0.  1.
          2   -1    0    0  501    0  0.00000000000E+00 -0.00000000000E+00 -0.10182137610E+04  0.10182137610E+04  0.25500000000E-02 0. -1.
    8880022    1    1    2    0    0  0.51730949260E+03  0.25462387581E+03 -0.80203489202E+03  0.99954692251E+03  0.15294330000E+03 0.  0.
    8880022    1    1    2    0    0 -0.51730949260E+03 -0.25462387581E+03  0.64016834518E+03  0.87501405271E+03  0.15294330000E+03 0.  0.
<mgrwt>
<rscale>  0 0.59651830E+03</rscale>
<asrwt>0</asrwt>
<pdfrwt beam="1">  1        2 0.15664827E+00 0.59651830E+03</pdfrwt>
<pdfrwt beam="2">  1       -2 0.13174573E+00 0.59651830E+03</pdfrwt>
<totfact> 0.10692906E+01</totfact>
</mgrwt>
</event>
<event>
 4    1  0.4880711E-008  0.2805569E+03  0.7818608E-02  0.1095385E+00
          2   -1    0    0  501    0  0.00000000000E+00  0.00000000000E+00  0.75165156138E+03  0.75165156139E+03  0.25500000000E-02 0. -1.
         -2   -1    0    0    0  501 -0.00000000000E+00 -0.00000000000E+00 -0.23179292955E+03  0.23179292956E+03  0.25500000000E-02 0.  1.
    8880022    1    1    2    0    0 -0.20339401845E+02  0.23432204752E+03 -0.10415173024E+03  0.29926534906E+03  0.15294330000E+03 0. -1.
    8880022    1    1    2    0    0  0.20339401845E+02 -0.23432204752E+03  0.62401036207E+03  0.68417914189E+03  0.15294330000E+03 0.  0.
<mgrwt>
<rscale>  0 0.28055689E+03</rscale>
<asrwt>0</asrwt>
<pdfrwt beam="1">  1        2 0.11563870E+00 0.28055689E+03</pdfrwt>
<pdfrwt beam="2">  1       -2 0.35660451E-01 0.28055689E+03</pdfrwt>
<totfact> 0.28686724E+02</totfact>
</mgrwt>
</event>
<event>
 4    1  0.4880711E-008  0.2696163E+03  0.7818608E-02  0.1101499E+00
          2   -1    0    0  501    0  0.00000000000E+00  0.00000000000E+00  0.26359924028E+04  0.26359924028E+04  0.25500000000E-02 0. -1.
         -2   -1    0    0    0  501 -0.00000000000E+00 -0.00000000000E+00 -0.15059314685E+03  0.15059314687E+03  0.25500000000E-02 0.  1.
    8880022    1    1    2    0    0  0.19348136796E+03 -0.10893245877E+03  0.25019749698E+04  0.25164601572E+04  0.15294330000E+03 0.  0.
    8880022    1    1    2    0    0 -0.19348136796E+03  0.10893245877E+03 -0.16575713887E+02  0.27012539241E+03  0.15294330000E+03 0.  0.
<mgrwt>
<rscale>  0 0.26961634E+03</rscale>
<asrwt>0</asrwt>
<pdfrwt beam="1">  1        2 0.40553728E+00 0.26961634E+03</pdfrwt>
<pdfrwt beam="2">  1       -2 0.23168177E-01 0.26961634E+03</pdfrwt>
<totfact> 0.55361461E+01</totfact>
</mgrwt>
</event>
<event>
 4    1  0.4880711E-008  0.3995240E+03  0.7818608E-02  0.1043945E+00
         -2   -1    0    0    0  501 -0.00000000000E+00  0.00000000000E+00  0.48580875219E+03  0.48580875220E+03  0.25500000000E-02 0.  1.
          2   -1    0    0  501    0  0.00000000000E+00 -0.00000000000E+00 -0.15115314703E+04  0.15115314703E+04  0.25500000000E-02 0. -1.
    8880022    1    1    2    0    0  0.32763425327E+03  0.16995175227E+03 -0.13963475901E+04  0.14523794433E+04  0.15294330000E+03 0. -1.
    8880022    1    1    2    0    0 -0.32763425327E+03 -0.16995175227E+03  0.37062487203E+03  0.54496077913E+03  0.15294330000E+03 0.  0.
<mgrwt>
<rscale>  0 0.39952404E+03</rscale>
<asrwt>0</asrwt>
<pdfrwt beam="1">  1        2 0.23254330E+00 0.39952404E+03</pdfrwt>
<pdfrwt beam="2">  1       -2 0.74739809E-01 0.39952404E+03</pdfrwt>
<totfact> 0.21843534E+01</totfact>
</mgrwt>
</event>
<event>
 4    1  0.4880711E-008  0.4479832E+03  0.7818608E-02  0.1028325E+00
          2   -1    0    0  501    0  0.00000000000E+00  0.00000000000E+00  0.11478549247E+04  0.11478549247E+04  0.25500000000E-02 0. -1.
         -2   -1    0    0    0  501 -0.00000000000E+00 -0.00000000000E+00 -0.44963143993E+03  0.44963143994E+03  0.25500000000E-02 0.  1.
    8880022    1    1    2    0    0  0.28103791076E+03  0.31355220475E+03 -0.27531545685E+03  0.52582083088E+03  0.15294330000E+03 0.  0.
    8880022    1    1    2    0    0 -0.28103791076E+03 -0.31355220475E+03  0.97353894161E+03  0.10716655337E+04  0.15294330000E+03 0.  0.
<mgrwt>
<rscale>  0 0.44798320E+03</rscale>
<asrwt>0</asrwt>
<pdfrwt beam="1">  1        2 0.17659306E+00 0.44798320E+03</pdfrwt>
<pdfrwt beam="2">  1       -2 0.69174068E-01 0.44798320E+03</pdfrwt>
<totfact> 0.41042072E+01</totfact>
</mgrwt>
</event>
<event>
 4    1  0.4880711E-008  0.4289237E+03  0.7818608E-02  0.1034200E+00
         -2   -1    0    0    0  501 -0.00000000000E+00  0.00000000000E+00  0.13659361600E+03  0.13659361602E+03  0.25500000000E-02 0.  1.
          2   -1    0    0  501    0  0.00000000000E+00 -0.00000000000E+00 -0.16687981046E+04  0.16687981046E+04  0.25500000000E-02 0. -1.
    8880022    1    1    2    0    0  0.33290607192E+03 -0.22306376857E+03 -0.36963202711E+03  0.56621849674E+03  0.15294330000E+03 0.  0.
    8880022    1    1    2    0    0 -0.33290607192E+03  0.22306376857E+03 -0.11625724615E+04  0.12391732239E+04  0.15294330000E+03 0. -1.
<mgrwt>
<rscale>  0 0.42892371E+03</rscale>
<asrwt>0</asrwt>
<pdfrwt beam="1">  1        2 0.25673816E+00 0.42892371E+03</pdfrwt>
<pdfrwt beam="2">  1       -2 0.21014404E-01 0.42892371E+03</pdfrwt>
<totfact> 0.20996222E+02</totfact>
</mgrwt>
</event>
<event>
 4    1  0.4880711E-008  0.5143760E+03  0.7818608E-02  0.1010093E+00
          2   -1    0    0  501    0  0.00000000000E+00  0.00000000000E+00  0.15836837854E+04  0.15836837854E+04  0.25500000000E-02 0. -1.
         -2   -1    0    0    0  501 -0.00000000000E+00 -0.00000000000E+00 -0.54641036798E+03  0.54641036799E+03  0.25500000000E-02 0.  1.
    8880022    1    1    2    0    0 -0.46320843128E+03  0.16318380038E+03 -0.36877488061E+03  0.63291197579E+03  0.15294330000E+03 0.  0.
    8880022    1    1    2    0    0  0.46320843128E+03 -0.16318380038E+03  0.14060482980E+04  0.14971821776E+04  0.15294330000E+03 0.  0.
<mgrwt>
<rscale>  0 0.51437599E+03</rscale>
<asrwt>0</asrwt>
<pdfrwt beam="1">  1        2 0.24364366E+00 0.51437599E+03</pdfrwt>
<pdfrwt beam="2">  1       -2 0.84063134E-01 0.51437599E+03</pdfrwt>
<totfact> 0.14988421E+01</totfact>
</mgrwt>
</event>
<event>
 4    1  0.4880711E-008  0.1407689E+04  0.7818608E-02  0.8948272E-01
         -2   -1    0    0    0  501 -0.00000000000E+00  0.00000000000E+00  0.83793139020E+03  0.83793139020E+03  0.25500000000E-02 0.  1.
          2   -1    0    0  501    0  0.00000000000E+00 -0.00000000000E+00 -0.30321979848E+04  0.30321979848E+04  0.25500000000E-02 0. -1.
    8880022    1    1    2    0    0  0.10323255935E+04 -0.94472261928E+03 -0.18933296317E+03  0.14203645949E+04  0.15294330000E+03 0.  0.
    8880022    1    1    2    0    0 -0.10323255935E+04  0.94472261928E+03 -0.20049336315E+04  0.24497647801E+04  0.15294330000E+03 0.  0.
<mgrwt>
<rscale>  0 0.14076891E+04</rscale>
<asrwt>0</asrwt>
<pdfrwt beam="1">  1        2 0.46649199E+00 0.14076891E+04</pdfrwt>
<pdfrwt beam="2">  1       -2 0.12891252E+00 0.14076891E+04</pdfrwt>
<totfact> 0.70883769E-01</totfact>
</mgrwt>
</event>
<event>
 4    1  0.7639335E-008  0.1828315E+04  0.7818608E-02  0.8691385E-01
          2   -1    0    0  501    0  0.00000000000E+00  0.00000000000E+00  0.27018860011E+04  0.27018860011E+04  0.25500000000E-02 0. -1.
         -2   -1    0    0    0  501 -0.00000000000E+00 -0.00000000000E+00 -0.20623348895E+04  0.20623348895E+04  0.25500000000E-02 0.  1.
    8880022    1    1    2    0    0 -0.10837809059E+04  0.14645011484E+04  0.18265504740E+04  0.25843805743E+04  0.15294330000E+03 0.  0.
    8880022    1    1    2    0    0  0.10837809059E+04 -0.14645011484E+04 -0.11869993623E+04  0.21798403164E+04  0.15294330000E+03 0.  0.
<mgrwt>
<rscale>  0 0.18283152E+04</rscale>
<asrwt>0</asrwt>
<pdfrwt beam="1">  1        2 0.41567477E+00 0.18283152E+04</pdfrwt>
<pdfrwt beam="2">  1       -2 0.31728229E+00 0.18283152E+04</pdfrwt>
<totfact> 0.59404338E-02</totfact>
</mgrwt>
</event>
<event>
 4    1  0.4880711E-008  0.3403693E+03  0.7818608E-02  0.1066639E+00
         -2   -1    0    0    0  501 -0.00000000000E+00  0.00000000000E+00  0.52728423267E+03  0.52728423268E+03  0.25500000000E-02 0.  1.
          2   -1    0    0  501    0  0.00000000000E+00 -0.00000000000E+00 -0.18212492596E+04  0.18212492596E+04  0.25500000000E-02 0. -1.
    8880022    1    1    2    0    0  0.26555914864E+03 -0.14811453773E+03  0.45417754042E+03  0.56756362547E+03  0.15294330000E+03 0.  0.
    8880022    1    1    2    0    0 -0.26555914864E+03  0.14811453773E+03 -0.17481425674E+04  0.17809698668E+04  0.15294330000E+03 0.  0.
<mgrwt>
<rscale>  0 0.34036926E+03</rscale>
<asrwt>0</asrwt>
<pdfrwt beam="1">  1        2 0.28019219E+00 0.34036926E+03</pdfrwt>
<pdfrwt beam="2">  1       -2 0.81120652E-01 0.34036926E+03</pdfrwt>
<totfact> 0.12644459E+01</totfact>
</mgrwt>
</event>
<event>
 4    1  0.4880711E-008  0.6789886E+03  0.7818608E-02  0.9753855E-01
          2   -1    0    0  501    0  0.00000000000E+00  0.00000000000E+00  0.21388308272E+04  0.21388308272E+04  0.25500000000E-02 0. -1.
         -2   -1    0    0    0  501 -0.00000000000E+00 -0.00000000000E+00 -0.83233637739E+03  0.83233637740E+03  0.25500000000E-02 0.  1.
    8880022    1    1    2    0    0 -0.64113455642E+03 -0.16303463069E+03  0.19320835591E+04  0.20479190273E+04  0.15294330000E+03 0.  0.
    8880022    1    1    2    0    0  0.64113455642E+03  0.16303463069E+03 -0.62558910925E+03  0.92324817729E+03  0.15294330000E+03 0.  0.
<mgrwt>
<rscale>  0 0.67898856E+03</rscale>
<asrwt>0</asrwt>
<pdfrwt beam="1">  1        2 0.32905089E+00 0.67898856E+03</pdfrwt>
<pdfrwt beam="2">  1       -2 0.12805175E+00 0.67898856E+03</pdfrwt>
<totfact> 0.26599891E+00</totfact>
</mgrwt>
</event>
<event>
 4    1  0.4880711E-008  0.4486364E+03  0.7818608E-02  0.1028129E+00
         -2   -1    0    0    0  501 -0.00000000000E+00  0.00000000000E+00  0.91756289965E+03  0.91756289965E+03  0.25500000000E-02 0.  1.
          2   -1    0    0  501    0  0.00000000000E+00 -0.00000000000E+00 -0.43243704641E+03  0.43243704642E+03  0.25500000000E-02 0. -1.
    8880022    1    1    2    0    0 -0.42097314622E+03  0.25779771028E+02 -0.23125645136E+03  0.50473179585E+03  0.15294330000E+03 0.  0.
    8880022    1    1    2    0    0  0.42097314622E+03 -0.25779771028E+02  0.71638230460E+03  0.84526815022E+03  0.15294330000E+03 0.  0.
<mgrwt>
<rscale>  0 0.44863642E+03</rscale>
<asrwt>0</asrwt>
<pdfrwt beam="1">  1        2 0.66528776E-01 0.44863642E+03</pdfrwt>
<pdfrwt beam="2">  1       -2 0.14116352E+00 0.44863642E+03</pdfrwt>
<totfact> 0.26694781E+01</totfact>
</mgrwt>
</event>
<event>
 4    1  0.4880711E-008  0.4237408E+03  0.7818608E-02  0.1035856E+00
          2   -1    0    0  501    0  0.00000000000E+00  0.00000000000E+00  0.97808707680E+03  0.97808707680E+03  0.25500000000E-02 0. -1.
         -2   -1    0    0    0  501 -0.00000000000E+00 -0.00000000000E+00 -0.29547425572E+03  0.29547425574E+03  0.25500000000E-02 0.  1.
    8880022    1    1    2    0    0 -0.21032362278E+03  0.33455734495E+03 -0.50557966277E+02  0.42674629972E+03  0.15294330000E+03 0.  0.
    8880022    1    1    2    0    0  0.21032362278E+03 -0.33455734495E+03  0.73317078735E+03  0.84681503282E+03  0.15294330000E+03 0.  0.
<mgrwt>
<rscale>  0 0.42374084E+03</rscale>
<asrwt>0</asrwt>
<pdfrwt beam="1">  1        2 0.15047494E+00 0.42374084E+03</pdfrwt>
<pdfrwt beam="2">  1       -2 0.45457578E-01 0.42374084E+03</pdfrwt>
<totfact> 0.12450694E+02</totfact>
</mgrwt>
</event>
<event>
 4    1  0.4880711E-008  0.3824095E+03  0.7818608E-02  0.1050047E+00
         -2   -1    0    0    0  501 -0.00000000000E+00  0.00000000000E+00  0.56501076310E+03  0.56501076311E+03  0.25500000000E-02 0.  1.
          2   -1    0    0  501    0  0.00000000000E+00 -0.00000000000E+00 -0.33852626978E+04  0.33852626978E+04  0.25500000000E-02 0. -1.
    8880022    1    1    2    0    0  0.36218351012E+02  0.34861668080E+03  0.48800467505E+03  0.61998836680E+03  0.15294330000E+03 0.  0.
    8880022    1    1    2    0    0 -0.36218351012E+02 -0.34861668080E+03 -0.33082566097E+04  0.33302850941E+04  0.15294330000E+03 0.  0.
<mgrwt>
<rscale>  0 0.38240948E+03</rscale>
<asrwt>0</asrwt>
<pdfrwt beam="1">  1        2 0.52080963E+00 0.38240948E+03</pdfrwt>
<pdfrwt beam="2">  1       -2 0.86924735E-01 0.38240948E+03</pdfrwt>
<totfact> 0.13637668E+00</totfact>
</mgrwt>
</event>
<event>
 4    1  0.4880711E-008  0.7510678E+03  0.7818608E-02  0.9633677E-01
          2   -1    0    0  501    0  0.00000000000E+00  0.00000000000E+00  0.22600860663E+04  0.22600860663E+04  0.25500000000E-02 0. -1.
         -2   -1    0    0    0  501 -0.00000000000E+00 -0.00000000000E+00 -0.37304694414E+03  0.37304694415E+03  0.25500000000E-02 0.  1.
    8880022    1    1    2    0    0  0.57200971343E+03 -0.46207807214E+03  0.17008973621E+04  0.18593425576E+04  0.15294330000E+03 0.  0.
    8880022    1    1    2    0    0 -0.57200971343E+03  0.46207807214E+03  0.18614175998E+03  0.77379045280E+03  0.15294330000E+03 0.  0.
<mgrwt>
<rscale>  0 0.75106785E+03</rscale>
<asrwt>0</asrwt>
<pdfrwt beam="1">  1        2 0.34770554E+00 0.75106785E+03</pdfrwt>
<pdfrwt beam="2">  1       -2 0.57391839E-01 0.75106785E+03</pdfrwt>
<totfact> 0.14141069E+01</totfact>
</mgrwt>
</event>
<event>
 4    1  0.4880711E-008  0.2289413E+03  0.7818608E-02  0.1127387E+00
          2   -1    0    0  501    0  0.00000000000E+00  0.00000000000E+00  0.17152239094E+04  0.17152239094E+04  0.25500000000E-02 0. -1.
         -2   -1    0    0    0  501 -0.00000000000E+00 -0.00000000000E+00 -0.17643714013E+03  0.17643714015E+03  0.25500000000E-02 0.  1.
    8880022    1    1    2    0    0  0.15512964693E+03 -0.70407909473E+02 -0.90638671515E+02  0.24623058880E+03  0.15294330000E+03 0.  0.
    8880022    1    1    2    0    0 -0.15512964693E+03  0.70407909473E+02  0.16294254408E+04  0.16454304607E+04  0.15294330000E+03 0. -1.
<mgrwt>
<rscale>  0 0.22894133E+03</rscale>
<asrwt>0</asrwt>
<pdfrwt beam="1">  1        2 0.26388061E+00 0.22894133E+03</pdfrwt>
<pdfrwt beam="2">  1       -2 0.27144175E-01 0.22894133E+03</pdfrwt>
<totfact> 0.13142441E+02</totfact>
</mgrwt>
</event>
<event>
 4    1  0.4880711E-008  0.6416136E+03  0.7818608E-02  0.9822644E-01
         -2   -1    0    0    0  501 -0.00000000000E+00  0.00000000000E+00  0.12435884312E+04  0.12435884312E+04  0.25500000000E-02 0.  1.
          2   -1    0    0  501    0  0.00000000000E+00 -0.00000000000E+00 -0.49847586965E+03  0.49847586966E+03  0.25500000000E-02 0. -1.
    8880022    1    1    2    0    0  0.95519601963E+02 -0.61575353047E+03  0.87738752811E+03  0.10869576497E+04  0.15294330000E+03 0.  0.
    8880022    1    1    2    0    0 -0.95519601963E+02  0.61575353047E+03 -0.13227496656E+03  0.65510665120E+03  0.15294330000E+03 0.  0.
<mgrwt>
<rscale>  0 0.64161364E+03</rscale>
<asrwt>0</asrwt>
<pdfrwt beam="1">  1        2 0.76688596E-01 0.64161364E+03</pdfrwt>
<pdfrwt beam="2">  1       -2 0.19132129E+00 0.64161364E+03</pdfrwt>
<totfact> 0.96751347E+00</totfact>
</mgrwt>
</event>
<event>
 4    1  0.4880711E-008  0.6398726E+03  0.7818608E-02  0.9825970E-01
          2   -1    0    0  501    0  0.00000000000E+00  0.00000000000E+00  0.28719663709E+03  0.28719663710E+03  0.25500000000E-02 0. -1.
         -2   -1    0    0    0  501 -0.00000000000E+00 -0.00000000000E+00 -0.15247358405E+04  0.15247358405E+04  0.25500000000E-02 0.  1.
    8880022    1    1    2    0    0  0.49211713773E+03 -0.37929677739E+03 -0.84974087694E+03  0.10637182585E+04  0.15294330000E+03 0.  1.
    8880022    1    1    2    0    0 -0.49211713773E+03  0.37929677739E+03 -0.38779832649E+03  0.74821421908E+03  0.15294330000E+03 0.  0.
<mgrwt>
<rscale>  0 0.63987262E+03</rscale>
<asrwt>0</asrwt>
<pdfrwt beam="1">  1        2 0.44184099E-01 0.63987262E+03</pdfrwt>
<pdfrwt beam="2">  1       -2 0.23457474E+00 0.63987262E+03</pdfrwt>
<totfact> 0.95649065E+00</totfact>
</mgrwt>
</event>
<event>
 4    1  0.4880711E-008  0.2698369E+03  0.7818608E-02  0.1101373E+00
          2   -1    0    0  501    0  0.00000000000E+00  0.00000000000E+00  0.25919548689E+04  0.25919548689E+04  0.25500000000E-02 0. -1.
         -2   -1    0    0    0  501 -0.00000000000E+00 -0.00000000000E+00 -0.10697768769E+03  0.10697768772E+03  0.25500000000E-02 0.  1.
    8880022    1    1    2    0    0  0.13628581859E+03 -0.17563165854E+03  0.83668923250E+02  0.28251096539E+03  0.15294330000E+03 0.  1.
    8880022    1    1    2    0    0 -0.13628581859E+03  0.17563165854E+03  0.24013082580E+04  0.24164215912E+04  0.15294330000E+03 0.  0.
<mgrwt>
<rscale>  0 0.26983691E+03</rscale>
<asrwt>0</asrwt>
<pdfrwt beam="1">  1        2 0.39876226E+00 0.26983691E+03</pdfrwt>
<pdfrwt beam="2">  1       -2 0.16458107E-01 0.26983691E+03</pdfrwt>
<totfact> 0.10519813E+02</totfact>
</mgrwt>
</event>
<event>
 4    1  0.4880711E-008  0.1676529E+03  0.7818608E-02  0.1180318E+00
         -2   -1    0    0    0  501 -0.00000000000E+00  0.00000000000E+00  0.22997280692E+03  0.22997280694E+03  0.25500000000E-02 0.  1.
          2   -1    0    0  501    0  0.00000000000E+00 -0.00000000000E+00 -0.88757868016E+03  0.88757868016E+03  0.25500000000E-02 0. -1.
    8880022    1    1    2    0    0 -0.54737997143E+02  0.41467821795E+02 -0.84768226257E+03  0.86410225082E+03  0.15294330000E+03 0. -1.
    8880022    1    1    2    0    0  0.54737997143E+02 -0.41467821795E+02  0.19007638933E+03  0.25344923628E+03  0.15294330000E+03 0.  0.
<mgrwt>
<rscale>  0 0.16765286E+03</rscale>
<asrwt>0</asrwt>
<pdfrwt beam="1">  1        2 0.13655056E+00 0.16765286E+03</pdfrwt>
<pdfrwt beam="2">  1       -2 0.35380432E-01 0.16765286E+03</pdfrwt>
<totfact> 0.23897939E+02</totfact>
</mgrwt>
</event>
<event>
 4    1  0.4880711E-008  0.4742182E+03  0.7818608E-02  0.1020736E+00
         -2   -1    0    0    0  501 -0.00000000000E+00  0.00000000000E+00  0.14629319228E+03  0.14629319231E+03  0.25500000000E-02 0.  1.
          2   -1    0    0  501    0  0.00000000000E+00 -0.00000000000E+00 -0.21972609666E+04  0.21972609666E+04  0.25500000000E-02 0. -1.
    8880022    1    1    2    0    0 -0.17278877802E+03  0.41428886417E+03 -0.38324885089E+03  0.60972334670E+03  0.15294330000E+03 0.  0.
    8880022    1    1    2    0    0  0.17278877802E+03 -0.41428886417E+03 -0.16677189234E+04  0.17338308122E+04  0.15294330000E+03 0.  0.
<mgrwt>
<rscale>  0 0.47421818E+03</rscale>
<asrwt>0</asrwt>
<pdfrwt beam="1">  1        2 0.33804013E+00 0.47421818E+03</pdfrwt>
<pdfrwt beam="2">  1       -2 0.22506647E-01 0.47421818E+03</pdfrwt>
<totfact> 0.96131771E+01</totfact>
</mgrwt>
</event>
<event>
 4    1  0.4880711E-008  0.3333212E+03  0.7818608E-02  0.1069677E+00
         -2   -1    0    0    0  501 -0.00000000000E+00  0.00000000000E+00  0.54827152992E+03  0.54827152993E+03  0.25500000000E-02 0.  1.
          2   -1    0    0  501    0  0.00000000000E+00 -0.00000000000E+00 -0.50641339747E+03  0.50641339748E+03  0.25500000000E-02 0. -1.
    8880022    1    1    2    0    0 -0.10460713455E+03 -0.27707163890E+03 -0.38749693498E+03  0.51113293116E+03  0.15294330000E+03 0.  0.
    8880022    1    1    2    0    0  0.10460713455E+03  0.27707163890E+03  0.42935506743E+03  0.54355199625E+03  0.15294330000E+03 0.  1.
<mgrwt>
<rscale>  0 0.33332116E+03</rscale>
<asrwt>0</asrwt>
<pdfrwt beam="1">  1        2 0.77909754E-01 0.33332116E+03</pdfrwt>
<pdfrwt beam="2">  1       -2 0.84349466E-01 0.33332116E+03</pdfrwt>
<totfact> 0.77911588E+01</totfact>
</mgrwt>
</event>
<event>
 4    1  0.4880711E-008  0.5202207E+03  0.7818608E-02  0.1008632E+00
          2   -1    0    0  501    0  0.00000000000E+00  0.00000000000E+00  0.11877231351E+04  0.11877231351E+04  0.25500000000E-02 0. -1.
         -2   -1    0    0    0  501 -0.00000000000E+00 -0.00000000000E+00 -0.73543120703E+03  0.73543120704E+03  0.25500000000E-02 0.  1.
    8880022    1    1    2    0    0  0.31766011527E+03  0.38253096165E+03 -0.57270070127E+03  0.77370254730E+03  0.15294330000E+03 0.  0.
    8880022    1    1    2    0    0 -0.31766011527E+03 -0.38253096165E+03  0.10249926294E+04  0.11494517949E+04  0.15294330000E+03 0.  0.
<mgrwt>
<rscale>  0 0.52022066E+03</rscale>
<asrwt>0</asrwt>
<pdfrwt beam="1">  1        2 0.18272664E+00 0.52022066E+03</pdfrwt>
<pdfrwt beam="2">  1       -2 0.11314326E+00 0.52022066E+03</pdfrwt>
<totfact> 0.12460475E+01</totfact>
</mgrwt>
</event>
<event>
 4    1  0.4880711E-008  0.2889985E+03  0.7818608E-02  0.1090873E+00
         -2   -1    0    0    0  501 -0.00000000000E+00  0.00000000000E+00  0.19191514992E+03  0.19191514994E+03  0.25500000000E-02 0.  1.
          2   -1    0    0  501    0  0.00000000000E+00 -0.00000000000E+00 -0.75199719094E+03  0.75199719095E+03  0.25500000000E-02 0. -1.
    8880022    1    1    2    0    0 -0.21218338932E+03 -0.12290936235E+03 -0.58637059548E+03  0.65372060570E+03  0.15294330000E+03 0. -1.
    8880022    1    1    2    0    0  0.21218338932E+03  0.12290936235E+03  0.26288554456E+02  0.29019173518E+03  0.15294330000E+03 0.  0.
<mgrwt>
<rscale>  0 0.28899854E+03</rscale>
<asrwt>0</asrwt>
<pdfrwt beam="1">  1        2 0.11569187E+00 0.28899854E+03</pdfrwt>
<pdfrwt beam="2">  1       -2 0.29525408E-01 0.28899854E+03</pdfrwt>
<totfact> 0.40620204E+02</totfact>
</mgrwt>
</event>
<event>
 4    1  0.4880711E-008  0.1176332E+04  0.7818608E-02  0.9133829E-01
         -2   -1    0    0    0  501 -0.00000000000E+00  0.00000000000E+00  0.84451036911E+03  0.84451036912E+03  0.25500000000E-02 0.  1.
          2   -1    0    0  501    0  0.00000000000E+00 -0.00000000000E+00 -0.25049046127E+04  0.25049046127E+04  0.25500000000E-02 0. -1.
    8880022    1    1    2    0    0 -0.57279588543E+03  0.10160074187E+04 -0.18151048588E+04  0.21629524966E+04  0.15294330000E+03 0.  0.
    8880022    1    1    2    0    0  0.57279588543E+03 -0.10160074187E+04  0.15471061522E+03  0.11864624852E+04  0.15294330000E+03 0.  0.
<mgrwt>
<rscale>  0 0.11763324E+04</rscale>
<asrwt>0</asrwt>
<pdfrwt beam="1">  1        2 0.38536994E+00 0.11763324E+04</pdfrwt>
<pdfrwt beam="2">  1       -2 0.12992467E+00 0.11763324E+04</pdfrwt>
<totfact> 0.14780118E+00</totfact>
</mgrwt>
</event>
<event>
 4    1  0.4880711E-008  0.3020768E+03  0.7818608E-02  0.1084207E+00
          2   -1    0    0  501    0  0.00000000000E+00  0.00000000000E+00  0.20727126846E+04  0.20727126846E+04  0.25500000000E-02 0. -1.
         -2   -1    0    0    0  501 -0.00000000000E+00 -0.00000000000E+00 -0.70263214326E+02  0.70263214372E+02  0.25500000000E-02 0.  1.
    8880022    1    1    2    0    0  0.17913329248E+03 -0.18912967212E+03  0.34644771224E+03  0.45964816946E+03  0.15294330000E+03 0.  0.
    8880022    1    1    2    0    0 -0.17913329248E+03  0.18912967212E+03  0.16560017580E+04  0.16833277295E+04  0.15294330000E+03 0.  0.
<mgrwt>
<rscale>  0 0.30207685E+03</rscale>
<asrwt>0</asrwt>
<pdfrwt beam="1">  1        2 0.31887883E+00 0.30207685E+03</pdfrwt>
<pdfrwt beam="2">  1       -2 0.10809727E-01 0.30207685E+03</pdfrwt>
<totfact> 0.39686713E+02</totfact>
</mgrwt>
</event>
<event>
 4    1  0.4880711E-008  0.6649634E+03  0.7818608E-02  0.9779100E-01
          2   -1    0    0  501    0  0.00000000000E+00  0.00000000000E+00  0.97464988767E+03  0.97464988767E+03  0.25500000000E-02 0. -1.
         -2   -1    0    0    0  501 -0.00000000000E+00 -0.00000000000E+00 -0.76725195066E+03  0.76725195066E+03  0.25500000000E-02 0.  1.
    8880022    1    1    2    0    0 -0.60778879334E+03 -0.22221025275E+03  0.66049398744E+03  0.93724520494E+03  0.15294330000E+03 0.  0.
    8880022    1    1    2    0    0  0.60778879334E+03  0.22221025275E+03 -0.45309605042E+03  0.80465663339E+03  0.15294330000E+03 0.  1.
<mgrwt>
<rscale>  0 0.66496336E+03</rscale>
<asrwt>0</asrwt>
<pdfrwt beam="1">  1        2 0.14994614E+00 0.66496336E+03</pdfrwt>
<pdfrwt beam="2">  1       -2 0.11803876E+00 0.66496336E+03</pdfrwt>
<totfact> 0.14856209E+01</totfact>
</mgrwt>
</event>
<event>
 4    1  0.4880711E-008  0.4516337E+03  0.7818608E-02  0.1027236E+00
         -2   -1    0    0    0  501 -0.00000000000E+00  0.00000000000E+00  0.48266122824E+03  0.48266122825E+03  0.25500000000E-02 0.  1.
          2   -1    0    0  501    0  0.00000000000E+00 -0.00000000000E+00 -0.12313157740E+04  0.12313157740E+04  0.25500000000E-02 0. -1.
    8880022    1    1    2    0    0  0.38167216979E+03 -0.18683602524E+03 -0.10688525045E+04  0.11603528235E+04  0.15294330000E+03 0.  0.
    8880022    1    1    2    0    0 -0.38167216979E+03  0.18683602524E+03  0.32019795876E+03  0.55362417878E+03  0.15294330000E+03 0.  0.
<mgrwt>
<rscale>  0 0.45163370E+03</rscale>
<asrwt>0</asrwt>
<pdfrwt beam="1">  1        2 0.18943320E+00 0.45163370E+03</pdfrwt>
<pdfrwt beam="2">  1       -2 0.74255574E-01 0.45163370E+03</pdfrwt>
<totfact> 0.31422534E+01</totfact>
</mgrwt>
</event>
<event>
 4    1  0.4880711E-008  0.7369140E+03  0.7818608E-02  0.9656107E-01
          2   -1    0    0  501    0  0.00000000000E+00  0.00000000000E+00  0.56064049598E+03  0.56064049598E+03  0.25500000000E-02 0. -1.
         -2   -1    0    0    0  501 -0.00000000000E+00 -0.00000000000E+00 -0.12586568685E+04  0.12586568685E+04  0.25500000000E-02 0.  1.
    8880022    1    1    2    0    0  0.61011474259E+03 -0.38394096397E+03 -0.78567850786E+03  0.10771875573E+04  0.15294330000E+03 0.  0.
    8880022    1    1    2    0    0 -0.61011474259E+03  0.38394096397E+03  0.87662135298E+02  0.74210980719E+03  0.15294330000E+03 0.  0.
<mgrwt>
<rscale>  0 0.73691405E+03</rscale>
<asrwt>0</asrwt>
<pdfrwt beam="1">  1        2 0.86252384E-01 0.73691405E+03</pdfrwt>
<pdfrwt beam="2">  1       -2 0.19363952E+00 0.73691405E+03</pdfrwt>
<totfact> 0.80463916E+00</totfact>
</mgrwt>
</event>
<event>
 4    1  0.4880711E-008  0.6459555E+03  0.7818608E-02  0.9814398E-01
         -2   -1    0    0    0  501 -0.00000000000E+00  0.00000000000E+00  0.58517083478E+03  0.58517083479E+03  0.25500000000E-02 0.  1.
          2   -1    0    0  501    0  0.00000000000E+00 -0.00000000000E+00 -0.10680950168E+04  0.10680950168E+04  0.25500000000E-02 0. -1.
    8880022    1    1    2    0    0 -0.21097256962E+03 -0.59106463336E+03  0.23513012156E+03  0.68741883377E+03  0.15294330000E+03 0.  1.
    8880022    1    1    2    0    0  0.21097256962E+03  0.59106463336E+03 -0.71805430357E+03  0.96584701782E+03  0.15294330000E+03 0.  0.
<mgrwt>
<rscale>  0 0.64595548E+03</rscale>
<asrwt>0</asrwt>
<pdfrwt beam="1">  1        2 0.16432231E+00 0.64595548E+03</pdfrwt>
<pdfrwt beam="2">  1       -2 0.90026282E-01 0.64595548E+03</pdfrwt>
<totfact> 0.24781551E+01</totfact>
</mgrwt>
</event>
<event>
 4    1  0.4880711E-008  0.5372637E+03  0.7818608E-02  0.1004486E+00
          2   -1    0    0  501    0  0.00000000000E+00  0.00000000000E+00  0.11656415732E+04  0.11656415732E+04  0.25500000000E-02 0. -1.
         -2   -1    0    0    0  501 -0.00000000000E+00 -0.00000000000E+00 -0.34886340934E+03  0.34886340935E+03  0.25500000000E-02 0.  1.
    8880022    1    1    2    0    0 -0.32763660067E+03  0.39738510605E+03  0.47691392549E+00  0.53726394358E+03  0.15294330000E+03 0.  0.
    8880022    1    1    2    0    0  0.32763660067E+03 -0.39738510605E+03  0.81630124997E+03  0.97724103901E+03  0.15294330000E+03 0.  0.
<mgrwt>
<rscale>  0 0.53726373E+03</rscale>
<asrwt>0</asrwt>
<pdfrwt beam="1">  1        2 0.17932947E+00 0.53726373E+03</pdfrwt>
<pdfrwt beam="2">  1       -2 0.53671293E-01 0.53726373E+03</pdfrwt>
<totfact> 0.67508934E+01</totfact>
</mgrwt>
</event>
<event>
 4    1  0.4880711E-008  0.4601337E+03  0.7818608E-02  0.1024742E+00
         -2   -1    0    0    0  501 -0.00000000000E+00  0.00000000000E+00  0.11999273891E+04  0.11999273891E+04  0.25500000000E-02 0.  1.
          2   -1    0    0  501    0  0.00000000000E+00 -0.00000000000E+00 -0.83109972088E+03  0.83109972089E+03  0.25500000000E-02 0. -1.
    8880022    1    1    2    0    0 -0.35219981945E+03 -0.25354804635E+03 -0.71687670822E+03  0.85184223447E+03  0.15294330000E+03 0.  0.
    8880022    1    1    2    0    0  0.35219981945E+03  0.25354804635E+03  0.10857043765E+04  0.11791848756E+04  0.15294330000E+03 0.  0.
<mgrwt>
<rscale>  0 0.46013365E+03</rscale>
<asrwt>0</asrwt>
<pdfrwt beam="1">  1        2 0.12786150E+00 0.46013365E+03</pdfrwt>
<pdfrwt beam="2">  1       -2 0.18460421E+00 0.46013365E+03</pdfrwt>
<totfact> 0.59032909E+00</totfact>
</mgrwt>
</event>
<event>
 4    1  0.4880711E-008  0.2562672E+03  0.7818608E-02  0.1109407E+00
          2   -1    0    0  501    0  0.00000000000E+00  0.00000000000E+00  0.37557010427E+03  0.37557010428E+03  0.25500000000E-02 0. -1.
         -2   -1    0    0    0  501 -0.00000000000E+00 -0.00000000000E+00 -0.49477743280E+03  0.49477743281E+03  0.25500000000E-02 0.  1.
    8880022    1    1    2    0    0  0.10532333724E+02  0.20535409699E+03 -0.40952905477E+03  0.48310137127E+03  0.15294330000E+03 0.  1.
    8880022    1    1    2    0    0 -0.10532333724E+02 -0.20535409699E+03  0.29032172623E+03  0.38724616582E+03  0.15294330000E+03 0.  0.
<mgrwt>
<rscale>  0 0.25626722E+03</rscale>
<asrwt>0</asrwt>
<pdfrwt beam="1">  1        2 0.57780016E-01 0.25626722E+03</pdfrwt>
<pdfrwt beam="2">  1       -2 0.76119605E-01 0.25626722E+03</pdfrwt>
<totfact> 0.13744181E+02</totfact>
</mgrwt>
</event>
<event>
 4    1  0.4880711E-008  0.3929761E+03  0.7818608E-02  0.1046239E+00
          2   -1    0    0  501    0  0.00000000000E+00  0.00000000000E+00  0.17999717121E+04  0.17999717121E+04  0.25500000000E-02 0. -1.
         -2   -1    0    0    0  501 -0.00000000000E+00 -0.00000000000E+00 -0.10376955678E+03  0.10376955681E+03  0.25500000000E-02 0.  1.
    8880022    1    1    2    0    0  0.36197071701E+03 -0.39746115437E+01  0.12442521030E+04  0.13048346816E+04  0.15294330000E+03 0.  1.
    8880022    1    1    2    0    0 -0.36197071701E+03  0.39746115437E+01  0.45195005235E+03  0.59890658733E+03  0.15294330000E+03 0.  0.
<mgrwt>
<rscale>  0 0.39297614E+03</rscale>
<asrwt>0</asrwt>
<pdfrwt beam="1">  1        2 0.27691873E+00 0.39297614E+03</pdfrwt>
<pdfrwt beam="2">  1       -2 0.15964547E-01 0.39297614E+03</pdfrwt>
<totfact> 0.28743025E+02</totfact>
</mgrwt>
</event>
<event>
 4    1  0.4880711E-008  0.8622636E+03  0.7818608E-02  0.9474023E-01
         -2   -1    0    0    0  501 -0.00000000000E+00  0.00000000000E+00  0.88811898682E+03  0.88811898683E+03  0.25500000000E-02 0.  1.
          2   -1    0    0  501    0  0.00000000000E+00 -0.00000000000E+00 -0.99077106097E+03  0.99077106097E+03  0.25500000000E-02 0. -1.
    8880022    1    1    2    0    0  0.77682887746E+03  0.34153151035E+03  0.31858272802E+03  0.91923527186E+03  0.15294330000E+03 0.  0.
    8880022    1    1    2    0    0 -0.77682887746E+03 -0.34153151035E+03 -0.42123480217E+03  0.95965477594E+03  0.15294330000E+03 0.  0.
<mgrwt>
<rscale>  0 0.86226361E+03</rscale>
<asrwt>0</asrwt>
<pdfrwt beam="1">  1        2 0.15242632E+00 0.86226361E+03</pdfrwt>
<pdfrwt beam="2">  1       -2 0.13663369E+00 0.86226361E+03</pdfrwt>
<totfact> 0.98162535E+00</totfact>
</mgrwt>
</event>
<event>
 4    1  0.4880711E-008  0.8165345E+03  0.7818608E-02  0.9536388E-01
         -2   -1    0    0    0  501 -0.00000000000E+00  0.00000000000E+00  0.65072280826E+03  0.65072280827E+03  0.25500000000E-02 0.  1.
          2   -1    0    0  501    0  0.00000000000E+00 -0.00000000000E+00 -0.24368995189E+04  0.24368995189E+04  0.25500000000E-02 0. -1.
    8880022    1    1    2    0    0 -0.64681445627E+03  0.47430784934E+03  0.28218599541E+03  0.86391982603E+03  0.15294330000E+03 0.  0.
    8880022    1    1    2    0    0  0.64681445627E+03 -0.47430784934E+03 -0.20683627060E+04  0.22237025011E+04  0.15294330000E+03 0.  0.
<mgrwt>
<rscale>  0 0.81653446E+03</rscale>
<asrwt>0</asrwt>
<pdfrwt beam="1">  1        2 0.37490761E+00 0.81653446E+03</pdfrwt>
<pdfrwt beam="2">  1       -2 0.10011120E+00 0.81653446E+03</pdfrwt>
<totfact> 0.32315047E+00</totfact>
</mgrwt>
</event>
<event>
 4    1  0.4880711E-008  0.6699214E+03  0.7818608E-02  0.9770100E-01
         -2   -1    0    0    0  501 -0.00000000000E+00  0.00000000000E+00  0.68616619127E+03  0.68616619128E+03  0.25500000000E-02 0.  1.
          2   -1    0    0  501    0  0.00000000000E+00 -0.00000000000E+00 -0.94795502230E+03  0.94795502230E+03  0.25500000000E-02 0. -1.
    8880022    1    1    2    0    0  0.56179610260E+03 -0.33134303557E+03  0.32404712437E+03  0.74417824475E+03  0.15294330000E+03 0.  0.
    8880022    1    1    2    0    0 -0.56179610260E+03  0.33134303557E+03 -0.58583595540E+03  0.88994296883E+03  0.15294330000E+03 0.  0.
<mgrwt>
<rscale>  0 0.66992143E+03</rscale>
<asrwt>0</asrwt>
<pdfrwt beam="1">  1        2 0.14583923E+00 0.66992143E+03</pdfrwt>
<pdfrwt beam="2">  1       -2 0.10556403E+00 0.66992143E+03</pdfrwt>
<totfact> 0.20254378E+01</totfact>
</mgrwt>
</event>
<event>
 4    1  0.4880711E-008  0.4827532E+03  0.7818608E-02  0.1018381E+00
         -2   -1    0    0    0  501 -0.00000000000E+00  0.00000000000E+00  0.62392374982E+03  0.62392374982E+03  0.25500000000E-02 0.  1.
          2   -1    0    0  501    0  0.00000000000E+00 -0.00000000000E+00 -0.83615499684E+03  0.83615499684E+03  0.25500000000E-02 0. -1.
    8880022    1    1    2    0    0 -0.14155288436E+03 -0.43545586098E+03 -0.64914098597E+03  0.80897138306E+03  0.15294330000E+03 0. -1.
    8880022    1    1    2    0    0  0.14155288436E+03  0.43545586098E+03  0.43690973895E+03  0.65110736360E+03  0.15294330000E+03 0.  0.
<mgrwt>
<rscale>  0 0.48275323E+03</rscale>
<asrwt>0</asrwt>
<pdfrwt beam="1">  1        2 0.12863923E+00 0.48275323E+03</pdfrwt>
<pdfrwt beam="2">  1       -2 0.95988269E-01 0.48275323E+03</pdfrwt>
<totfact> 0.30862294E+01</totfact>
</mgrwt>
</event>
<event>
 4    1  0.4880711E-008  0.6126414E+03  0.7818608E-02  0.9879521E-01
         -2   -1    0    0    0  501 -0.00000000000E+00  0.00000000000E+00  0.48689064865E+03  0.48689064865E+03  0.25500000000E-02 0.  1.
          2   -1    0    0  501    0  0.00000000000E+00 -0.00000000000E+00 -0.23874728524E+04  0.23874728524E+04  0.25500000000E-02 0. -1.
    8880022    1    1    2    0    0 -0.58632128701E+03  0.90361402128E+02 -0.21329081015E+04  0.22191499402E+04  0.15294330000E+03 0. -1.
    8880022    1    1    2    0    0  0.58632128701E+03 -0.90361402128E+02  0.23232589773E+03  0.65521356088E+03  0.15294330000E+03 0.  0.
<mgrwt>
<rscale>  0 0.61264140E+03</rscale>
<asrwt>0</asrwt>
<pdfrwt beam="1">  1        2 0.36730351E+00 0.61264140E+03</pdfrwt>
<pdfrwt beam="2">  1       -2 0.74906255E-01 0.61264140E+03</pdfrwt>
<totfact> 0.69489876E+00</totfact>
</mgrwt>
</event>
<event>
 4    1  0.4880711E-008  0.7540582E+03  0.7818608E-02  0.9629005E-01
         -2   -1    0    0    0  501 -0.00000000000E+00  0.00000000000E+00  0.42168035684E+03  0.42168035684E+03  0.25500000000E-02 0.  1.
          2   -1    0    0  501    0  0.00000000000E+00 -0.00000000000E+00 -0.24150878813E+04  0.24150878813E+04  0.25500000000E-02 0. -1.
    8880022    1    1    2    0    0 -0.78161565707E+02  0.73423630829E+03 -0.19393336833E+04  0.20807736482E+04  0.15294330000E+03 0.  0.
    8880022    1    1    2    0    0  0.78161565707E+02 -0.73423630829E+03 -0.54073841177E+02  0.75599458998E+03  0.15294330000E+03 0.  0.
<mgrwt>
<rscale>  0 0.75405825E+03</rscale>
<asrwt>0</asrwt>
<pdfrwt beam="1">  1        2 0.37155197E+00 0.75405825E+03</pdfrwt>
<pdfrwt beam="2">  1       -2 0.64873902E-01 0.75405825E+03</pdfrwt>
<totfact> 0.89341593E+00</totfact>
</mgrwt>
</event>
<event>
 4    1  0.4880711E-008  0.3144392E+03  0.7818608E-02  0.1078237E+00
          2   -1    0    0  501    0  0.00000000000E+00  0.00000000000E+00  0.27541799800E+04  0.27541799800E+04  0.25500000000E-02 0. -1.
         -2   -1    0    0    0  501 -0.00000000000E+00 -0.00000000000E+00 -0.41674018857E+03  0.41674018858E+03  0.25500000000E-02 0.  1.
    8880022    1    1    2    0    0  0.37318202195E+02  0.27219059450E+03  0.26843549311E+04  0.27027085335E+04  0.15294330000E+03 0.  0.
    8880022    1    1    2    0    0 -0.37318202195E+02 -0.27219059450E+03 -0.34691513975E+03  0.46821163500E+03  0.15294330000E+03 0.  1.
<mgrwt>
<rscale>  0 0.31443922E+03</rscale>
<asrwt>0</asrwt>
<pdfrwt beam="1">  1        2 0.42372000E+00 0.31443922E+03</pdfrwt>
<pdfrwt beam="2">  1       -2 0.64113875E-01 0.31443922E+03</pdfrwt>
<totfact> 0.66269947E+00</totfact>
</mgrwt>
</event>
<event>
 4    1  0.4880711E-008  0.5163115E+03  0.7818608E-02  0.1009607E+00
          2   -1    0    0  501    0  0.00000000000E+00  0.00000000000E+00  0.88561270571E+03  0.88561270572E+03  0.25500000000E-02 0. -1.
         -2   -1    0    0    0  501 -0.00000000000E+00 -0.00000000000E+00 -0.39363131920E+03  0.39363131921E+03  0.25500000000E-02 0.  1.
    8880022    1    1    2    0    0  0.48108039843E+03  0.10838604095E+03  0.55625800949E+03  0.75894697428E+03  0.15294330000E+03 0.  0.
    8880022    1    1    2    0    0 -0.48108039843E+03 -0.10838604095E+03 -0.64276622983E+02  0.52029705064E+03  0.15294330000E+03 0.  0.
<mgrwt>
<rscale>  0 0.51631147E+03</rscale>
<asrwt>0</asrwt>
<pdfrwt beam="1">  1        2 0.13624811E+00 0.51631147E+03</pdfrwt>
<pdfrwt beam="2">  1       -2 0.60558665E-01 0.51631147E+03</pdfrwt>
<totfact> 0.78806557E+01</totfact>
</mgrwt>
</event>
<event>
 4    1  0.4880711E-008  0.7027521E+03  0.7818608E-02  0.9712537E-01
          2   -1    0    0  501    0  0.00000000000E+00  0.00000000000E+00  0.60569628752E+03  0.60569628752E+03  0.25500000000E-02 0. -1.
         -2   -1    0    0    0  501 -0.00000000000E+00 -0.00000000000E+00 -0.11711078434E+04  0.11711078434E+04  0.25500000000E-02 0.  1.
    8880022    1    1    2    0    0  0.68243230019E+03 -0.68956753541E+02 -0.77235181789E+03  0.10442163865E+04  0.15294330000E+03 0.  0.
    8880022    1    1    2    0    0 -0.68243230019E+03  0.68956753541E+02  0.20694026202E+03  0.73258774442E+03  0.15294330000E+03 0.  0.
<mgrwt>
<rscale>  0 0.70275211E+03</rscale>
<asrwt>0</asrwt>
<pdfrwt beam="1">  1        2 0.93184044E-01 0.70275211E+03</pdfrwt>
<pdfrwt beam="2">  1       -2 0.18017044E+00 0.70275211E+03</pdfrwt>
<totfact> 0.90697163E+00</totfact>
</mgrwt>
</event>
<event>
 4    1  0.5922163E-008  0.7663405E+03  0.7818608E-02  0.9610058E-01
          2   -1    0    0  501    0  0.00000000000E+00  0.00000000000E+00  0.22010188707E+04  0.22010188707E+04  0.25500000000E-02 0. -1.
         -2   -1    0    0    0  501 -0.00000000000E+00 -0.00000000000E+00 -0.63592082082E+03  0.63592082083E+03  0.25500000000E-02 0.  1.
    8880022    1    1    2    0    0  0.72877975452E+03 -0.18101428749E+03  0.18632127734E+04  0.20146561977E+04  0.15294330000E+03 0. -1.
    8880022    1    1    2    0    0 -0.72877975452E+03  0.18101428749E+03 -0.29811472351E+03  0.82228349386E+03  0.15294330000E+03 0.  0.
<mgrwt>
<rscale>  0 0.76634050E+03</rscale>
<asrwt>0</asrwt>
<pdfrwt beam="1">  1        2 0.33861828E+00 0.76634050E+03</pdfrwt>
<pdfrwt beam="2">  1       -2 0.97833974E-01 0.76634050E+03</pdfrwt>
<totfact> 0.46583530E+00</totfact>
</mgrwt>
</event>
<event>
 4    1  0.4880711E-008  0.5371301E+03  0.7818608E-02  0.1004517E+00
         -2   -1    0    0    0  501 -0.00000000000E+00  0.00000000000E+00  0.16410286960E+03  0.16410286962E+03  0.25500000000E-02 0.  1.
          2   -1    0    0  501    0  0.00000000000E+00 -0.00000000000E+00 -0.26921350019E+04  0.26921350019E+04  0.25500000000E-02 0. -1.
    8880022    1    1    2    0    0  0.49243981249E+03 -0.15039993086E+03 -0.42281805799E+03  0.68358164933E+03  0.15294330000E+03 0.  0.
    8880022    1    1    2    0    0 -0.49243981249E+03  0.15039993086E+03 -0.21052140743E+04  0.21726562222E+04  0.15294330000E+03 0.  0.
<mgrwt>
<rscale>  0 0.53713012E+03</rscale>
<asrwt>0</asrwt>
<pdfrwt beam="1">  1        2 0.41417458E+00 0.53713012E+03</pdfrwt>
<pdfrwt beam="2">  1       -2 0.25246597E-01 0.53713012E+03</pdfrwt>
<totfact> 0.41024829E+01</totfact>
</mgrwt>
</event>
<event>
 4    1  0.4880711E-008  0.1169176E+04  0.7818608E-02  0.9140273E-01
          2   -1    0    0  501    0  0.00000000000E+00  0.00000000000E+00  0.24797695926E+04  0.24797695926E+04  0.25500000000E-02 0. -1.
         -2   -1    0    0    0  501 -0.00000000000E+00 -0.00000000000E+00 -0.70033880550E+03  0.70033880550E+03  0.25500000000E-02 0.  1.
    8880022    1    1    2    0    0 -0.10427153062E+04  0.50628663584E+03  0.16233508814E+04  0.20005601976E+04  0.15294330000E+03 0.  0.
    8880022    1    1    2    0    0  0.10427153062E+04 -0.50628663584E+03  0.15607990576E+03  0.11795482005E+04  0.15294330000E+03 0.  0.
<mgrwt>
<rscale>  0 0.11691762E+04</rscale>
<asrwt>0</asrwt>
<pdfrwt beam="1">  1        2 0.38150302E+00 0.11691762E+04</pdfrwt>
<pdfrwt beam="2">  1       -2 0.10774443E+00 0.11691762E+04</pdfrwt>
<totfact> 0.24351654E+00</totfact>
</mgrwt>
</event>
<event>
 4    1  0.4880711E-008  0.7541824E+03  0.7818608E-02  0.9628812E-01
          2   -1    0    0  501    0  0.00000000000E+00  0.00000000000E+00  0.10734403535E+04  0.10734403535E+04  0.25500000000E-02 0. -1.
         -2   -1    0    0    0  501 -0.00000000000E+00 -0.00000000000E+00 -0.56289204894E+03  0.56289204895E+03  0.25500000000E-02 0.  1.
    8880022    1    1    2    0    0  0.29832040635E+03 -0.67557708011E+03  0.57127630873E+02  0.75634296139E+03  0.15294330000E+03 0.  0.
    8880022    1    1    2    0    0 -0.29832040635E+03  0.67557708011E+03  0.45342067365E+03  0.87998944103E+03  0.15294330000E+03 0.  0.
<mgrwt>
<rscale>  0 0.75418241E+03</rscale>
<asrwt>0</asrwt>
<pdfrwt beam="1">  1        2 0.16514467E+00 0.75418241E+03</pdfrwt>
<pdfrwt beam="2">  1       -2 0.86598778E-01 0.75418241E+03</pdfrwt>
<totfact> 0.26566662E+01</totfact>
</mgrwt>
</event>
<event>
 4    1  0.4880711E-008  0.1669039E+04  0.7818608E-02  0.8779222E-01
         -2   -1    0    0    0  501 -0.00000000000E+00  0.00000000000E+00  0.13572984915E+04  0.13572984915E+04  0.25500000000E-02 0.  1.
          2   -1    0    0  501    0  0.00000000000E+00 -0.00000000000E+00 -0.25146500515E+04  0.25146500515E+04  0.25500000000E-02 0. -1.
    8880022    1    1    2    0    0  0.12616090004E+04  0.10819620713E+04  0.25138363153E+03  0.16878639095E+04  0.15294330000E+03 0.  0.
    8880022    1    1    2    0    0 -0.12616090004E+04 -0.10819620713E+04 -0.14087351915E+04  0.21840846336E+04  0.15294330000E+03 0.  0.
<mgrwt>
<rscale>  0 0.16690389E+04</rscale>
<asrwt>0</asrwt>
<pdfrwt beam="1">  1        2 0.38686924E+00 0.16690389E+04</pdfrwt>
<pdfrwt beam="2">  1       -2 0.20881515E+00 0.16690389E+04</pdfrwt>
<totfact> 0.36691213E-01</totfact>
</mgrwt>
</event>
<event>
 4    1  0.4880711E-008  0.4418339E+03  0.7818608E-02  0.1030186E+00
         -2   -1    0    0    0  501 -0.00000000000E+00  0.00000000000E+00  0.50581210822E+03  0.50581210823E+03  0.25500000000E-02 0.  1.
          2   -1    0    0  501    0  0.00000000000E+00 -0.00000000000E+00 -0.22231364229E+04  0.22231364229E+04  0.25500000000E-02 0. -1.
    8880022    1    1    2    0    0  0.25294616797E+03 -0.32839576670E+03  0.38173035608E+03  0.58389661863E+03  0.15294330000E+03 0.  1.
    8880022    1    1    2    0    0 -0.25294616797E+03  0.32839576670E+03 -0.20990546708E+04  0.21450519125E+04  0.15294330000E+03 0.  0.
<mgrwt>
<rscale>  0 0.44183390E+03</rscale>
<asrwt>0</asrwt>
<pdfrwt beam="1">  1        2 0.34202098E+00 0.44183390E+03</pdfrwt>
<pdfrwt beam="2">  1       -2 0.77817249E-01 0.44183390E+03</pdfrwt>
<totfact> 0.81978586E+00</totfact>
</mgrwt>
</event>
<event>
 4    1  0.4880711E-008  0.4654680E+03  0.7818608E-02  0.1023207E+00
         -2   -1    0    0    0  501 -0.00000000000E+00  0.00000000000E+00  0.79206788984E+03  0.79206788984E+03  0.25500000000E-02 0.  1.
          2   -1    0    0  501    0  0.00000000000E+00 -0.00000000000E+00 -0.14949065928E+04  0.14949065928E+04  0.25500000000E-02 0. -1.
    8880022    1    1    2    0    0 -0.41608425549E+03 -0.14192489775E+03 -0.13850079741E+04  0.14611322752E+04  0.15294330000E+03 0. -1.
    8880022    1    1    2    0    0  0.41608425549E+03  0.14192489775E+03  0.68216927109E+03  0.82584220751E+03  0.15294330000E+03 0.  0.
<mgrwt>
<rscale>  0 0.46546798E+03</rscale>
<asrwt>0</asrwt>
<pdfrwt beam="1">  1        2 0.22998563E+00 0.46546798E+03</pdfrwt>
<pdfrwt beam="2">  1       -2 0.12185660E+00 0.46546798E+03</pdfrwt>
<totfact> 0.70516753E+00</totfact>
</mgrwt>
</event>
<event>
 4    1  0.4880711E-008  0.2209505E+03  0.7818608E-02  0.1133176E+00
         -2   -1    0    0    0  501 -0.00000000000E+00  0.00000000000E+00  0.20411227295E+02  0.20411227454E+02  0.25500000000E-02 0.  1.
          2   -1    0    0  501    0  0.00000000000E+00 -0.00000000000E+00 -0.38326270921E+04  0.38326270921E+04  0.25500000000E-02 0. -1.
    8880022    1    1    2    0    0  0.12162100578E+03  0.10313000386E+03 -0.30873375676E+04  0.30952338161E+04  0.15294330000E+03 0. -1.
    8880022    1    1    2    0    0 -0.12162100578E+03 -0.10313000386E+03 -0.72487829718E+03  0.75780450347E+03  0.15294330000E+03 0.  0.
<mgrwt>
<rscale>  0 0.22095049E+03</rscale>
<asrwt>0</asrwt>
<pdfrwt beam="1">  1        2 0.58963436E+00 0.22095049E+03</pdfrwt>
<pdfrwt beam="2">  1       -2 0.31401919E-02 0.22095049E+03</pdfrwt>
<totfact> 0.24049961E+02</totfact>
</mgrwt>
</event>
<event>
 4    1  0.4880711E-008  0.4293835E+03  0.7818608E-02  0.1034055E+00
         -2   -1    0    0    0  501 -0.00000000000E+00  0.00000000000E+00  0.18526094153E+03  0.18526094155E+03  0.25500000000E-02 0.  1.
          2   -1    0    0  501    0  0.00000000000E+00 -0.00000000000E+00 -0.37916387821E+04  0.37916387821E+04  0.25500000000E-02 0. -1.
    8880022    1    1    2    0    0 -0.32668515210E+03 -0.23292778840E+03 -0.35108608923E+04  0.35370205543E+04  0.15294330000E+03 0.  0.
    8880022    1    1    2    0    0  0.32668515210E+03  0.23292778840E+03 -0.95516948232E+02  0.43987916935E+03  0.15294330000E+03 0.  0.
<mgrwt>
<rscale>  0 0.42938351E+03</rscale>
<asrwt>0</asrwt>
<pdfrwt beam="1">  1        2 0.58332899E+00 0.42938351E+03</pdfrwt>
<pdfrwt beam="2">  1       -2 0.28501686E-01 0.42938351E+03</pdfrwt>
<totfact> 0.67192109E+00</totfact>
</mgrwt>
</event>
<event>
 4    1  0.4880711E-008  0.7410729E+03  0.7818608E-02  0.9649461E-01
          2   -1    0    0  501    0  0.00000000000E+00  0.00000000000E+00  0.28744216985E+04  0.28744216985E+04  0.25500000000E-02 0. -1.
         -2   -1    0    0    0  501 -0.00000000000E+00 -0.00000000000E+00 -0.20449116444E+03  0.20449116446E+03  0.25500000000E-02 0.  1.
    8880022    1    1    2    0    0  0.72006853740E+03 -0.85432754767E+02  0.17294908444E+04  0.18815758523E+04  0.15294330000E+03 0.  0.
    8880022    1    1    2    0    0 -0.72006853740E+03  0.85432754767E+02  0.94043968964E+03  0.11973370106E+04  0.15294330000E+03 0.  0.
<mgrwt>
<rscale>  0 0.74107294E+03</rscale>
<asrwt>0</asrwt>
<pdfrwt beam="1">  1        2 0.44221870E+00 0.74107294E+03</pdfrwt>
<pdfrwt beam="2">  1       -2 0.31460181E-01 0.74107294E+03</pdfrwt>
<totfact> 0.20648610E+01</totfact>
</mgrwt>
</event>
<event>
 4    1  0.4880711E-008  0.4208577E+03  0.7818608E-02  0.1036788E+00
          2   -1    0    0  501    0  0.00000000000E+00  0.00000000000E+00  0.12849129927E+04  0.12849129927E+04  0.25500000000E-02 0. -1.
         -2   -1    0    0    0  501 -0.00000000000E+00 -0.00000000000E+00 -0.20981163030E+03  0.20981163032E+03  0.25500000000E-02 0.  1.
    8880022    1    1    2    0    0 -0.31443587615E+03  0.23422127595E+03  0.99850743706E+02  0.43254057654E+03  0.15294330000E+03 0.  0.
    8880022    1    1    2    0    0  0.31443587615E+03 -0.23422127595E+03  0.97525061866E+03  0.10621840465E+04  0.15294330000E+03 0. -1.
<mgrwt>
<rscale>  0 0.42085767E+03</rscale>
<asrwt>0</asrwt>
<pdfrwt beam="1">  1        2 0.19767892E+00 0.42085767E+03</pdfrwt>
<pdfrwt beam="2">  1       -2 0.32278712E-01 0.42085767E+03</pdfrwt>
<totfact> 0.15775707E+02</totfact>
</mgrwt>
</event>
<event>
 4    1  0.4880711E-008  0.6049508E+03  0.7818608E-02  0.9895188E-01
         -2   -1    0    0    0  501 -0.00000000000E+00  0.00000000000E+00  0.87642517893E+03  0.87642517893E+03  0.25500000000E-02 0.  1.
          2   -1    0    0  501    0  0.00000000000E+00 -0.00000000000E+00 -0.11020784386E+04  0.11020784386E+04  0.25500000000E-02 0. -1.
    8880022    1    1    2    0    0  0.41960318195E+03  0.40805273347E+03  0.66680816667E+03  0.90033252066E+03  0.15294330000E+03 0.  0.
    8880022    1    1    2    0    0 -0.41960318195E+03 -0.40805273347E+03 -0.89246142633E+03  0.10781710969E+04  0.15294330000E+03 0.  0.
<mgrwt>
<rscale>  0 0.60495084E+03</rscale>
<asrwt>0</asrwt>
<pdfrwt beam="1">  1        2 0.16955053E+00 0.60495084E+03</pdfrwt>
<pdfrwt beam="2">  1       -2 0.13483464E+00 0.60495084E+03</pdfrwt>
<totfact> 0.89389493E+00</totfact>
</mgrwt>
</event>
<event>
 4    1  0.4880711E-008  0.2634955E+03  0.7818608E-02  0.1105061E+00
          2   -1    0    0  501    0  0.00000000000E+00  0.00000000000E+00  0.89569959974E+03  0.89569959975E+03  0.25500000000E-02 0. -1.
         -2   -1    0    0    0  501 -0.00000000000E+00 -0.00000000000E+00 -0.20862508553E+03  0.20862508555E+03  0.25500000000E-02 0.  1.
    8880022    1    1    2    0    0  0.13775751428E+03 -0.16450256070E+03 -0.94188479085E+02  0.27982377995E+03  0.15294330000E+03 0.  0.
    8880022    1    1    2    0    0 -0.13775751428E+03  0.16450256070E+03  0.78126299329E+03  0.82450090535E+03  0.15294330000E+03 0. -1.
<mgrwt>
<rscale>  0 0.26349550E+03</rscale>
<asrwt>0</asrwt>
<pdfrwt beam="1">  1        2 0.13779994E+00 0.26349550E+03</pdfrwt>
<pdfrwt beam="2">  1       -2 0.32096167E-01 0.26349550E+03</pdfrwt>
<totfact> 0.27868280E+02</totfact>
</mgrwt>
</event>
<event>
 4    1  0.4880711E-008  0.1923563E+03  0.7818608E-02  0.1156353E+00
          2   -1    0    0  501    0  0.00000000000E+00  0.00000000000E+00  0.22151942735E+04  0.22151942735E+04  0.25500000000E-02 0. -1.
         -2   -1    0    0    0  501 -0.00000000000E+00 -0.00000000000E+00 -0.28937180692E+02  0.28937180804E+02  0.25500000000E-02 0.  1.
    8880022    1    1    2    0    0 -0.85821890480E+02  0.79018419611E+02  0.36354830614E+03  0.41130077977E+03  0.15294330000E+03 0.  0.
    8880022    1    1    2    0    0  0.85821890480E+02 -0.79018419611E+02  0.18227087866E+04  0.18328306745E+04  0.15294330000E+03 0.  0.
<mgrwt>
<rscale>  0 0.19235634E+03</rscale>
<asrwt>0</asrwt>
<pdfrwt beam="1">  1        2 0.34079912E+00 0.19235634E+03</pdfrwt>
<pdfrwt beam="2">  1       -2 0.44518740E-02 0.19235634E+03</pdfrwt>
<totfact> 0.13484891E+03</totfact>
</mgrwt>
</event>
<event>
 4    1  0.4880711E-008  0.1665685E+03  0.7818608E-02  0.1181474E+00
          2   -1    0    0  501    0  0.00000000000E+00  0.00000000000E+00  0.28412694233E+04  0.28412694233E+04  0.25500000000E-02 0. -1.
         -2   -1    0    0    0  501 -0.00000000000E+00 -0.00000000000E+00 -0.21420673248E+02  0.21420673400E+02  0.25500000000E-02 0.  1.
    8880022    1    1    2    0    0 -0.48026324538E+02 -0.45242532966E+02  0.35408952185E+03  0.39131120241E+03  0.15294330000E+03 0.  0.
    8880022    1    1    2    0    0  0.48026324538E+02  0.45242532966E+02  0.24657592282E+04  0.24713788943E+04  0.15294330000E+03 0. -1.
<mgrwt>
<rscale>  0 0.16656851E+03</rscale>
<asrwt>0</asrwt>
<pdfrwt beam="1">  1        2 0.43711849E+00 0.16656851E+03</pdfrwt>
<pdfrwt beam="2">  1       -2 0.32954873E-02 0.16656851E+03</pdfrwt>
<totfact> 0.97092694E+02</totfact>
</mgrwt>
</event>
<event>
 4    1  0.4880711E-008  0.1838941E+03  0.7818608E-02  0.1164087E+00
         -2   -1    0    0    0  501 -0.00000000000E+00  0.00000000000E+00  0.14846286546E+03  0.14846286548E+03  0.25500000000E-02 0.  1.
          2   -1    0    0  501    0  0.00000000000E+00 -0.00000000000E+00 -0.70920260410E+03  0.70920260411E+03  0.25500000000E-02 0. -1.
    8880022    1    1    2    0    0  0.99951291029E+02 -0.20859682132E+02 -0.63368765178E+03  0.65983109956E+03  0.15294330000E+03 0. -1.
    8880022    1    1    2    0    0 -0.99951291029E+02  0.20859682132E+02  0.72947913138E+02  0.19783437002E+03  0.15294330000E+03 0.  0.
<mgrwt>
<rscale>  0 0.18389410E+03</rscale>
<asrwt>0</asrwt>
<pdfrwt beam="1">  1        2 0.10910809E+00 0.18389410E+03</pdfrwt>
<pdfrwt beam="2">  1       -2 0.22840441E-01 0.18389410E+03</pdfrwt>
<totfact> 0.69299802E+02</totfact>
</mgrwt>
</event>
<event>
 4    1  0.4880711E-008  0.6832432E+03  0.7818608E-02  0.9746326E-01
         -2   -1    0    0    0  501 -0.00000000000E+00  0.00000000000E+00  0.30836129284E+03  0.30836129285E+03  0.25500000000E-02 0.  1.
          2   -1    0    0  501    0  0.00000000000E+00 -0.00000000000E+00 -0.18945265250E+04  0.18945265250E+04  0.25500000000E-02 0. -1.
    8880022    1    1    2    0    0 -0.39656893039E+03 -0.53494173584E+03 -0.29936981474E+03  0.74595141685E+03  0.15294330000E+03 0.  0.
    8880022    1    1    2    0    0  0.39656893039E+03  0.53494173584E+03 -0.12867954175E+04  0.14569364011E+04  0.15294330000E+03 0.  0.
<mgrwt>
<rscale>  0 0.68324317E+03</rscale>
<asrwt>0</asrwt>
<pdfrwt beam="1">  1        2 0.29146561E+00 0.68324317E+03</pdfrwt>
<pdfrwt beam="2">  1       -2 0.47440200E-01 0.68324317E+03</pdfrwt>
<totfact> 0.33459370E+01</totfact>
</mgrwt>
</event>
<event>
 4    1  0.4880711E-008  0.5514609E+03  0.7818608E-02  0.1001156E+00
         -2   -1    0    0    0  501 -0.00000000000E+00  0.00000000000E+00  0.87497830528E+03  0.87497830529E+03  0.25500000000E-02 0.  1.
          2   -1    0    0  501    0  0.00000000000E+00 -0.00000000000E+00 -0.55542827761E+03  0.55542827762E+03  0.25500000000E-02 0. -1.
    8880022    1    1    2    0    0 -0.94741518547E+02 -0.52128836134E+03 -0.27775473305E+03  0.61746000336E+03  0.15294330000E+03 0.  0.
    8880022    1    1    2    0    0  0.94741518547E+02  0.52128836134E+03  0.59730476072E+03  0.81294657955E+03  0.15294330000E+03 0.  0.
<mgrwt>
<rscale>  0 0.55146094E+03</rscale>
<asrwt>0</asrwt>
<pdfrwt beam="1">  1        2 0.85450505E-01 0.55146094E+03</pdfrwt>
<pdfrwt beam="2">  1       -2 0.13461205E+00 0.55146094E+03</pdfrwt>
<totfact> 0.22350478E+01</totfact>
</mgrwt>
</event>
<event>
 4    1  0.4880711E-008  0.3006449E+03  0.7818608E-02  0.1084919E+00
          2   -1    0    0  501    0  0.00000000000E+00  0.00000000000E+00  0.16906294383E+04  0.16906294383E+04  0.25500000000E-02 0. -1.
         -2   -1    0    0    0  501 -0.00000000000E+00 -0.00000000000E+00 -0.10029793527E+03  0.10029793530E+03  0.25500000000E-02 0.  1.
    8880022    1    1    2    0    0  0.20223109135E+03  0.16154960797E+03  0.14070701779E+04  0.14388307158E+04  0.15294330000E+03 0. -1.
    8880022    1    1    2    0    0 -0.20223109135E+03 -0.16154960797E+03  0.18326132515E+03  0.35209665783E+03  0.15294330000E+03 0.  0.
<mgrwt>
<rscale>  0 0.30064488E+03</rscale>
<asrwt>0</asrwt>
<pdfrwt beam="1">  1        2 0.26009682E+00 0.30064488E+03</pdfrwt>
<pdfrwt beam="2">  1       -2 0.15430453E-01 0.30064488E+03</pdfrwt>
<totfact> 0.35275856E+02</totfact>
</mgrwt>
</event>
<event>
 4    1  0.4880711E-008  0.4581198E+03  0.7818608E-02  0.1025328E+00
         -2   -1    0    0    0  501 -0.00000000000E+00  0.00000000000E+00  0.46804636200E+03  0.46804636201E+03  0.25500000000E-02 0.  1.
          2   -1    0    0  501    0  0.00000000000E+00 -0.00000000000E+00 -0.50164807724E+03  0.50164807725E+03  0.25500000000E-02 0. -1.
    8880022    1    1    2    0    0  0.37701009559E+03 -0.21058368280E+03  0.14115725256E+03  0.47937367743E+03  0.15294330000E+03 0.  1.
    8880022    1    1    2    0    0 -0.37701009559E+03  0.21058368280E+03 -0.17475896780E+03  0.49032076183E+03  0.15294330000E+03 0. -1.
<mgrwt>
<rscale>  0 0.45811980E+03</rscale>
<asrwt>0</asrwt>
<pdfrwt beam="1">  1        2 0.77176628E-01 0.45811980E+03</pdfrwt>
<pdfrwt beam="2">  1       -2 0.72007132E-01 0.45811980E+03</pdfrwt>
<totfact> 0.11039666E+02</totfact>
</mgrwt>
</event>
<event>
 4    1  0.4880711E-008  0.7031856E+03  0.7818608E-02  0.9711800E-01
          2   -1    0    0  501    0  0.00000000000E+00  0.00000000000E+00  0.49320949303E+03  0.49320949304E+03  0.25500000000E-02 0. -1.
         -2   -1    0    0    0  501 -0.00000000000E+00 -0.00000000000E+00 -0.12115265471E+04  0.12115265471E+04  0.25500000000E-02 0.  1.
    8880022    1    1    2    0    0 -0.49708520794E+03 -0.47327020496E+03 -0.71315865141E+03  0.10015314803E+04  0.15294330000E+03 0.  0.
    8880022    1    1    2    0    0  0.49708520794E+03  0.47327020496E+03 -0.51584026177E+01  0.70320455985E+03  0.15294330000E+03 0.  0.
<mgrwt>
<rscale>  0 0.70318564E+03</rscale>
<asrwt>0</asrwt>
<pdfrwt beam="1">  1        2 0.75878384E-01 0.70318564E+03</pdfrwt>
<pdfrwt beam="2">  1       -2 0.18638870E+00 0.70318564E+03</pdfrwt>
<totfact> 0.10488333E+01</totfact>
</mgrwt>
</event>
<event>
 4    1  0.4880711E-008  0.9875602E+03  0.7818608E-02  0.9322295E-01
          2   -1    0    0  501    0  0.00000000000E+00  0.00000000000E+00  0.49397129687E+04  0.49397129687E+04  0.25500000000E-02 0. -1.
         -2   -1    0    0    0  501 -0.00000000000E+00 -0.00000000000E+00 -0.50763617792E+03  0.50763617793E+03  0.25500000000E-02 0.  1.
    8880022    1    1    2    0    0  0.19666557901E+03 -0.95561818276E+03  0.43451589188E+04  0.44559714029E+04  0.15294330000E+03 0.  0.
    8880022    1    1    2    0    0 -0.19666557901E+03  0.95561818276E+03  0.86917871969E+02  0.99137774368E+03  0.15294330000E+03 0.  1.
<mgrwt>
<rscale>  0 0.98756018E+03</rscale>
<asrwt>0</asrwt>
<pdfrwt beam="1">  1        2 0.75995588E+00 0.98756018E+03</pdfrwt>
<pdfrwt beam="2">  1       -2 0.78097870E-01 0.98756018E+03</pdfrwt>
<totfact> 0.65628396E-02</totfact>
</mgrwt>
</event>
<event>
 4    1  0.4880711E-008  0.7009751E+03  0.7818608E-02  0.9715566E-01
         -2   -1    0    0    0  501 -0.00000000000E+00  0.00000000000E+00  0.82217111850E+03  0.82217111850E+03  0.25500000000E-02 0.  1.
          2   -1    0    0  501    0  0.00000000000E+00 -0.00000000000E+00 -0.86132325548E+03  0.86132325549E+03  0.25500000000E-02 0. -1.
    8880022    1    1    2    0    0  0.20338505467E+02 -0.68378411543E+03  0.44615603986E+03  0.83091590203E+03  0.15294330000E+03 0.  0.
    8880022    1    1    2    0    0 -0.20338505467E+02  0.68378411543E+03 -0.48530817685E+03  0.85257847196E+03  0.15294330000E+03 0.  0.
<mgrwt>
<rscale>  0 0.70097505E+03</rscale>
<asrwt>0</asrwt>
<pdfrwt beam="1">  1        2 0.13251127E+00 0.70097505E+03</pdfrwt>
<pdfrwt beam="2">  1       -2 0.12648786E+00 0.70097505E+03</pdfrwt>
<totfact> 0.14811023E+01</totfact>
</mgrwt>
</event>
<event>
 4    1  0.4880711E-008  0.7032699E+03  0.7818608E-02  0.9711656E-01
          2   -1    0    0  501    0  0.00000000000E+00  0.00000000000E+00  0.38522241537E+03  0.38522241538E+03  0.25500000000E-02 0. -1.
         -2   -1    0    0    0  501 -0.00000000000E+00 -0.00000000000E+00 -0.14337154439E+04  0.14337154439E+04  0.25500000000E-02 0.  1.
    8880022    1    1    2    0    0  0.62585195238E+03 -0.28196859353E+03 -0.23025902218E+03  0.74000528670E+03  0.15294330000E+03 0.  0.
    8880022    1    1    2    0    0 -0.62585195238E+03  0.28196859353E+03 -0.81823400637E+03  0.10789325726E+04  0.15294330000E+03 0.  0.
<mgrwt>
<rscale>  0 0.70326994E+03</rscale>
<asrwt>0</asrwt>
<pdfrwt beam="1">  1        2 0.59264987E-01 0.70326994E+03</pdfrwt>
<pdfrwt beam="2">  1       -2 0.22057161E+00 0.70326994E+03</pdfrwt>
<totfact> 0.83551786E+00</totfact>
</mgrwt>
</event>
<event>
 4    1  0.4880711E-008  0.3260325E+03  0.7818608E-02  0.1072906E+00
          2   -1    0    0  501    0  0.00000000000E+00  0.00000000000E+00  0.34042957962E+03  0.34042957963E+03  0.25500000000E-02 0. -1.
         -2   -1    0    0    0  501 -0.00000000000E+00 -0.00000000000E+00 -0.90506103079E+03  0.90506103080E+03  0.25500000000E-02 0.  1.
    8880022    1    1    2    0    0 -0.26965400732E+03 -0.10095664498E+03 -0.78631715864E+03  0.85122961345E+03  0.15294330000E+03 0.  1.
    8880022    1    1    2    0    0  0.26965400732E+03  0.10095664498E+03  0.22168570747E+03  0.39426099698E+03  0.15294330000E+03 0.  0.
<mgrwt>
<rscale>  0 0.32603248E+03</rscale>
<asrwt>0</asrwt>
<pdfrwt beam="1">  1        2 0.52373782E-01 0.32603248E+03</pdfrwt>
<pdfrwt beam="2">  1       -2 0.13924016E+00 0.32603248E+03</pdfrwt>
<totfact> 0.36617921E+01</totfact>
</mgrwt>
</event>
<event>
 4    1  0.4880711E-008  0.7038723E+03  0.7818608E-02  0.9710633E-01
          2   -1    0    0  501    0  0.00000000000E+00  0.00000000000E+00  0.73449502642E+03  0.73449502642E+03  0.25500000000E-02 0. -1.
         -2   -1    0    0    0  501 -0.00000000000E+00 -0.00000000000E+00 -0.13880036094E+04  0.13880036094E+04  0.25500000000E-02 0.  1.
    8880022    1    1    2    0    0  0.40887540043E+03 -0.55214625012E+03  0.43411876086E+03  0.82697964071E+03  0.15294330000E+03 0.  0.
    8880022    1    1    2    0    0 -0.40887540043E+03  0.55214625012E+03 -0.10876273438E+04  0.12955189951E+04  0.15294330000E+03 0.  0.
<mgrwt>
<rscale>  0 0.70387231E+03</rscale>
<asrwt>0</asrwt>
<pdfrwt beam="1">  1        2 0.11299923E+00 0.70387231E+03</pdfrwt>
<pdfrwt beam="2">  1       -2 0.21353902E+00 0.70387231E+03</pdfrwt>
<totfact> 0.43131094E+00</totfact>
</mgrwt>
</event>
<event>
 4    1  0.4880711E-008  0.5066767E+03  0.7818608E-02  0.1012051E+00
         -2   -1    0    0    0  501 -0.00000000000E+00  0.00000000000E+00  0.15031568199E+03  0.15031568201E+03  0.25500000000E-02 0.  1.
          2   -1    0    0  501    0  0.00000000000E+00 -0.00000000000E+00 -0.27589133314E+04  0.27589133314E+04  0.25500000000E-02 0. -1.
    8880022    1    1    2    0    0  0.40461086917E+03  0.26385542586E+03 -0.40648367857E+03  0.64957699710E+03  0.15294330000E+03 0.  0.
    8880022    1    1    2    0    0 -0.40461086917E+03 -0.26385542586E+03 -0.22021139708E+04  0.22596520163E+04  0.15294330000E+03 0.  0.
<mgrwt>
<rscale>  0 0.50667672E+03</rscale>
<asrwt>0</asrwt>
<pdfrwt beam="1">  1        2 0.42444817E+00 0.50667672E+03</pdfrwt>
<pdfrwt beam="2">  1       -2 0.23125492E-01 0.50667672E+03</pdfrwt>
<totfact> 0.44177369E+01</totfact>
</mgrwt>
</event>
<event>
 4    1  0.4880711E-008  0.9858585E+03  0.7818608E-02  0.9324192E-01
          2   -1    0    0  501    0  0.00000000000E+00  0.00000000000E+00  0.39587361282E+04  0.39587361282E+04  0.25500000000E-02 0. -1.
         -2   -1    0    0    0  501 -0.00000000000E+00 -0.00000000000E+00 -0.57122901327E+03  0.57122901327E+03  0.25500000000E-02 0.  1.
    8880022    1    1    2    0    0 -0.45016666636E+03 -0.86364073149E+03  0.34040838838E+04  0.35439672800E+04  0.15294330000E+03 0.  0.
    8880022    1    1    2    0    0  0.45016666636E+03  0.86364073149E+03 -0.16576768863E+02  0.98599786150E+03  0.15294330000E+03 0.  0.
<mgrwt>
<rscale>  0 0.98585851E+03</rscale>
<asrwt>0</asrwt>
<pdfrwt beam="1">  1        2 0.60903634E+00 0.98585851E+03</pdfrwt>
<pdfrwt beam="2">  1       -2 0.87881385E-01 0.98585851E+03</pdfrwt>
<totfact> 0.43436661E-01</totfact>
</mgrwt>
</event>
<event>
 4    1  0.4880711E-008  0.3831143E+03  0.7818608E-02  0.1049789E+00
          2   -1    0    0  501    0  0.00000000000E+00  0.00000000000E+00  0.12242134728E+04  0.12242134728E+04  0.25500000000E-02 0. -1.
         -2   -1    0    0    0  501 -0.00000000000E+00 -0.00000000000E+00 -0.45918250301E+03  0.45918250302E+03  0.25500000000E-02 0.  1.
    8880022    1    1    2    0    0 -0.32347149077E+03 -0.13693464867E+03  0.11060309624E+04  0.11705046117E+04  0.15294330000E+03 0.  0.
    8880022    1    1    2    0    0  0.32347149077E+03  0.13693464867E+03 -0.34099999262E+03  0.51289136406E+03  0.15294330000E+03 0.  0.
<mgrwt>
<rscale>  0 0.38311429E+03</rscale>
<asrwt>0</asrwt>
<pdfrwt beam="1">  1        2 0.18834054E+00 0.38311429E+03</pdfrwt>
<pdfrwt beam="2">  1       -2 0.70643462E-01 0.38311429E+03</pdfrwt>
<totfact> 0.35821992E+01</totfact>
</mgrwt>
</event>
<event>
 4    1  0.4880711E-008  0.1039507E+04  0.7818608E-02  0.9266245E-01
          2   -1    0    0  501    0  0.00000000000E+00  0.00000000000E+00  0.16776602262E+04  0.16776602262E+04  0.25500000000E-02 0. -1.
         -2   -1    0    0    0  501 -0.00000000000E+00 -0.00000000000E+00 -0.88228353551E+03  0.88228353552E+03  0.25500000000E-02 0.  1.
    8880022    1    1    2    0    0 -0.86692557730E+03  0.55283269923E+03 -0.26736290894E+03  0.10733398940E+04  0.15294330000E+03 0.  0.
    8880022    1    1    2    0    0  0.86692557730E+03 -0.55283269923E+03  0.10627395996E+04  0.14866038677E+04  0.15294330000E+03 0.  0.
<mgrwt>
<rscale>  0 0.10395074E+04</rscale>
<asrwt>0</asrwt>
<pdfrwt beam="1">  1        2 0.25810157E+00 0.10395074E+04</pdfrwt>
<pdfrwt beam="2">  1       -2 0.13573593E+00 0.10395074E+04</pdfrwt>
<totfact> 0.38870595E+00</totfact>
</mgrwt>
</event>
<event>
 4    1  0.4880711E-008  0.2747245E+03  0.7818608E-02  0.1098606E+00
          2   -1    0    0  501    0  0.00000000000E+00  0.00000000000E+00  0.13680154434E+03  0.13680154436E+03  0.25500000000E-02 0. -1.
         -2   -1    0    0    0  501 -0.00000000000E+00 -0.00000000000E+00 -0.90039138028E+03  0.90039138028E+03  0.25500000000E-02 0.  1.
    8880022    1    1    2    0    0 -0.12540595947E+02 -0.22786974662E+03 -0.59068955828E+02  0.28100299381E+03  0.15294330000E+03 0.  0.
    8880022    1    1    2    0    0  0.12540595947E+02  0.22786974662E+03 -0.70452088011E+03  0.75618993084E+03  0.15294330000E+03 0.  0.
<mgrwt>
<rscale>  0 0.27472448E+03</rscale>
<asrwt>0</asrwt>
<pdfrwt beam="1">  1        2 0.21046392E-01 0.27472448E+03</pdfrwt>
<pdfrwt beam="2">  1       -2 0.13852175E+00 0.27472448E+03</pdfrwt>
<totfact> 0.10225811E+02</totfact>
</mgrwt>
</event>
<event>
 4    1  0.4880711E-008  0.5089943E+03  0.7818608E-02  0.1011458E+00
         -2   -1    0    0    0  501 -0.00000000000E+00  0.00000000000E+00  0.30158407963E+03  0.30158407964E+03  0.25500000000E-02 0.  1.
          2   -1    0    0  501    0  0.00000000000E+00 -0.00000000000E+00 -0.18824780872E+04  0.18824780872E+04  0.25500000000E-02 0. -1.
    8880022    1    1    2    0    0 -0.25975035685E+02  0.48477706270E+03 -0.15956384580E+04  0.16748543951E+04  0.15294330000E+03 0.  0.
    8880022    1    1    2    0    0  0.25975035685E+02 -0.48477706270E+03  0.14744450437E+02  0.50920777177E+03  0.15294330000E+03 0.  0.
<mgrwt>
<rscale>  0 0.50899426E+03</rscale>
<asrwt>0</asrwt>
<pdfrwt beam="1">  1        2 0.28961201E+00 0.50899426E+03</pdfrwt>
<pdfrwt beam="2">  1       -2 0.46397552E-01 0.50899426E+03</pdfrwt>
<totfact> 0.36506762E+01</totfact>
</mgrwt>
</event>
<event>
 4    1  0.4880711E-008  0.4956226E+03  0.7818608E-02  0.1014928E+00
         -2   -1    0    0    0  501 -0.00000000000E+00  0.00000000000E+00  0.14300052329E+03  0.14300052331E+03  0.25500000000E-02 0.  1.
          2   -1    0    0  501    0  0.00000000000E+00 -0.00000000000E+00 -0.25961291605E+04  0.25961291605E+04  0.25500000000E-02 0. -1.
    8880022    1    1    2    0    0  0.45580540917E+03  0.12038099884E+03 -0.42993577337E+03  0.65611475989E+03  0.15294330000E+03 0.  0.
    8880022    1    1    2    0    0 -0.45580540917E+03 -0.12038099884E+03 -0.20231928638E+04  0.20830149239E+04  0.15294330000E+03 0.  0.
<mgrwt>
<rscale>  0 0.49562265E+03</rscale>
<asrwt>0</asrwt>
<pdfrwt beam="1">  1        2 0.39940445E+00 0.49562265E+03</pdfrwt>
<pdfrwt beam="2">  1       -2 0.22000082E-01 0.49562265E+03</pdfrwt>
<totfact> 0.59945377E+01</totfact>
</mgrwt>
</event>
<event>
 4    1  0.4880711E-008  0.5012504E+03  0.7818608E-02  0.1013453E+00
          2   -1    0    0  501    0  0.00000000000E+00  0.00000000000E+00  0.31365588195E+04  0.31365588195E+04  0.25500000000E-02 0. -1.
         -2   -1    0    0    0  501 -0.00000000000E+00 -0.00000000000E+00 -0.10076026183E+03  0.10076026186E+03  0.25500000000E-02 0.  1.
    8880022    1    1    2    0    0  0.43793544545E+03 -0.18992850281E+03  0.22507799383E+04  0.23059189652E+04  0.15294330000E+03 0.  0.
    8880022    1    1    2    0    0 -0.43793544545E+03  0.18992850281E+03  0.78501861941E+03  0.93140011616E+03  0.15294330000E+03 0.  1.
<mgrwt>
<rscale>  0 0.50125038E+03</rscale>
<asrwt>0</asrwt>
<pdfrwt beam="1">  1        2 0.48254747E+00 0.50125038E+03</pdfrwt>
<pdfrwt beam="2">  1       -2 0.15501580E-01 0.50125038E+03</pdfrwt>
<totfact> 0.52394802E+01</totfact>
</mgrwt>
</event>
<event>
 4    1  0.4880711E-008  0.1280401E+04  0.7818608E-02  0.9045254E-01
          2   -1    0    0  501    0  0.00000000000E+00  0.00000000000E+00  0.15163006420E+04  0.15163006420E+04  0.25500000000E-02 0. -1.
         -2   -1    0    0    0  501 -0.00000000000E+00 -0.00000000000E+00 -0.21821677369E+04  0.21821677369E+04  0.25500000000E-02 0.  1.
    8880022    1    1    2    0    0  0.45705711641E+03 -0.11862263774E+04 -0.16464482365E+04  0.20857175443E+04  0.15294330000E+03 0.  0.
    8880022    1    1    2    0    0 -0.45705711641E+03  0.11862263774E+04  0.98058114162E+03  0.16127508346E+04  0.15294330000E+03 0.  0.
<mgrwt>
<rscale>  0 0.12804007E+04</rscale>
<asrwt>0</asrwt>
<pdfrwt beam="1">  1        2 0.23327702E+00 0.12804007E+04</pdfrwt>
<pdfrwt beam="2">  1       -2 0.33571811E+00 0.12804007E+04</pdfrwt>
<totfact> 0.23002046E-01</totfact>
</mgrwt>
</event>
<event>
 4    1  0.4880711E-008  0.7268204E+03  0.7818608E-02  0.9672434E-01
         -2   -1    0    0    0  501 -0.00000000000E+00  0.00000000000E+00  0.54517130971E+03  0.54517130972E+03  0.25500000000E-02 0.  1.
          2   -1    0    0  501    0  0.00000000000E+00 -0.00000000000E+00 -0.31280135444E+04  0.31280135444E+04  0.25500000000E-02 0. -1.
    8880022    1    1    2    0    0  0.17116703927E+03  0.68962164607E+03  0.23441097890E+03  0.76368601539E+03  0.15294330000E+03 0.  1.
    8880022    1    1    2    0    0 -0.17116703927E+03 -0.68962164607E+03 -0.28172532136E+04  0.29094988387E+04  0.15294330000E+03 0.  0.
<mgrwt>
<rscale>  0 0.72682035E+03</rscale>
<asrwt>0</asrwt>
<pdfrwt beam="1">  1        2 0.48123284E+00 0.72682035E+03</pdfrwt>
<pdfrwt beam="2">  1       -2 0.83872511E-01 0.72682035E+03</pdfrwt>
<totfact> 0.19328864E+00</totfact>
</mgrwt>
</event>
<event>
 4    1  0.4880711E-008  0.6462345E+03  0.7818608E-02  0.9813871E-01
          2   -1    0    0  501    0  0.00000000000E+00  0.00000000000E+00  0.21750173662E+04  0.21750173662E+04  0.25500000000E-02 0. -1.
         -2   -1    0    0    0  501 -0.00000000000E+00 -0.00000000000E+00 -0.47385806929E+03  0.47385806930E+03  0.25500000000E-02 0.  1.
    8880022    1    1    2    0    0  0.36922743347E+03  0.50783705134E+03  0.18720295707E+04  0.19804327141E+04  0.15294330000E+03 0.  0.
    8880022    1    1    2    0    0 -0.36922743347E+03 -0.50783705134E+03 -0.17087027381E+03  0.66844272142E+03  0.15294330000E+03 0.  1.
<mgrwt>
<rscale>  0 0.64623449E+03</rscale>
<asrwt>0</asrwt>
<pdfrwt beam="1">  1        2 0.33461806E+00 0.64623449E+03</pdfrwt>
<pdfrwt beam="2">  1       -2 0.72901241E-01 0.64623449E+03</pdfrwt>
<totfact> 0.95991321E+00</totfact>
</mgrwt>
</event>
<event>
 4    1  0.4880711E-008  0.9328156E+03  0.7818608E-02  0.9385465E-01
          2   -1    0    0  501    0  0.00000000000E+00  0.00000000000E+00  0.17667971464E+04  0.17667971464E+04  0.25500000000E-02 0. -1.
         -2   -1    0    0    0  501 -0.00000000000E+00 -0.00000000000E+00 -0.78695438215E+03  0.78695438215E+03  0.25500000000E-02 0.  1.
    8880022    1    1    2    0    0 -0.78558006095E+03 -0.47918393933E+03  0.12709806444E+04  0.15765585087E+04  0.15294330000E+03 0.  0.
    8880022    1    1    2    0    0  0.78558006095E+03  0.47918393933E+03 -0.29113788012E+03  0.97719301990E+03  0.15294330000E+03 0.  0.
<mgrwt>
<rscale>  0 0.93281559E+03</rscale>
<asrwt>0</asrwt>
<pdfrwt beam="1">  1        2 0.27181494E+00 0.93281559E+03</pdfrwt>
<pdfrwt beam="2">  1       -2 0.12106991E+00 0.93281559E+03</pdfrwt>
<totfact> 0.46968927E+00</totfact>
</mgrwt>
</event>
<event>
 4    1  0.4880711E-008  0.1770923E+03  0.7818608E-02  0.1170647E+00
          2   -1    0    0  501    0  0.00000000000E+00  0.00000000000E+00  0.17083331030E+04  0.17083331030E+04  0.25500000000E-02 0. -1.
         -2   -1    0    0    0  501 -0.00000000000E+00 -0.00000000000E+00 -0.51329736395E+02  0.51329736459E+02  0.25500000000E-02 0.  1.
    8880022    1    1    2    0    0 -0.11983760793E+02 -0.88467028505E+02  0.15336581222E+04  0.15438487343E+04  0.15294330000E+03 0.  0.
    8880022    1    1    2    0    0  0.11983760793E+02  0.88467028505E+02  0.12334524446E+03  0.21581410519E+03  0.15294330000E+03 0.  1.
<mgrwt>
<rscale>  0 0.17709229E+03</rscale>
<asrwt>0</asrwt>
<pdfrwt beam="1">  1        2 0.26282046E+00 0.17709229E+03</pdfrwt>
<pdfrwt beam="2">  1       -2 0.78968831E-02 0.17709229E+03</pdfrwt>
<totfact> 0.10321315E+03</totfact>
</mgrwt>
</event>
<event>
 4    1  0.4880711E-008  0.4808338E+03  0.7818608E-02  0.1018906E+00
          2   -1    0    0  501    0  0.00000000000E+00  0.00000000000E+00  0.18694801881E+04  0.18694801881E+04  0.25500000000E-02 0. -1.
         -2   -1    0    0    0  501 -0.00000000000E+00 -0.00000000000E+00 -0.21810918575E+03  0.21810918577E+03  0.25500000000E-02 0.  1.
    8880022    1    1    2    0    0  0.45400376244E+03  0.41110976840E+02  0.15125183591E+04  0.15871083669E+04  0.15294330000E+03 0.  0.
    8880022    1    1    2    0    0 -0.45400376244E+03 -0.41110976840E+02  0.13885264320E+03  0.50048100690E+03  0.15294330000E+03 0.  0.
<mgrwt>
<rscale>  0 0.48083384E+03</rscale>
<asrwt>0</asrwt>
<pdfrwt beam="1">  1        2 0.28761234E+00 0.48083384E+03</pdfrwt>
<pdfrwt beam="2">  1       -2 0.33555259E-01 0.48083384E+03</pdfrwt>
<totfact> 0.69766293E+01</totfact>
</mgrwt>
</event>
<event>
 4    1  0.4880711E-008  0.9580911E+03  0.7818608E-02  0.9355743E-01
          2   -1    0    0  501    0  0.00000000000E+00  0.00000000000E+00  0.16299441400E+04  0.16299441400E+04  0.25500000000E-02 0. -1.
         -2   -1    0    0    0  501 -0.00000000000E+00 -0.00000000000E+00 -0.13690150417E+04  0.13690150418E+04  0.25500000000E-02 0.  1.
    8880022    1    1    2    0    0 -0.76016766149E+03  0.56275397973E+03 -0.10199695194E+04  0.13993842892E+04  0.15294330000E+03 0.  0.
    8880022    1    1    2    0    0  0.76016766149E+03 -0.56275397973E+03  0.12808986177E+04  0.15995748926E+04  0.15294330000E+03 0.  0.
<mgrwt>
<rscale>  0 0.95809111E+03</rscale>
<asrwt>0</asrwt>
<pdfrwt beam="1">  1        2 0.25076064E+00 0.95809111E+03</pdfrwt>
<pdfrwt beam="2">  1       -2 0.21061770E+00 0.95809111E+03</pdfrwt>
<totfact> 0.12191263E+00</totfact>
</mgrwt>
</event>
<event>
 4    1  0.4880711E-008  0.4878841E+03  0.7818608E-02  0.1016991E+00
         -2   -1    0    0    0  501 -0.00000000000E+00  0.00000000000E+00  0.20491620330E+03  0.20491620331E+03  0.25500000000E-02 0.  1.
          2   -1    0    0  501    0  0.00000000000E+00 -0.00000000000E+00 -0.27255551541E+04  0.27255551541E+04  0.25500000000E-02 0. -1.
    8880022    1    1    2    0    0  0.10458056525E+03 -0.45133373115E+03 -0.15039866372E+03  0.51053956023E+03  0.15294330000E+03 0.  0.
    8880022    1    1    2    0    0 -0.10458056525E+03  0.45133373115E+03 -0.23702402871E+04  0.24199317972E+04  0.15294330000E+03 0.  0.
<mgrwt>
<rscale>  0 0.48788409E+03</rscale>
<asrwt>0</asrwt>
<pdfrwt beam="1">  1        2 0.41931615E+00 0.48788409E+03</pdfrwt>
<pdfrwt beam="2">  1       -2 0.31525572E-01 0.48788409E+03</pdfrwt>
<totfact> 0.26441837E+01</totfact>
</mgrwt>
</event>
<event>
 4    1  0.4880711E-008  0.4624931E+03  0.7818608E-02  0.1024061E+00
         -2   -1    0    0    0  501 -0.00000000000E+00  0.00000000000E+00  0.13868310065E+03  0.13868310068E+03  0.25500000000E-02 0.  1.
          2   -1    0    0  501    0  0.00000000000E+00 -0.00000000000E+00 -0.23596377852E+04  0.23596377852E+04  0.25500000000E-02 0. -1.
    8880022    1    1    2    0    0 -0.39558650302E+03 -0.18444377471E+03 -0.37532168963E+03  0.59562254081E+03  0.15294330000E+03 0.  0.
    8880022    1    1    2    0    0  0.39558650302E+03  0.18444377471E+03 -0.18456329949E+04  0.19026983451E+04  0.15294330000E+03 0. -1.
<mgrwt>
<rscale>  0 0.46249307E+03</rscale>
<asrwt>0</asrwt>
<pdfrwt beam="1">  1        2 0.36302117E+00 0.46249307E+03</pdfrwt>
<pdfrwt beam="2">  1       -2 0.21335863E-01 0.46249307E+03</pdfrwt>
<totfact> 0.86278481E+01</totfact>
</mgrwt>
</event>
<event>
 4    1  0.4880711E-008  0.2963184E+03  0.7818608E-02  0.1087096E+00
          2   -1    0    0  501    0  0.00000000000E+00  0.00000000000E+00  0.17625384362E+04  0.17625384362E+04  0.25500000000E-02 0. -1.
         -2   -1    0    0    0  501 -0.00000000000E+00 -0.00000000000E+00 -0.15117218190E+03  0.15117218192E+03  0.25500000000E-02 0.  1.
    8880022    1    1    2    0    0  0.13765574223E+03  0.21322252097E+03  0.15891723706E+04  0.16165622237E+04  0.15294330000E+03 0.  0.
    8880022    1    1    2    0    0 -0.13765574223E+03 -0.21322252097E+03  0.22193883764E+02  0.29714839442E+03  0.15294330000E+03 0.  0.
<mgrwt>
<rscale>  0 0.29631841E+03</rscale>
<asrwt>0</asrwt>
<pdfrwt beam="1">  1        2 0.27115976E+00 0.29631841E+03</pdfrwt>
<pdfrwt beam="2">  1       -2 0.23257259E-01 0.29631841E+03</pdfrwt>
<totfact> 0.16038658E+02</totfact>
</mgrwt>
</event>
<event>
 4    1  0.4880711E-008  0.5776834E+03  0.7818608E-02  0.9952819E-01
          2   -1    0    0  501    0  0.00000000000E+00  0.00000000000E+00  0.49309907147E+03  0.49309907147E+03  0.25500000000E-02 0. -1.
         -2   -1    0    0    0  501 -0.00000000000E+00 -0.00000000000E+00 -0.75729526017E+03  0.75729526017E+03  0.25500000000E-02 0.  1.
    8880022    1    1    2    0    0  0.22894862014E+03  0.50784740956E+03 -0.33595787200E+03  0.66827075862E+03  0.15294330000E+03 0.  0.
    8880022    1    1    2    0    0 -0.22894862014E+03 -0.50784740956E+03  0.71761683298E+02  0.58212357302E+03  0.15294330000E+03 0.  0.
<mgrwt>
<rscale>  0 0.57768340E+03</rscale>
<asrwt>0</asrwt>
<pdfrwt beam="1">  1        2 0.75861396E-01 0.57768340E+03</pdfrwt>
<pdfrwt beam="2">  1       -2 0.11650696E+00 0.57768340E+03</pdfrwt>
<totfact> 0.36694769E+01</totfact>
</mgrwt>
</event>
<event>
 4    1  0.4880711E-008  0.2568963E+03  0.7818608E-02  0.1109022E+00
          2   -1    0    0  501    0  0.00000000000E+00  0.00000000000E+00  0.26975495600E+04  0.26975495600E+04  0.25500000000E-02 0. -1.
         -2   -1    0    0    0  501 -0.00000000000E+00 -0.00000000000E+00 -0.12026990570E+03  0.12026990573E+03  0.25500000000E-02 0.  1.
    8880022    1    1    2    0    0  0.19821796257E+03 -0.57564751858E+02  0.31167548089E+02  0.25878008117E+03  0.15294330000E+03 0.  0.
    8880022    1    1    2    0    0 -0.19821796257E+03  0.57564751858E+02  0.25461121062E+04  0.25590393845E+04  0.15294330000E+03 0.  0.
<mgrwt>
<rscale>  0 0.25689631E+03</rscale>
<asrwt>0</asrwt>
<pdfrwt beam="1">  1        2 0.41500766E+00 0.25689631E+03</pdfrwt>
<pdfrwt beam="2">  1       -2 0.18503061E-01 0.25689631E+03</pdfrwt>
<totfact> 0.75741223E+01</totfact>
</mgrwt>
</event>
<event>
 4    1  0.4880711E-008  0.9099545E+03  0.7818608E-02  0.9413223E-01
          2   -1    0    0  501    0  0.00000000000E+00  0.00000000000E+00  0.20441866301E+04  0.20441866301E+04  0.25500000000E-02 0. -1.
         -2   -1    0    0    0  501 -0.00000000000E+00 -0.00000000000E+00 -0.97027542059E+03  0.97027542060E+03  0.25500000000E-02 0.  1.
    8880022    1    1    2    0    0 -0.25033702167E+03 -0.86136920569E+03  0.16873308000E+04  0.19170556629E+04  0.15294330000E+03 0.  0.
    8880022    1    1    2    0    0  0.25033702167E+03  0.86136920569E+03 -0.61341959052E+03  0.10974063878E+04  0.15294330000E+03 0.  0.
<mgrwt>
<rscale>  0 0.90995450E+03</rscale>
<asrwt>0</asrwt>
<pdfrwt beam="1">  1        2 0.31449025E+00 0.90995450E+03</pdfrwt>
<pdfrwt beam="2">  1       -2 0.14927314E+00 0.90995450E+03</pdfrwt>
<totfact> 0.19379681E+00</totfact>
</mgrwt>
</event>
<event>
 4    1  0.4880711E-008  0.4623636E+03  0.7818608E-02  0.1024098E+00
          2   -1    0    0  501    0  0.00000000000E+00  0.00000000000E+00  0.17325951118E+04  0.17325951118E+04  0.25500000000E-02 0. -1.
         -2   -1    0    0    0  501 -0.00000000000E+00 -0.00000000000E+00 -0.46203313464E+03  0.46203313464E+03  0.25500000000E-02 0.  1.
    8880022    1    1    2    0    0  0.19999921920E+02 -0.43587662160E+03  0.15747172809E+04  0.16411930398E+04  0.15294330000E+03 0.  0.
    8880022    1    1    2    0    0 -0.19999921920E+02  0.43587662160E+03 -0.30415530374E+03  0.55343520663E+03  0.15294330000E+03 0.  1.
<mgrwt>
<rscale>  0 0.46236358E+03</rscale>
<asrwt>0</asrwt>
<pdfrwt beam="1">  1        2 0.26655309E+00 0.46236358E+03</pdfrwt>
<pdfrwt beam="2">  1       -2 0.71082021E-01 0.46236358E+03</pdfrwt>
<totfact> 0.18257051E+01</totfact>
</mgrwt>
</event>
<event>
 4    1  0.4880711E-008  0.1687770E+03  0.7818608E-02  0.1179129E+00
          2   -1    0    0  501    0  0.00000000000E+00  0.00000000000E+00  0.31684489610E+04  0.31684489610E+04  0.25500000000E-02 0. -1.
         -2   -1    0    0    0  501 -0.00000000000E+00 -0.00000000000E+00 -0.11627027727E+02  0.11627028007E+02  0.25500000000E-02 0.  1.
    8880022    1    1    2    0    0 -0.62565049533E+02  0.34345672162E+02  0.82123552034E+03  0.83839933415E+03  0.15294330000E+03 0.  0.
    8880022    1    1    2    0    0  0.62565049533E+02 -0.34345672162E+02  0.23355864129E+04  0.23416766548E+04  0.15294330000E+03 0.  0.
<mgrwt>
<rscale>  0 0.16877696E+03</rscale>
<asrwt>0</asrwt>
<pdfrwt beam="1">  1        2 0.48745372E+00 0.16877696E+03</pdfrwt>
<pdfrwt beam="2">  1       -2 0.17887734E-02 0.16877696E+03</pdfrwt>
<totfact> 0.15326514E+03</totfact>
</mgrwt>
</event>
<event>
 4    1  0.4880711E-008  0.8607760E+03  0.7818608E-02  0.9475987E-01
          2   -1    0    0  501    0  0.00000000000E+00  0.00000000000E+00  0.17152915361E+04  0.17152915361E+04  0.25500000000E-02 0. -1.
         -2   -1    0    0    0  501 -0.00000000000E+00 -0.00000000000E+00 -0.56842321943E+03  0.56842321944E+03  0.25500000000E-02 0.  1.
    8880022    1    1    2    0    0  0.68774955704E+03 -0.49451414349E+03  0.11329154998E+04  0.14228256654E+04  0.15294330000E+03 0.  0.
    8880022    1    1    2    0    0 -0.68774955704E+03  0.49451414349E+03  0.13952816776E+02  0.86088909009E+03  0.15294330000E+03 0.  0.
<mgrwt>
<rscale>  0 0.86077601E+03</rscale>
<asrwt>0</asrwt>
<pdfrwt beam="1">  1        2 0.26389100E+00 0.86077601E+03</pdfrwt>
<pdfrwt beam="2">  1       -2 0.87449727E-01 0.86077601E+03</pdfrwt>
<totfact> 0.11010223E+01</totfact>
</mgrwt>
</event>
<event>
 4    1  0.4880711E-008  0.1363072E+04  0.7818608E-02  0.8980992E-01
          2   -1    0    0  501    0  0.00000000000E+00  0.00000000000E+00  0.23394149351E+04  0.23394149351E+04  0.25500000000E-02 0. -1.
         -2   -1    0    0    0  501 -0.00000000000E+00 -0.00000000000E+00 -0.11565843616E+04  0.11565843616E+04  0.25500000000E-02 0.  1.
    8880022    1    1    2    0    0 -0.52430680636E+03 -0.12488695910E+04  0.15698618251E+04  0.20790456188E+04  0.15294330000E+03 0.  0.
    8880022    1    1    2    0    0  0.52430680636E+03  0.12488695910E+04 -0.38703125162E+03  0.14169536778E+04  0.15294330000E+03 0.  0.
<mgrwt>
<rscale>  0 0.13630717E+04</rscale>
<asrwt>0</asrwt>
<pdfrwt beam="1">  1        2 0.35990999E+00 0.13630717E+04</pdfrwt>
<pdfrwt beam="2">  1       -2 0.17793606E+00 0.13630717E+04</pdfrwt>
<totfact> 0.77078008E-01</totfact>
</mgrwt>
</event>
<event>
 4    1  0.4880711E-008  0.5070265E+03  0.7818608E-02  0.1011961E+00
         -2   -1    0    0    0  501 -0.00000000000E+00  0.00000000000E+00  0.18358945226E+03  0.18358945227E+03  0.25500000000E-02 0.  1.
          2   -1    0    0  501    0  0.00000000000E+00 -0.00000000000E+00 -0.19991995671E+04  0.19991995671E+04  0.25500000000E-02 0. -1.
    8880022    1    1    2    0    0  0.27378454154E+03  0.39840468399E+03 -0.31044062782E+03  0.59451602486E+03  0.15294330000E+03 0.  0.
    8880022    1    1    2    0    0 -0.27378454154E+03 -0.39840468399E+03 -0.15051694871E+04  0.15882729945E+04  0.15294330000E+03 0.  0.
<mgrwt>
<rscale>  0 0.50702655E+03</rscale>
<asrwt>0</asrwt>
<pdfrwt beam="1">  1        2 0.30756915E+00 0.50702655E+03</pdfrwt>
<pdfrwt beam="2">  1       -2 0.28244533E-01 0.50702655E+03</pdfrwt>
<totfact> 0.81382687E+01</totfact>
</mgrwt>
</event>
<event>
 4    1  0.4880711E-008  0.3843735E+03  0.7818608E-02  0.1049329E+00
         -2   -1    0    0    0  501 -0.00000000000E+00  0.00000000000E+00  0.18365412571E+03  0.18365412572E+03  0.25500000000E-02 0.  1.
          2   -1    0    0  501    0  0.00000000000E+00 -0.00000000000E+00 -0.15444748343E+04  0.15444748343E+04  0.25500000000E-02 0. -1.
    8880022    1    1    2    0    0  0.54393351480E+02 -0.34841457612E+03 -0.12785119690E+04  0.13350415204E+04  0.15294330000E+03 0.  0.
    8880022    1    1    2    0    0 -0.54393351480E+02  0.34841457612E+03 -0.82308739669E+02  0.39308743961E+03  0.15294330000E+03 0.  1.
<mgrwt>
<rscale>  0 0.38437352E+03</rscale>
<asrwt>0</asrwt>
<pdfrwt beam="1">  1        2 0.23761150E+00 0.38437352E+03</pdfrwt>
<pdfrwt beam="2">  1       -2 0.28254482E-01 0.38437352E+03</pdfrwt>
<totfact> 0.14564627E+02</totfact>
</mgrwt>
</event>
<event>
 4    1  0.4880711E-008  0.2873288E+03  0.7818608E-02  0.1091752E+00
         -2   -1    0    0    0  501 -0.00000000000E+00  0.00000000000E+00  0.55320434433E+03  0.55320434433E+03  0.25500000000E-02 0.  1.
          2   -1    0    0  501    0  0.00000000000E+00 -0.00000000000E+00 -0.29551901008E+04  0.29551901008E+04  0.25500000000E-02 0. -1.
    8880022    1    1    2    0    0  0.20888236711E+03  0.12463692908E+03  0.50833749120E+03  0.58392196855E+03  0.15294330000E+03 0.  0.
    8880022    1    1    2    0    0 -0.20888236711E+03 -0.12463692908E+03 -0.29103232477E+04  0.29244724766E+04  0.15294330000E+03 0. -1.
<mgrwt>
<rscale>  0 0.28732884E+03</rscale>
<asrwt>0</asrwt>
<pdfrwt beam="1">  1        2 0.45464462E+00 0.28732884E+03</pdfrwt>
<pdfrwt beam="2">  1       -2 0.85108362E-01 0.28732884E+03</pdfrwt>
<totfact> 0.27719310E+00</totfact>
</mgrwt>
</event>
<event>
 4    1  0.4880711E-008  0.1173817E+04  0.7818608E-02  0.9136089E-01
          2   -1    0    0  501    0  0.00000000000E+00  0.00000000000E+00  0.20362253200E+04  0.20362253200E+04  0.25500000000E-02 0. -1.
         -2   -1    0    0    0  501 -0.00000000000E+00 -0.00000000000E+00 -0.10305225822E+04  0.10305225822E+04  0.25500000000E-02 0.  1.
    8880022    1    1    2    0    0 -0.92108170911E+03 -0.71138069892E+03  0.14013813960E+04  0.18280359635E+04  0.15294330000E+03 0.  0.
    8880022    1    1    2    0    0  0.92108170911E+03  0.71138069892E+03 -0.39567865822E+03  0.12387119388E+04  0.15294330000E+03 0.  0.
<mgrwt>
<rscale>  0 0.11738167E+04</rscale>
<asrwt>0</asrwt>
<pdfrwt beam="1">  1        2 0.31326543E+00 0.11738167E+04</pdfrwt>
<pdfrwt beam="2">  1       -2 0.15854194E+00 0.11738167E+04</pdfrwt>
<totfact> 0.16074786E+00</totfact>
</mgrwt>
</event>
<event>
 4    1  0.4880711E-008  0.7622988E+03  0.7818608E-02  0.9616251E-01
         -2   -1    0    0    0  501 -0.00000000000E+00  0.00000000000E+00  0.27064434417E+03  0.27064434418E+03  0.25500000000E-02 0.  1.
          2   -1    0    0  501    0  0.00000000000E+00 -0.00000000000E+00 -0.24196533938E+04  0.24196533938E+04  0.25500000000E-02 0. -1.
    8880022    1    1    2    0    0 -0.73919205303E+03 -0.10631512818E+03 -0.15259679505E+04  0.17057777219E+04  0.15294330000E+03 0.  0.
    8880022    1    1    2    0    0  0.73919205303E+03  0.10631512818E+03 -0.62304109913E+03  0.98452001603E+03  0.15294330000E+03 0.  0.
<mgrwt>
<rscale>  0 0.76229879E+03</rscale>
<asrwt>0</asrwt>
<pdfrwt beam="1">  1        2 0.37225435E+00 0.76229879E+03</pdfrwt>
<pdfrwt beam="2">  1       -2 0.41637593E-01 0.76229879E+03</pdfrwt>
<totfact> 0.22046398E+01</totfact>
</mgrwt>
</event>
<event>
 4    1  0.4880711E-008  0.9044427E+03  0.7818608E-02  0.9420045E-01
          2   -1    0    0  501    0  0.00000000000E+00  0.00000000000E+00  0.36705206084E+04  0.36705206084E+04  0.25500000000E-02 0. -1.
         -2   -1    0    0    0  501 -0.00000000000E+00 -0.00000000000E+00 -0.28561029826E+03  0.28561029827E+03  0.25500000000E-02 0.  1.
    8880022    1    1    2    0    0 -0.55608012869E+03 -0.69670644359E+03  0.76528921789E+03  0.11847718000E+04  0.15294330000E+03 0.  0.
    8880022    1    1    2    0    0  0.55608012869E+03  0.69670644359E+03  0.26196210922E+04  0.27713591066E+04  0.15294330000E+03 0.  0.
<mgrwt>
<rscale>  0 0.90444272E+03</rscale>
<asrwt>0</asrwt>
<pdfrwt beam="1">  1        2 0.56469550E+00 0.90444272E+03</pdfrwt>
<pdfrwt beam="2">  1       -2 0.43940044E-01 0.90444272E+03</pdfrwt>
<totfact> 0.31940720E+00</totfact>
</mgrwt>
</event>
<event>
 4    1  0.4880711E-008  0.4376812E+03  0.7818608E-02  0.1031461E+00
         -2   -1    0    0    0  501 -0.00000000000E+00  0.00000000000E+00  0.27924613710E+03  0.27924613711E+03  0.25500000000E-02 0.  1.
          2   -1    0    0  501    0  0.00000000000E+00 -0.00000000000E+00 -0.10146102272E+04  0.10146102272E+04  0.25500000000E-02 0. -1.
    8880022    1    1    2    0    0 -0.40650185545E+03  0.54124225834E+02  0.48276371128E+00  0.43768147822E+03  0.15294330000E+03 0.  0.
    8880022    1    1    2    0    0  0.40650185545E+03 -0.54124225834E+02 -0.73584685382E+03  0.85617488610E+03  0.15294330000E+03 0.  0.
<mgrwt>
<rscale>  0 0.43768121E+03</rscale>
<asrwt>0</asrwt>
<pdfrwt beam="1">  1        2 0.15609388E+00 0.43768121E+03</pdfrwt>
<pdfrwt beam="2">  1       -2 0.42960945E-01 0.43768121E+03</pdfrwt>
<totfact> 0.13179731E+02</totfact>
</mgrwt>
</event>
<event>
 4    1  0.4880711E-008  0.5342200E+03  0.7818608E-02  0.1005214E+00
         -2   -1    0    0    0  501 -0.00000000000E+00  0.00000000000E+00  0.46987080561E+03  0.46987080562E+03  0.25500000000E-02 0.  1.
          2   -1    0    0  501    0  0.00000000000E+00 -0.00000000000E+00 -0.10698856916E+04  0.10698856916E+04  0.25500000000E-02 0. -1.
    8880022    1    1    2    0    0 -0.37831357523E+02 -0.51045876755E+03  0.20617958734E+03  0.57262644039E+03  0.15294330000E+03 0.  0.
    8880022    1    1    2    0    0  0.37831357523E+02  0.51045876755E+03 -0.80619447334E+03  0.96713005684E+03  0.15294330000E+03 0.  0.
<mgrwt>
<rscale>  0 0.53422001E+03</rscale>
<asrwt>0</asrwt>
<pdfrwt beam="1">  1        2 0.16459780E+00 0.53422001E+03</pdfrwt>
<pdfrwt beam="2">  1       -2 0.72287817E-01 0.53422001E+03</pdfrwt>
<totfact> 0.41023331E+01</totfact>
</mgrwt>
</event>
<event>
 4    1  0.4880711E-008  0.2347429E+03  0.7818608E-02  0.1123345E+00
         -2   -1    0    0    0  501 -0.00000000000E+00  0.00000000000E+00  0.38197140794E+03  0.38197140795E+03  0.25500000000E-02 0.  1.
          2   -1    0    0  501    0  0.00000000000E+00 -0.00000000000E+00 -0.20240288813E+04  0.20240288813E+04  0.25500000000E-02 0. -1.
    8880022    1    1    2    0    0 -0.73736586193E+02 -0.16209710803E+03  0.33830706624E+03  0.41177163654E+03  0.15294330000E+03 0.  1.
    8880022    1    1    2    0    0  0.73736586193E+02  0.16209710803E+03 -0.19803645396E+04  0.19942286527E+04  0.15294330000E+03 0.  0.
<mgrwt>
<rscale>  0 0.23474286E+03</rscale>
<asrwt>0</asrwt>
<pdfrwt beam="1">  1        2 0.31138905E+00 0.23474286E+03</pdfrwt>
<pdfrwt beam="2">  1       -2 0.58764833E-01 0.23474286E+03</pdfrwt>
<totfact> 0.20575366E+01</totfact>
</mgrwt>
</event>
<event>
 4    1  0.4880711E-008  0.4928103E+03  0.7818608E-02  0.1015673E+00
         -2   -1    0    0    0  501 -0.00000000000E+00  0.00000000000E+00  0.20738195307E+03  0.20738195309E+03  0.25500000000E-02 0.  1.
          2   -1    0    0  501    0  0.00000000000E+00 -0.00000000000E+00 -0.21948809424E+04  0.21948809424E+04  0.25500000000E-02 0. -1.
    8880022    1    1    2    0    0 -0.44660246863E+03 -0.14147988983E+03 -0.18140853069E+04  0.18798317685E+04  0.15294330000E+03 0.  0.
    8880022    1    1    2    0    0  0.44660246863E+03  0.14147988983E+03 -0.17341368250E+03  0.52243112704E+03  0.15294330000E+03 0.  0.
<mgrwt>
<rscale>  0 0.49281029E+03</rscale>
<asrwt>0</asrwt>
<pdfrwt beam="1">  1        2 0.33767398E+00 0.49281029E+03</pdfrwt>
<pdfrwt beam="2">  1       -2 0.31904917E-01 0.49281029E+03</pdfrwt>
<totfact> 0.51076937E+01</totfact>
</mgrwt>
</event>
<event>
 4    1  0.4880711E-008  0.4277975E+03  0.7818608E-02  0.1034558E+00
         -2   -1    0    0    0  501 -0.00000000000E+00  0.00000000000E+00  0.30931056995E+03  0.30931056996E+03  0.25500000000E-02 0.  1.
          2   -1    0    0  501    0  0.00000000000E+00 -0.00000000000E+00 -0.13058164909E+04  0.13058164909E+04  0.25500000000E-02 0. -1.
    8880022    1    1    2    0    0 -0.63164982741E+02  0.39449873304E+03 -0.10954647316E+04  0.11760330338E+04  0.15294330000E+03 0.  0.
    8880022    1    1    2    0    0  0.63164982741E+02 -0.39449873304E+03  0.98958810619E+02  0.43909402709E+03  0.15294330000E+03 0.  0.
<mgrwt>
<rscale>  0 0.42779752E+03</rscale>
<asrwt>0</asrwt>
<pdfrwt beam="1">  1        2 0.20089484E+00 0.42779752E+03</pdfrwt>
<pdfrwt beam="2">  1       -2 0.47586242E-01 0.42779752E+03</pdfrwt>
<totfact> 0.72607114E+01</totfact>
</mgrwt>
</event>
<event>
 4    1  0.4880711E-008  0.7069442E+03  0.7818608E-02  0.9705430E-01
          2   -1    0    0  501    0  0.00000000000E+00  0.00000000000E+00  0.16694448600E+04  0.16694448600E+04  0.25500000000E-02 0. -1.
         -2   -1    0    0    0  501 -0.00000000000E+00 -0.00000000000E+00 -0.62282098734E+03  0.62282098735E+03  0.25500000000E-02 0.  1.
    8880022    1    1    2    0    0 -0.58446568941E+03  0.36712168523E+03  0.13492781191E+04  0.15232601779E+04  0.15294330000E+03 0.  0.
    8880022    1    1    2    0    0  0.58446568941E+03 -0.36712168523E+03 -0.30265424639E+03  0.76900566951E+03  0.15294330000E+03 0.  0.
<mgrwt>
<rscale>  0 0.70694422E+03</rscale>
<asrwt>0</asrwt>
<pdfrwt beam="1">  1        2 0.25683767E+00 0.70694422E+03</pdfrwt>
<pdfrwt beam="2">  1       -2 0.95818614E-01 0.70694422E+03</pdfrwt>
<totfact> 0.96378788E+00</totfact>
</mgrwt>
</event>
<event>
 4    1  0.4880711E-008  0.3666787E+03  0.7818608E-02  0.1055970E+00
          2   -1    0    0  501    0  0.00000000000E+00  0.00000000000E+00  0.36590501293E+03  0.36590501293E+03  0.25500000000E-02 0. -1.
         -2   -1    0    0    0  501 -0.00000000000E+00 -0.00000000000E+00 -0.69516289384E+03  0.69516289384E+03  0.25500000000E-02 0.  1.
    8880022    1    1    2    0    0 -0.16291395521E+02  0.33286059128E+03  0.19963321328E+03  0.41750048581E+03  0.15294330000E+03 0.  0.
    8880022    1    1    2    0    0  0.16291395521E+02 -0.33286059128E+03 -0.52889109419E+03  0.64356742096E+03  0.15294330000E+03 0.  0.
<mgrwt>
<rscale>  0 0.36667865E+03</rscale>
<asrwt>0</asrwt>
<pdfrwt beam="1">  1        2 0.56293079E-01 0.36667865E+03</pdfrwt>
<pdfrwt beam="2">  1       -2 0.10694814E+00 0.36667865E+03</pdfrwt>
<totfact> 0.64359346E+01</totfact>
</mgrwt>
</event>
<event>
 4    1  0.4880711E-008  0.5676411E+03  0.7818608E-02  0.9974912E-01
         -2   -1    0    0    0  501 -0.00000000000E+00  0.00000000000E+00  0.15940277394E+03  0.15940277396E+03  0.25500000000E-02 0.  1.
          2   -1    0    0  501    0  0.00000000000E+00 -0.00000000000E+00 -0.31239884647E+04  0.31239884647E+04  0.25500000000E-02 0. -1.
    8880022    1    1    2    0    0  0.49385096418E+03  0.23438432010E+03 -0.50697749755E+03  0.76107990406E+03  0.15294330000E+03 0.  0.
    8880022    1    1    2    0    0 -0.49385096418E+03 -0.23438432010E+03 -0.24576081932E+04  0.25223113346E+04  0.15294330000E+03 0.  0.
<mgrwt>
<rscale>  0 0.56764112E+03</rscale>
<asrwt>0</asrwt>
<pdfrwt beam="1">  1        2 0.48061356E+00 0.56764112E+03</pdfrwt>
<pdfrwt beam="2">  1       -2 0.24523506E-01 0.56764112E+03</pdfrwt>
<totfact> 0.23714602E+01</totfact>
</mgrwt>
</event>
<event>
 4    1  0.4880711E-008  0.1190923E+04  0.7818608E-02  0.9120839E-01
          2   -1    0    0  501    0  0.00000000000E+00  0.00000000000E+00  0.18667327712E+04  0.18667327712E+04  0.25500000000E-02 0. -1.
         -2   -1    0    0    0  501 -0.00000000000E+00 -0.00000000000E+00 -0.11778254573E+04  0.11778254573E+04  0.25500000000E-02 0.  1.
    8880022    1    1    2    0    0 -0.11369278282E+04  0.31984591512E+03 -0.56246404231E+03  0.13170663414E+04  0.15294330000E+03 0.  0.
    8880022    1    1    2    0    0  0.11369278282E+04 -0.31984591512E+03  0.12513713562E+04  0.17274918871E+04  0.15294330000E+03 0. -1.
<mgrwt>
<rscale>  0 0.11909231E+04</rscale>
<asrwt>0</asrwt>
<pdfrwt beam="1">  1        2 0.28718966E+00 0.11909231E+04</pdfrwt>
<pdfrwt beam="2">  1       -2 0.18120392E+00 0.11909231E+04</pdfrwt>
<totfact> 0.13700801E+00</totfact>
</mgrwt>
</event>
<event>
 4    1  0.4880711E-008  0.5365885E+03  0.7818608E-02  0.1004647E+00
          2   -1    0    0  501    0  0.00000000000E+00  0.00000000000E+00  0.29434572271E+04  0.29434572271E+04  0.25500000000E-02 0. -1.
         -2   -1    0    0    0  501 -0.00000000000E+00 -0.00000000000E+00 -0.22551525169E+03  0.22551525171E+03  0.25500000000E-02 0.  1.
    8880022    1    1    2    0    0  0.25185694888E+03 -0.44844586633E+03  0.16666183537E+03  0.56187493103E+03  0.15294330000E+03 0.  0.
    8880022    1    1    2    0    0 -0.25185694888E+03  0.44844586633E+03  0.25512801401E+04  0.26070975478E+04  0.15294330000E+03 0.  0.
<mgrwt>
<rscale>  0 0.53658855E+03</rscale>
<asrwt>0</asrwt>
<pdfrwt beam="1">  1        2 0.45283955E+00 0.53658855E+03</pdfrwt>
<pdfrwt beam="2">  1       -2 0.34694656E-01 0.53658855E+03</pdfrwt>
<totfact> 0.16262273E+01</totfact>
</mgrwt>
</event>
<event>
 4    1  0.4880711E-008  0.5301977E+03  0.7818608E-02  0.1006184E+00
          2   -1    0    0  501    0  0.00000000000E+00  0.00000000000E+00  0.88669303105E+03  0.88669303105E+03  0.25500000000E-02 0. -1.
         -2   -1    0    0    0  501 -0.00000000000E+00 -0.00000000000E+00 -0.33919909432E+03  0.33919909433E+03  0.25500000000E-02 0.  1.
    8880022    1    1    2    0    0 -0.96420025289E+02 -0.49841862537E+03  0.43044171452E+03  0.68292728017E+03  0.15294330000E+03 0.  0.
    8880022    1    1    2    0    0  0.96420025289E+02  0.49841862537E+03  0.11705222221E+03  0.54296484521E+03  0.15294330000E+03 0.  0.
<mgrwt>
<rscale>  0 0.53019770E+03</rscale>
<asrwt>0</asrwt>
<pdfrwt beam="1">  1        2 0.13641431E+00 0.53019770E+03</pdfrwt>
<pdfrwt beam="2">  1       -2 0.52184476E-01 0.53019770E+03</pdfrwt>
<totfact> 0.10696033E+02</totfact>
</mgrwt>
</event>
<event>
 4    1  0.5408010E-008  0.5373524E+03  0.7818608E-02  0.1004464E+00
          2   -1    0    0  501    0  0.00000000000E+00  0.00000000000E+00  0.17287200449E+04  0.17287200449E+04  0.25500000000E-02 0. -1.
         -2   -1    0    0    0  501 -0.00000000000E+00 -0.00000000000E+00 -0.64310781899E+03  0.64310781899E+03  0.25500000000E-02 0.  1.
    8880022    1    1    2    0    0  0.18714392117E+03  0.47993032972E+03  0.15631589554E+04  0.16529408766E+04  0.15294330000E+03 0.  0.
    8880022    1    1    2    0    0 -0.18714392117E+03 -0.47993032972E+03 -0.47754672951E+03  0.71888698729E+03  0.15294330000E+03 0.  0.
<mgrwt>
<rscale>  0 0.53735242E+03</rscale>
<asrwt>0</asrwt>
<pdfrwt beam="1">  1        2 0.26595693E+00 0.53735242E+03</pdfrwt>
<pdfrwt beam="2">  1       -2 0.98939665E-01 0.53735242E+03</pdfrwt>
<totfact> 0.85538624E+00</totfact>
</mgrwt>
</event>
<event>
 4    1  0.4880711E-008  0.7263472E+03  0.7818608E-02  0.9673206E-01
          2   -1    0    0  501    0  0.00000000000E+00  0.00000000000E+00  0.20991151753E+04  0.20991151753E+04  0.25500000000E-02 0. -1.
         -2   -1    0    0    0  501 -0.00000000000E+00 -0.00000000000E+00 -0.34000172219E+03  0.34000172220E+03  0.25500000000E-02 0.  1.
    8880022    1    1    2    0    0 -0.51307241515E+03 -0.49086178672E+03  0.15023492558E+04  0.16687221267E+04  0.15294330000E+03 0.  0.
    8880022    1    1    2    0    0  0.51307241515E+03  0.49086178672E+03  0.25676419737E+03  0.77039477082E+03  0.15294330000E+03 0.  0.
<mgrwt>
<rscale>  0 0.72634720E+03</rscale>
<asrwt>0</asrwt>
<pdfrwt beam="1">  1        2 0.32294080E+00 0.72634720E+03</pdfrwt>
<pdfrwt beam="2">  1       -2 0.52307957E-01 0.72634720E+03</pdfrwt>
<totfact> 0.21094303E+01</totfact>
</mgrwt>
</event>
<event>
 4    1  0.4880711E-008  0.5440387E+03  0.7818608E-02  0.1002883E+00
          2   -1    0    0  501    0  0.00000000000E+00  0.00000000000E+00  0.26902828913E+03  0.26902828914E+03  0.25500000000E-02 0. -1.
         -2   -1    0    0    0  501 -0.00000000000E+00 -0.00000000000E+00 -0.19476317343E+04  0.19476317343E+04  0.25500000000E-02 0.  1.
    8880022    1    1    2    0    0 -0.39884372111E+03 -0.33691260467E+03 -0.10820546353E+03  0.55469495437E+03  0.15294330000E+03 0.  0.
    8880022    1    1    2    0    0  0.39884372111E+03  0.33691260467E+03 -0.15703979817E+04  0.16619650691E+04  0.15294330000E+03 0.  0.
<mgrwt>
<rscale>  0 0.54403867E+03</rscale>
<asrwt>0</asrwt>
<pdfrwt beam="1">  1        2 0.41388969E-01 0.54403867E+03</pdfrwt>
<pdfrwt beam="2">  1       -2 0.29963564E+00 0.54403867E+03</pdfrwt>
<totfact> 0.42498211E+00</totfact>
</mgrwt>
</event>
<event>
 4    1  0.4880711E-008  0.6647004E+03  0.7818608E-02  0.9779579E-01
          2   -1    0    0  501    0  0.00000000000E+00  0.00000000000E+00  0.73277103117E+03  0.73277103117E+03  0.25500000000E-02 0. -1.
         -2   -1    0    0    0  501 -0.00000000000E+00 -0.00000000000E+00 -0.13880886942E+04  0.13880886942E+04  0.25500000000E-02 0.  1.
    8880022    1    1    2    0    0  0.52417987930E+03  0.37903883568E+03  0.46986863082E+03  0.81400440297E+03  0.15294330000E+03 0.  0.
    8880022    1    1    2    0    0 -0.52417987930E+03 -0.37903883568E+03 -0.11251862938E+04  0.13068553224E+04  0.15294330000E+03 0.  0.
<mgrwt>
<rscale>  0 0.66470041E+03</rscale>
<asrwt>0</asrwt>
<pdfrwt beam="1">  1        2 0.11273400E+00 0.66470041E+03</pdfrwt>
<pdfrwt beam="2">  1       -2 0.21355211E+00 0.66470041E+03</pdfrwt>
<totfact> 0.43507151E+00</totfact>
</mgrwt>
</event>
<event>
 4    1  0.4880711E-008  0.1401719E+04  0.7818608E-02  0.8952575E-01
          2   -1    0    0  501    0  0.00000000000E+00  0.00000000000E+00  0.23902938963E+04  0.23902938963E+04  0.25500000000E-02 0. -1.
         -2   -1    0    0    0  501 -0.00000000000E+00 -0.00000000000E+00 -0.97109674981E+03  0.97109674982E+03  0.25500000000E-02 0.  1.
    8880022    1    1    2    0    0 -0.13335490570E+04 -0.40382064034E+03  0.13681585333E+04  0.19587428678E+04  0.15294330000E+03 0.  0.
    8880022    1    1    2    0    0  0.13335490570E+04  0.40382064034E+03  0.51038613141E+02  0.14026477783E+04  0.15294330000E+03 0.  0.
<mgrwt>
<rscale>  0 0.14017189E+04</rscale>
<asrwt>0</asrwt>
<pdfrwt beam="1">  1        2 0.36773752E+00 0.14017189E+04</pdfrwt>
<pdfrwt beam="2">  1       -2 0.14939950E+00 0.14017189E+04</pdfrwt>
<totfact> 0.11635941E+00</totfact>
</mgrwt>
</event>
<event>
 4    1  0.4880711E-008  0.4059449E+03  0.7818608E-02  0.1041740E+00
         -2   -1    0    0    0  501 -0.00000000000E+00  0.00000000000E+00  0.31155674884E+03  0.31155674885E+03  0.25500000000E-02 0.  1.
          2   -1    0    0  501    0  0.00000000000E+00 -0.00000000000E+00 -0.25306491947E+04  0.25306491947E+04  0.25500000000E-02 0. -1.
    8880022    1    1    2    0    0 -0.15867193977E+03 -0.34091472087E+03  0.15434966227E+03  0.43429840275E+03  0.15294330000E+03 0.  0.
    8880022    1    1    2    0    0  0.15867193977E+03  0.34091472087E+03 -0.23734421081E+04  0.24079075408E+04  0.15294330000E+03 0.  0.
<mgrwt>
<rscale>  0 0.40594493E+03</rscale>
<asrwt>0</asrwt>
<pdfrwt beam="1">  1        2 0.38933063E+00 0.40594493E+03</pdfrwt>
<pdfrwt beam="2">  1       -2 0.47931809E-01 0.40594493E+03</pdfrwt>
<totfact> 0.15562896E+01</totfact>
</mgrwt>
</event>
<event>
 4    1  0.4880711E-008  0.7827666E+03  0.7818608E-02  0.9585302E-01
         -2   -1    0    0    0  501 -0.00000000000E+00  0.00000000000E+00  0.80548180109E+03  0.80548180109E+03  0.25500000000E-02 0.  1.
          2   -1    0    0  501    0  0.00000000000E+00 -0.00000000000E+00 -0.91825253134E+03  0.91825253134E+03  0.25500000000E-02 0. -1.
    8880022    1    1    2    0    0 -0.70587635574E+03  0.30177877375E+03  0.30062684957E+03  0.83851059241E+03  0.15294330000E+03 0.  0.
    8880022    1    1    2    0    0  0.70587635574E+03 -0.30177877375E+03 -0.41339757982E+03  0.88522374002E+03  0.15294330000E+03 0.  0.
<mgrwt>
<rscale>  0 0.78276657E+03</rscale>
<asrwt>0</asrwt>
<pdfrwt beam="1">  1        2 0.14126962E+00 0.78276657E+03</pdfrwt>
<pdfrwt beam="2">  1       -2 0.12392028E+00 0.78276657E+03</pdfrwt>
<totfact> 0.14142386E+01</totfact>
</mgrwt>
</event>
<event>
 4    1  0.4880711E-008  0.3760995E+03  0.7818608E-02  0.1052385E+00
         -2   -1    0    0    0  501 -0.00000000000E+00  0.00000000000E+00  0.32357332426E+03  0.32357332427E+03  0.25500000000E-02 0.  1.
          2   -1    0    0  501    0  0.00000000000E+00 -0.00000000000E+00 -0.86827156313E+03  0.86827156313E+03  0.25500000000E-02 0. -1.
    8880022    1    1    2    0    0  0.28714294600E+02 -0.34239545534E+03 -0.69226343935E+03  0.78783214013E+03  0.15294330000E+03 0.  0.
    8880022    1    1    2    0    0 -0.28714294600E+02  0.34239545534E+03  0.14756520047E+03  0.40401274727E+03  0.15294330000E+03 0.  0.
<mgrwt>
<rscale>  0 0.37609947E+03</rscale>
<asrwt>0</asrwt>
<pdfrwt beam="1">  1        2 0.13358024E+00 0.37609947E+03</pdfrwt>
<pdfrwt beam="2">  1       -2 0.49780512E-01 0.37609947E+03</pdfrwt>
<totfact> 0.12312765E+02</totfact>
</mgrwt>
</event>
<event>
 4    1  0.4880711E-008  0.2898139E+03  0.7818608E-02  0.1090446E+00
          2   -1    0    0  501    0  0.00000000000E+00  0.00000000000E+00  0.19987230027E+04  0.19987230027E+04  0.25500000000E-02 0. -1.
         -2   -1    0    0    0  501 -0.00000000000E+00 -0.00000000000E+00 -0.10604289668E+03  0.10604289671E+03  0.25500000000E-02 0.  1.
    8880022    1    1    2    0    0 -0.15891076711E+03 -0.18801007361E+03  0.17640343044E+04  0.17876826060E+04  0.15294330000E+03 0. -1.
    8880022    1    1    2    0    0  0.15891076711E+03  0.18801007361E+03  0.12864580165E+03  0.31708329344E+03  0.15294330000E+03 0.  0.
<mgrwt>
<rscale>  0 0.28981386E+03</rscale>
<asrwt>0</asrwt>
<pdfrwt beam="1">  1        2 0.30749583E+00 0.28981386E+03</pdfrwt>
<pdfrwt beam="2">  1       -2 0.16314293E-01 0.28981386E+03</pdfrwt>
<totfact> 0.22148587E+02</totfact>
</mgrwt>
</event>
<event>
 4    1  0.4880711E-008  0.5322660E+03  0.7818608E-02  0.1005684E+00
          2   -1    0    0  501    0  0.00000000000E+00  0.00000000000E+00  0.77984705703E+03  0.77984705704E+03  0.25500000000E-02 0. -1.
         -2   -1    0    0    0  501 -0.00000000000E+00 -0.00000000000E+00 -0.11975902991E+04  0.11975902991E+04  0.25500000000E-02 0.  1.
    8880022    1    1    2    0    0 -0.50951243528E+03  0.17677553775E+02  0.61636975377E+03  0.81438243104E+03  0.15294330000E+03 0.  0.
    8880022    1    1    2    0    0  0.50951243528E+03 -0.17677553775E+02 -0.10341129958E+04  0.11630549251E+04  0.15294330000E+03 0.  1.
<mgrwt>
<rscale>  0 0.53226598E+03</rscale>
<asrwt>0</asrwt>
<pdfrwt beam="1">  1        2 0.11997647E+00 0.53226598E+03</pdfrwt>
<pdfrwt beam="2">  1       -2 0.18424466E+00 0.53226598E+03</pdfrwt>
<totfact> 0.63622418E+00</totfact>
</mgrwt>
</event>
<event>
 4    1  0.4880711E-008  0.4483972E+03  0.7818608E-02  0.1028201E+00
         -2   -1    0    0    0  501 -0.00000000000E+00  0.00000000000E+00  0.23591586434E+03  0.23591586436E+03  0.25500000000E-02 0.  1.
          2   -1    0    0  501    0  0.00000000000E+00 -0.00000000000E+00 -0.15289079725E+04  0.15289079725E+04  0.25500000000E-02 0. -1.
    8880022    1    1    2    0    0  0.41661251417E+02 -0.41944336361E+03 -0.59460682508E+02  0.45232247449E+03  0.15294330000E+03 0.  0.
    8880022    1    1    2    0    0 -0.41661251417E+02  0.41944336361E+03 -0.12335314257E+04  0.13125013624E+04  0.15294330000E+03 0.  0.
<mgrwt>
<rscale>  0 0.44839720E+03</rscale>
<asrwt>0</asrwt>
<pdfrwt beam="1">  1        2 0.23521660E+00 0.44839720E+03</pdfrwt>
<pdfrwt beam="2">  1       -2 0.36294749E-01 0.44839720E+03</pdfrwt>
<totfact> 0.92305122E+01</totfact>
</mgrwt>
</event>
<event>
 4    1  0.4880711E-008  0.1171228E+04  0.7818608E-02  0.9138420E-01
         -2   -1    0    0    0  501 -0.00000000000E+00  0.00000000000E+00  0.13069847000E+04  0.13069847000E+04  0.25500000000E-02 0.  1.
          2   -1    0    0  501    0  0.00000000000E+00 -0.00000000000E+00 -0.21558674896E+04  0.21558674896E+04  0.25500000000E-02 0. -1.
    8880022    1    1    2    0    0  0.82068117628E+03  0.82150248435E+03 -0.16647459615E+04  0.20354740711E+04  0.15294330000E+03 0.  0.
    8880022    1    1    2    0    0 -0.82068117628E+03 -0.82150248435E+03  0.81586317193E+03  0.14273781185E+04  0.15294330000E+03 0.  0.
<mgrwt>
<rscale>  0 0.11712282E+04</rscale>
<asrwt>0</asrwt>
<pdfrwt beam="1">  1        2 0.33167192E+00 0.11712282E+04</pdfrwt>
<pdfrwt beam="2">  1       -2 0.20107457E+00 0.11712282E+04</pdfrwt>
<totfact> 0.69840154E-01</totfact>
</mgrwt>
</event>
<event>
 4    1  0.4880711E-008  0.3064580E+03  0.7818608E-02  0.1082056E+00
         -2   -1    0    0    0  501 -0.00000000000E+00  0.00000000000E+00  0.15223314017E+03  0.15223314020E+03  0.25500000000E-02 0.  1.
          2   -1    0    0  501    0  0.00000000000E+00 -0.00000000000E+00 -0.21260394047E+04  0.21260394047E+04  0.25500000000E-02 0. -1.
    8880022    1    1    2    0    0  0.23397804524E+03 -0.12561495366E+03 -0.27168765209E+02  0.30765993736E+03  0.15294330000E+03 0.  0.
    8880022    1    1    2    0    0 -0.23397804524E+03  0.12561495366E+03 -0.19466374993E+04  0.19706126075E+04  0.15294330000E+03 0.  0.
<mgrwt>
<rscale>  0 0.30645798E+03</rscale>
<asrwt>0</asrwt>
<pdfrwt beam="1">  1        2 0.32708296E+00 0.30645798E+03</pdfrwt>
<pdfrwt beam="2">  1       -2 0.23420485E-01 0.30645798E+03</pdfrwt>
<totfact> 0.10153096E+02</totfact>
</mgrwt>
</event>
<event>
 4    1  0.4880711E-008  0.9129714E+03  0.7818608E-02  0.9409510E-01
         -2   -1    0    0    0  501 -0.00000000000E+00  0.00000000000E+00  0.18233678211E+04  0.18233678211E+04  0.25500000000E-02 0.  1.
          2   -1    0    0  501    0  0.00000000000E+00 -0.00000000000E+00 -0.54818907024E+03  0.54818907025E+03  0.25500000000E-02 0. -1.
    8880022    1    1    2    0    0  0.26732507200E+03  0.85945472056E+03  0.15430901665E+03  0.92592010262E+03  0.15294330000E+03 0.  0.
    8880022    1    1    2    0    0 -0.26732507200E+03 -0.85945472056E+03  0.11208697342E+04  0.14456367887E+04  0.15294330000E+03 0.  0.
<mgrwt>
<rscale>  0 0.91297139E+03</rscale>
<asrwt>0</asrwt>
<pdfrwt beam="1">  1        2 0.84336780E-01 0.91297139E+03</pdfrwt>
<pdfrwt beam="2">  1       -2 0.28051813E+00 0.91297139E+03</pdfrwt>
<totfact> 0.23429676E+00</totfact>
</mgrwt>
</event>
<event>
 4    1  0.4880711E-008  0.8093860E+03  0.7818608E-02  0.9546530E-01
         -2   -1    0    0    0  501 -0.00000000000E+00  0.00000000000E+00  0.66501089595E+03  0.66501089596E+03  0.25500000000E-02 0.  1.
          2   -1    0    0  501    0  0.00000000000E+00 -0.00000000000E+00 -0.24824542337E+04  0.24824542337E+04  0.25500000000E-02 0. -1.
    8880022    1    1    2    0    0  0.82337108004E+02 -0.79052806214E+03 -0.21309485594E+04  0.22794840276E+04  0.15294330000E+03 0.  0.
    8880022    1    1    2    0    0 -0.82337108004E+02  0.79052806214E+03  0.31350522168E+03  0.86798110200E+03  0.15294330000E+03 0.  0.
<mgrwt>
<rscale>  0 0.80938598E+03</rscale>
<asrwt>0</asrwt>
<pdfrwt beam="1">  1        2 0.38191603E+00 0.80938598E+03</pdfrwt>
<pdfrwt beam="2">  1       -2 0.10230937E+00 0.80938598E+03</pdfrwt>
<totfact> 0.28951972E+00</totfact>
</mgrwt>
</event>
<event>
 4    1  0.4880711E-008  0.3366323E+03  0.7818608E-02  0.1068239E+00
         -2   -1    0    0    0  501 -0.00000000000E+00  0.00000000000E+00  0.55811997587E+03  0.55811997587E+03  0.25500000000E-02 0.  1.
          2   -1    0    0  501    0  0.00000000000E+00 -0.00000000000E+00 -0.41326206249E+03  0.41326206250E+03  0.25500000000E-02 0. -1.
    8880022    1    1    2    0    0  0.27985458912E+03  0.10775472710E+03  0.41883483693E+03  0.53734899824E+03  0.15294330000E+03 0.  0.
    8880022    1    1    2    0    0 -0.27985458912E+03 -0.10775472710E+03 -0.27397692356E+03  0.43403304013E+03  0.15294330000E+03 0.  0.
<mgrwt>
<rscale>  0 0.33663233E+03</rscale>
<asrwt>0</asrwt>
<pdfrwt beam="1">  1        2 0.63578779E-01 0.33663233E+03</pdfrwt>
<pdfrwt beam="2">  1       -2 0.85864612E-01 0.33663233E+03</pdfrwt>
<totfact> 0.93929280E+01</totfact>
</mgrwt>
</event>
<event>
 4    1  0.4880711E-008  0.4816076E+03  0.7818608E-02  0.1018694E+00
          2   -1    0    0  501    0  0.00000000000E+00  0.00000000000E+00  0.20301032202E+04  0.20301032202E+04  0.25500000000E-02 0. -1.
         -2   -1    0    0    0  501 -0.00000000000E+00 -0.00000000000E+00 -0.50420609466E+03  0.50420609466E+03  0.25500000000E-02 0.  1.
    8880022    1    1    2    0    0  0.45527595749E+03 -0.35749224612E+02  0.18773242650E+04  0.19381156450E+04  0.15294330000E+03 0.  0.
    8880022    1    1    2    0    0 -0.45527595749E+03  0.35749224612E+02 -0.35142713949E+03  0.59619366980E+03  0.15294330000E+03 0.  0.
<mgrwt>
<rscale>  0 0.48160758E+03</rscale>
<asrwt>0</asrwt>
<pdfrwt beam="1">  1        2 0.31232357E+00 0.48160758E+03</pdfrwt>
<pdfrwt beam="2">  1       -2 0.77570169E-01 0.48160758E+03</pdfrwt>
<totfact> 0.10386014E+01</totfact>
</mgrwt>
</event>
<event>
 4    1  0.4880711E-008  0.5290894E+03  0.7818608E-02  0.1006453E+00
         -2   -1    0    0    0  501 -0.00000000000E+00  0.00000000000E+00  0.63799851639E+03  0.63799851639E+03  0.25500000000E-02 0.  1.
          2   -1    0    0  501    0  0.00000000000E+00 -0.00000000000E+00 -0.27062881953E+04  0.27062881953E+04  0.25500000000E-02 0. -1.
    8880022    1    1    2    0    0  0.46023766541E+03 -0.21148347834E+03 -0.25647448925E+04  0.26187500810E+04  0.15294330000E+03 0.  0.
    8880022    1    1    2    0    0 -0.46023766541E+03  0.21148347834E+03  0.49645521361E+03  0.72553663065E+03  0.15294330000E+03 0.  0.
<mgrwt>
<rscale>  0 0.52908943E+03</rscale>
<asrwt>0</asrwt>
<pdfrwt beam="1">  1        2 0.41635203E+00 0.52908943E+03</pdfrwt>
<pdfrwt beam="2">  1       -2 0.98153619E-01 0.52908943E+03</pdfrwt>
<totfact> 0.25327595E+00</totfact>
</mgrwt>
</event>
<event>
 4    1  0.4880711E-008  0.3287402E+03  0.7818608E-02  0.1071696E+00
         -2   -1    0    0    0  501 -0.00000000000E+00  0.00000000000E+00  0.78739674642E+02  0.78739674683E+02  0.25500000000E-02 0.  1.
          2   -1    0    0  501    0  0.00000000000E+00 -0.00000000000E+00 -0.38164793864E+04  0.38164793864E+04  0.25500000000E-02 0. -1.
    8880022    1    1    2    0    0  0.21011453705E+03 -0.20132151337E+03 -0.34274146547E+04  0.34431441066E+04  0.15294330000E+03 0.  0.
    8880022    1    1    2    0    0 -0.21011453705E+03  0.20132151337E+03 -0.31032505703E+03  0.45207495447E+03  0.15294330000E+03 0.  0.
<mgrwt>
<rscale>  0 0.32874021E+03</rscale>
<asrwt>0</asrwt>
<pdfrwt beam="1">  1        2 0.58715053E+00 0.32874021E+03</pdfrwt>
<pdfrwt beam="2">  1       -2 0.12113799E-01 0.32874021E+03</pdfrwt>
<totfact> 0.29152633E+01</totfact>
</mgrwt>
</event>
<event>
 4    1  0.4880711E-008  0.2298813E+03  0.7818608E-02  0.1126723E+00
          2   -1    0    0  501    0  0.00000000000E+00  0.00000000000E+00  0.10048949589E+04  0.10048949589E+04  0.25500000000E-02 0. -1.
         -2   -1    0    0    0  501 -0.00000000000E+00 -0.00000000000E+00 -0.94573738783E+02  0.94573738818E+02  0.25500000000E-02 0.  1.
    8880022    1    1    2    0    0 -0.16903818412E+03 -0.29662039136E+02  0.88876067796E+02  0.24646369449E+03  0.15294330000E+03 0.  0.
    8880022    1    1    2    0    0  0.16903818412E+03  0.29662039136E+02  0.82144515231E+03  0.85300500322E+03  0.15294330000E+03 0. -1.
<mgrwt>
<rscale>  0 0.22988127E+03</rscale>
<asrwt>0</asrwt>
<pdfrwt beam="1">  1        2 0.15459923E+00 0.22988127E+03</pdfrwt>
<pdfrwt beam="2">  1       -2 0.14549805E-01 0.22988127E+03</pdfrwt>
<totfact> 0.94256731E+02</totfact>
</mgrwt>
</event>
<event>
 4    1  0.4880711E-008  0.1336043E+04  0.7818608E-02  0.9001461E-01
          2   -1    0    0  501    0  0.00000000000E+00  0.00000000000E+00  0.19483577761E+04  0.19483577761E+04  0.25500000000E-02 0. -1.
         -2   -1    0    0    0  501 -0.00000000000E+00 -0.00000000000E+00 -0.97886628240E+03  0.97886628241E+03  0.25500000000E-02 0.  1.
    8880022    1    1    2    0    0  0.59707808017E+03  0.11853759858E+04  0.85518337501E+03  0.15863003245E+04  0.15294330000E+03 0.  0.
    8880022    1    1    2    0    0 -0.59707808017E+03 -0.11853759858E+04  0.11430811871E+03  0.13409237341E+04  0.15294330000E+03 0.  0.
<mgrwt>
<rscale>  0 0.13360427E+04</rscale>
<asrwt>0</asrwt>
<pdfrwt beam="1">  1        2 0.29974735E+00 0.13360427E+04</pdfrwt>
<pdfrwt beam="2">  1       -2 0.15059481E+00 0.13360427E+04</pdfrwt>
<totfact> 0.20300556E+00</totfact>
</mgrwt>
</event>
<event>
 4    1  0.4880711E-008  0.5800409E+03  0.7818608E-02  0.9947702E-01
          2   -1    0    0  501    0  0.00000000000E+00  0.00000000000E+00  0.25939296025E+04  0.25939296025E+04  0.25500000000E-02 0. -1.
         -2   -1    0    0    0  501 -0.00000000000E+00 -0.00000000000E+00 -0.17060388888E+03  0.17060388890E+03  0.25500000000E-02 0.  1.
    8880022    1    1    2    0    0 -0.14812522055E+03  0.53955052085E+03  0.18884457076E+04  0.19755188405E+04  0.15294330000E+03 0.  0.
    8880022    1    1    2    0    0  0.14812522055E+03 -0.53955052085E+03  0.53488000599E+03  0.78901465090E+03  0.15294330000E+03 0.  0.
<mgrwt>
<rscale>  0 0.58004095E+03</rscale>
<asrwt>0</asrwt>
<pdfrwt beam="1">  1        2 0.39906607E+00 0.58004095E+03</pdfrwt>
<pdfrwt beam="2">  1       -2 0.26246754E-01 0.58004095E+03</pdfrwt>
<totfact> 0.43175300E+01</totfact>
</mgrwt>
</event>
<event>
 4    1  0.4880711E-008  0.6837917E+03  0.7818608E-02  0.9745359E-01
         -2   -1    0    0    0  501 -0.00000000000E+00  0.00000000000E+00  0.19785049734E+03  0.19785049736E+03  0.25500000000E-02 0.  1.
          2   -1    0    0  501    0  0.00000000000E+00 -0.00000000000E+00 -0.32673534242E+04  0.32673534242E+04  0.25500000000E-02 0. -1.
    8880022    1    1    2    0    0  0.59566286322E+03  0.29894002767E+03 -0.62335200233E+03  0.92527766567E+03  0.15294330000E+03 0.  0.
    8880022    1    1    2    0    0 -0.59566286322E+03 -0.29894002767E+03 -0.24461509245E+04  0.25399262558E+04  0.15294330000E+03 0.  0.
<mgrwt>
<rscale>  0 0.68379166E+03</rscale>
<asrwt>0</asrwt>
<pdfrwt beam="1">  1        2 0.50266972E+00 0.68379166E+03</pdfrwt>
<pdfrwt beam="2">  1       -2 0.30438541E-01 0.68379166E+03</pdfrwt>
<totfact> 0.12664312E+01</totfact>
</mgrwt>
</event>
<event>
 4    1  0.4880711E-008  0.1364105E+04  0.7818608E-02  0.8980219E-01
         -2   -1    0    0    0  501 -0.00000000000E+00  0.00000000000E+00  0.13178380728E+04  0.13178380728E+04  0.25500000000E-02 0.  1.
          2   -1    0    0  501    0  0.00000000000E+00 -0.00000000000E+00 -0.14812542123E+04  0.14812542123E+04  0.25500000000E-02 0. -1.
    8880022    1    1    2    0    0 -0.13492372205E+04 -0.13019455398E+03  0.22091710416E+03  0.13818783300E+04  0.15294330000E+03 0.  0.
    8880022    1    1    2    0    0  0.13492372205E+04  0.13019455398E+03 -0.38433324364E+03  0.14172139550E+04  0.15294330000E+03 0.  0.
<mgrwt>
<rscale>  0 0.13641053E+04</rscale>
<asrwt>0</asrwt>
<pdfrwt beam="1">  1        2 0.22788526E+00 0.13641053E+04</pdfrwt>
<pdfrwt beam="2">  1       -2 0.20274432E+00 0.13641053E+04</pdfrwt>
<totfact> 0.15835569E+00</totfact>
</mgrwt>
</event>
<event>
 4    1  0.4880711E-008  0.2842167E+03  0.7818608E-02  0.1093408E+00
         -2   -1    0    0    0  501 -0.00000000000E+00  0.00000000000E+00  0.87950972779E+02  0.87950972816E+02  0.25500000000E-02 0.  1.
          2   -1    0    0  501    0  0.00000000000E+00 -0.00000000000E+00 -0.16233048184E+04  0.16233048184E+04  0.25500000000E-02 0. -1.
    8880022    1    1    2    0    0  0.23756852522E+03  0.30800527643E+02 -0.20386692120E+03  0.34977257076E+03  0.15294330000E+03 0.  1.
    8880022    1    1    2    0    0 -0.23756852522E+03 -0.30800527643E+02 -0.13314869245E+04  0.13614832205E+04  0.15294330000E+03 0.  0.
<mgrwt>
<rscale>  0 0.28421669E+03</rscale>
<asrwt>0</asrwt>
<pdfrwt beam="1">  1        2 0.24973918E+00 0.28421669E+03</pdfrwt>
<pdfrwt beam="2">  1       -2 0.13530920E-01 0.28421669E+03</pdfrwt>
<totfact> 0.47720117E+02</totfact>
</mgrwt>
</event>
<event>
 4    1  0.4880711E-008  0.7755364E+03  0.7818608E-02  0.9596118E-01
          2   -1    0    0  501    0  0.00000000000E+00  0.00000000000E+00  0.13316757425E+04  0.13316757425E+04  0.25500000000E-02 0. -1.
         -2   -1    0    0    0  501 -0.00000000000E+00 -0.00000000000E+00 -0.13443554846E+04  0.13443554846E+04  0.25500000000E-02 0.  1.
    8880022    1    1    2    0    0  0.72145970720E+03  0.23991855097E+03  0.10839883388E+04  0.13328493508E+04  0.15294330000E+03 0.  0.
    8880022    1    1    2    0    0 -0.72145970720E+03 -0.23991855097E+03 -0.10966680809E+04  0.13431818763E+04  0.15294330000E+03 0.  0.
<mgrwt>
<rscale>  0 0.77553638E+03</rscale>
<asrwt>0</asrwt>
<pdfrwt beam="1">  1        2 0.20487319E+00 0.77553638E+03</pdfrwt>
<pdfrwt beam="2">  1       -2 0.20682392E+00 0.77553638E+03</pdfrwt>
<totfact> 0.19514001E+00</totfact>
</mgrwt>
</event>
<event>
 4    1  0.4880711E-008  0.1760184E+03  0.7818608E-02  0.1171713E+00
         -2   -1    0    0    0  501 -0.00000000000E+00  0.00000000000E+00  0.81241577486E+02  0.81241577526E+02  0.25500000000E-02 0.  1.
          2   -1    0    0  501    0  0.00000000000E+00 -0.00000000000E+00 -0.64262188003E+03  0.64262188003E+03  0.25500000000E-02 0. -1.
    8880022    1    1    2    0    0 -0.78231247077E+02 -0.38349518267E+02 -0.51146320655E+03  0.54090394549E+03  0.15294330000E+03 0. -1.
    8880022    1    1    2    0    0  0.78231247077E+02  0.38349518267E+02 -0.49917095988E+02  0.18295951207E+03  0.15294330000E+03 0.  0.
<mgrwt>
<rscale>  0 0.17601837E+03</rscale>
<asrwt>0</asrwt>
<pdfrwt beam="1">  1        2 0.98864901E-01 0.17601837E+03</pdfrwt>
<pdfrwt beam="2">  1       -2 0.12498705E-01 0.17601837E+03</pdfrwt>
<totfact> 0.21306861E+03</totfact>
</mgrwt>
</event>
<event>
 4    1  0.4880711E-008  0.6847813E+03  0.7818608E-02  0.9743618E-01
         -2   -1    0    0    0  501 -0.00000000000E+00  0.00000000000E+00  0.56317317969E+03  0.56317317970E+03  0.25500000000E-02 0.  1.
          2   -1    0    0  501    0  0.00000000000E+00 -0.00000000000E+00 -0.24862561505E+04  0.24862561505E+04  0.25500000000E-02 0. -1.
    8880022    1    1    2    0    0 -0.63879678474E+03  0.19357806047E+03 -0.22050015570E+04  0.23088865969E+04  0.15294330000E+03 0.  0.
    8880022    1    1    2    0    0  0.63879678474E+03 -0.19357806047E+03  0.28191858619E+03  0.74054273336E+03  0.15294330000E+03 0.  0.
<mgrwt>
<rscale>  0 0.68478132E+03</rscale>
<asrwt>0</asrwt>
<pdfrwt beam="1">  1        2 0.38250094E+00 0.68478132E+03</pdfrwt>
<pdfrwt beam="2">  1       -2 0.86642029E-01 0.68478132E+03</pdfrwt>
<totfact> 0.43460657E+00</totfact>
</mgrwt>
</event>
<event>
 4    1  0.4880711E-008  0.5086602E+03  0.7818608E-02  0.1011543E+00
          2   -1    0    0  501    0  0.00000000000E+00  0.00000000000E+00  0.32416372439E+04  0.32416372439E+04  0.25500000000E-02 0. -1.
         -2   -1    0    0    0  501 -0.00000000000E+00 -0.00000000000E+00 -0.33499005144E+03  0.33499005145E+03  0.25500000000E-02 0.  1.
    8880022    1    1    2    0    0 -0.44111230991E+03 -0.20189970281E+03  0.30141183920E+04  0.30567376227E+04  0.15294330000E+03 0.  0.
    8880022    1    1    2    0    0  0.44111230991E+03  0.20189970281E+03 -0.10747119958E+03  0.51988967263E+03  0.15294330000E+03 0.  0.
<mgrwt>
<rscale>  0 0.50866021E+03</rscale>
<asrwt>0</asrwt>
<pdfrwt beam="1">  1        2 0.49871343E+00 0.50866021E+03</pdfrwt>
<pdfrwt beam="2">  1       -2 0.51536931E-01 0.50866021E+03</pdfrwt>
<totfact> 0.49389833E+00</totfact>
</mgrwt>
</event>
<event>
 4    1  0.4880711E-008  0.7660871E+03  0.7818608E-02  0.9610445E-01
         -2   -1    0    0    0  501 -0.00000000000E+00  0.00000000000E+00  0.52865598720E+03  0.52865598721E+03  0.25500000000E-02 0.  1.
          2   -1    0    0  501    0  0.00000000000E+00 -0.00000000000E+00 -0.22465005666E+04  0.22465005666E+04  0.25500000000E-02 0. -1.
    8880022    1    1    2    0    0  0.75007152345E+03  0.29841584901E+02 -0.18457916431E+04  0.19984584692E+04  0.15294330000E+03 0.  0.
    8880022    1    1    2    0    0 -0.75007152345E+03 -0.29841584901E+02  0.12794706370E+03  0.77669808459E+03  0.15294330000E+03 0.  0.
<mgrwt>
<rscale>  0 0.76608711E+03</rscale>
<asrwt>0</asrwt>
<pdfrwt beam="1">  1        2 0.34561547E+00 0.76608711E+03</pdfrwt>
<pdfrwt beam="2">  1       -2 0.81331691E-01 0.76608711E+03</pdfrwt>
<totfact> 0.67294900E+00</totfact>
</mgrwt>
</event>
<event>
 4    1  0.4880711E-008  0.6489139E+03  0.7818608E-02  0.9808819E-01
         -2   -1    0    0    0  501 -0.00000000000E+00  0.00000000000E+00  0.11259218052E+04  0.11259218053E+04  0.25500000000E-02 0.  1.
          2   -1    0    0  501    0  0.00000000000E+00 -0.00000000000E+00 -0.14472573865E+04  0.14472573865E+04  0.25500000000E-02 0. -1.
    8880022    1    1    2    0    0  0.23194084333E+03  0.58643078408E+03 -0.12686175717E+04  0.14249490572E+04  0.15294330000E+03 0.  0.
    8880022    1    1    2    0    0 -0.23194084333E+03 -0.58643078408E+03  0.94728199049E+03  0.11482301345E+04  0.15294330000E+03 0.  0.
<mgrwt>
<rscale>  0 0.64891392E+03</rscale>
<asrwt>0</asrwt>
<pdfrwt beam="1">  1        2 0.22265498E+00 0.64891392E+03</pdfrwt>
<pdfrwt beam="2">  1       -2 0.17321874E+00 0.64891392E+03</pdfrwt>
<totfact> 0.28773607E+00</totfact>
</mgrwt>
</event>
<event>
 4    1  0.6466400E-008  0.9580250E+03  0.7818608E-02  0.9355820E-01
          2   -1    0    0  501    0  0.00000000000E+00  0.00000000000E+00  0.14187567280E+04  0.14187567280E+04  0.25500000000E-02 0. -1.
         -2   -1    0    0    0  501 -0.00000000000E+00 -0.00000000000E+00 -0.17772023975E+04  0.17772023975E+04  0.25500000000E-02 0.  1.
    8880022    1    1    2    0    0  0.11400763000E+03  0.93884099453E+03  0.10951533644E+04  0.14550507542E+04  0.15294330000E+03 0.  0.
    8880022    1    1    2    0    0 -0.11400763000E+03 -0.93884099453E+03 -0.14535990340E+04  0.17409083713E+04  0.15294330000E+03 0.  0.
<mgrwt>
<rscale>  0 0.95802495E+03</rscale>
<asrwt>0</asrwt>
<pdfrwt beam="1">  1        2 0.21827027E+00 0.95802495E+03</pdfrwt>
<pdfrwt beam="2">  1       -2 0.27341575E+00 0.95802495E+03</pdfrwt>
<totfact> 0.65703437E-01</totfact>
</mgrwt>
</event>
<event>
 4    1  0.4880711E-008  0.1609869E+03  0.7818608E-02  0.1187587E+00
         -2   -1    0    0    0  501 -0.00000000000E+00  0.00000000000E+00  0.92208990434E+02  0.92208990469E+02  0.25500000000E-02 0.  1.
          2   -1    0    0  501    0  0.00000000000E+00 -0.00000000000E+00 -0.11519483951E+04  0.11519483951E+04  0.25500000000E-02 0. -1.
    8880022    1    1    2    0    0 -0.45845506874E+02 -0.20574738272E+02  0.11019918339E+02  0.16136363274E+03  0.15294330000E+03 0.  1.
    8880022    1    1    2    0    0  0.45845506874E+02  0.20574738272E+02 -0.10707593230E+04  0.10827937528E+04  0.15294330000E+03 0.  0.
<mgrwt>
<rscale>  0 0.16098690E+03</rscale>
<asrwt>0</asrwt>
<pdfrwt beam="1">  1        2 0.17722282E+00 0.16098690E+03</pdfrwt>
<pdfrwt beam="2">  1       -2 0.14185999E-01 0.16098690E+03</pdfrwt>
<totfact> 0.80878569E+02</totfact>
</mgrwt>
</event>
<event>
 4    1  0.4880711E-008  0.6295037E+03  0.7818608E-02  0.9846018E-01
          2   -1    0    0  501    0  0.00000000000E+00  0.00000000000E+00  0.24667667321E+04  0.24667667321E+04  0.25500000000E-02 0. -1.
         -2   -1    0    0    0  501 -0.00000000000E+00 -0.00000000000E+00 -0.20359714619E+03  0.20359714621E+03  0.25500000000E-02 0.  1.
    8880022    1    1    2    0    0 -0.60656322284E+03 -0.70458082402E+02  0.17448447233E+04  0.18549280434E+04  0.15294330000E+03 0.  0.
    8880022    1    1    2    0    0  0.60656322284E+03  0.70458082402E+02  0.51832486259E+03  0.81543583492E+03  0.15294330000E+03 0.  0.
<mgrwt>
<rscale>  0 0.62950372E+03</rscale>
<asrwt>0</asrwt>
<pdfrwt beam="1">  1        2 0.37950258E+00 0.62950372E+03</pdfrwt>
<pdfrwt beam="2">  1       -2 0.31322638E-01 0.62950372E+03</pdfrwt>
<totfact> 0.36507236E+01</totfact>
</mgrwt>
</event>
<event>
 4    1  0.4880711E-008  0.3938843E+03  0.7818608E-02  0.1045918E+00
          2   -1    0    0  501    0  0.00000000000E+00  0.00000000000E+00  0.95335004117E+03  0.95335004118E+03  0.25500000000E-02 0. -1.
         -2   -1    0    0    0  501 -0.00000000000E+00 -0.00000000000E+00 -0.41199093070E+03  0.41199093071E+03  0.25500000000E-02 0.  1.
    8880022    1    1    2    0    0 -0.28125013981E+03 -0.22945922447E+03 -0.26031340131E+03  0.47213122832E+03  0.15294330000E+03 0.  0.
    8880022    1    1    2    0    0  0.28125013981E+03  0.22945922447E+03  0.80167251178E+03  0.89320974357E+03  0.15294330000E+03 0. -1.
<mgrwt>
<rscale>  0 0.39388428E+03</rscale>
<asrwt>0</asrwt>
<pdfrwt beam="1">  1        2 0.14666924E+00 0.39388428E+03</pdfrwt>
<pdfrwt beam="2">  1       -2 0.63383220E-01 0.39388428E+03</pdfrwt>
<totfact> 0.65650986E+01</totfact>
</mgrwt>
</event>
<event>
 4    1  0.4880711E-008  0.5500738E+03  0.7818608E-02  0.1001477E+00
          2   -1    0    0  501    0  0.00000000000E+00  0.00000000000E+00  0.19721905160E+04  0.19721905160E+04  0.25500000000E-02 0. -1.
         -2   -1    0    0    0  501 -0.00000000000E+00 -0.00000000000E+00 -0.26283338607E+03  0.26283338608E+03  0.25500000000E-02 0.  1.
    8880022    1    1    2    0    0 -0.47724433402E+02 -0.52622415902E+03  0.15756854649E+04  0.16689415281E+04  0.15294330000E+03 0.  1.
    8880022    1    1    2    0    0  0.47724433402E+02  0.52622415902E+03  0.13367166509E+03  0.56608237399E+03  0.15294330000E+03 0.  0.
<mgrwt>
<rscale>  0 0.55007376E+03</rscale>
<asrwt>0</asrwt>
<pdfrwt beam="1">  1        2 0.30341394E+00 0.55007376E+03</pdfrwt>
<pdfrwt beam="2">  1       -2 0.40435904E-01 0.55007376E+03</pdfrwt>
<totfact> 0.42510949E+01</totfact>
</mgrwt>
</event>
<event>
 4    1  0.4880711E-008  0.3888721E+03  0.7818608E-02  0.1047702E+00
         -2   -1    0    0    0  501 -0.00000000000E+00  0.00000000000E+00  0.13852184951E+04  0.13852184951E+04  0.25500000000E-02 0.  1.
          2   -1    0    0  501    0  0.00000000000E+00 -0.00000000000E+00 -0.27816348129E+03  0.27816348130E+03  0.25500000000E-02 0. -1.
    8880022    1    1    2    0    0 -0.33728528713E+03 -0.11861071957E+03  0.12017879122E+04  0.12631372478E+04  0.15294330000E+03 0.  0.
    8880022    1    1    2    0    0  0.33728528713E+03  0.11861071957E+03 -0.94732898443E+02  0.40024472861E+03  0.15294330000E+03 0.  0.
<mgrwt>
<rscale>  0 0.38887211E+03</rscale>
<asrwt>0</asrwt>
<pdfrwt beam="1">  1        2 0.42794382E-01 0.38887211E+03</pdfrwt>
<pdfrwt beam="2">  1       -2 0.21311054E+00 0.38887211E+03</pdfrwt>
<totfact> 0.13941843E+01</totfact>
</mgrwt>
</event>
<event>
 4    1  0.4880711E-008  0.2791513E+03  0.7818608E-02  0.1096153E+00
         -2   -1    0    0    0  501 -0.00000000000E+00  0.00000000000E+00  0.19910624935E+03  0.19910624937E+03  0.25500000000E-02 0.  1.
          2   -1    0    0  501    0  0.00000000000E+00 -0.00000000000E+00 -0.63996983876E+03  0.63996983876E+03  0.25500000000E-02 0. -1.
    8880022    1    1    2    0    0 -0.15170437957E+03  0.17753752082E+03 -0.48191067699E+03  0.55692310393E+03  0.15294330000E+03 0.  0.
    8880022    1    1    2    0    0  0.15170437957E+03 -0.17753752082E+03  0.41047087582E+02  0.28215298420E+03  0.15294330000E+03 0.  0.
<mgrwt>
<rscale>  0 0.27915129E+03</rscale>
<asrwt>0</asrwt>
<pdfrwt beam="1">  1        2 0.98456898E-01 0.27915129E+03</pdfrwt>
<pdfrwt beam="2">  1       -2 0.30631731E-01 0.27915129E+03</pdfrwt>
<totfact> 0.46266009E+02</totfact>
</mgrwt>
</event>
<event>
 4    1  0.4880711E-008  0.8492062E+03  0.7818608E-02  0.9491403E-01
         -2   -1    0    0    0  501 -0.00000000000E+00  0.00000000000E+00  0.10785133698E+04  0.10785133698E+04  0.25500000000E-02 0.  1.
          2   -1    0    0  501    0  0.00000000000E+00 -0.00000000000E+00 -0.11202861748E+04  0.11202861748E+04  0.25500000000E-02 0. -1.
    8880022    1    1    2    0    0 -0.79456359012E+03  0.25773663875E+03 -0.71893250257E+03  0.11126612557E+04  0.15294330000E+03 0.  0.
    8880022    1    1    2    0    0  0.79456359012E+03 -0.25773663875E+03  0.67715969758E+03  0.10861382890E+04  0.15294330000E+03 0.  0.
<mgrwt>
<rscale>  0 0.84920617E+03</rscale>
<asrwt>0</asrwt>
<pdfrwt beam="1">  1        2 0.17235172E+00 0.84920617E+03</pdfrwt>
<pdfrwt beam="2">  1       -2 0.16592513E+00 0.84920617E+03</pdfrwt>
<totfact> 0.48654031E+00</totfact>
</mgrwt>
</event>
<event>
 4    1  0.4880711E-008  0.7154607E+03  0.7818608E-02  0.9691152E-01
         -2   -1    0    0    0  501 -0.00000000000E+00  0.00000000000E+00  0.94930562810E+03  0.94930562810E+03  0.25500000000E-02 0.  1.
          2   -1    0    0  501    0  0.00000000000E+00 -0.00000000000E+00 -0.62620586680E+03  0.62620586680E+03  0.25500000000E-02 0. -1.
    8880022    1    1    2    0    0 -0.69852686658E+03 -0.23508358943E+02 -0.13205189712E+03  0.72754503835E+03  0.15294330000E+03 0.  0.
    8880022    1    1    2    0    0  0.69852686658E+03  0.23508358943E+02  0.45515165843E+03  0.84796645656E+03  0.15294330000E+03 0.  0.
<mgrwt>
<rscale>  0 0.71546075E+03</rscale>
<asrwt>0</asrwt>
<pdfrwt beam="1">  1        2 0.96339365E-01 0.71546075E+03</pdfrwt>
<pdfrwt beam="2">  1       -2 0.14604702E+00 0.71546075E+03</pdfrwt>
<totfact> 0.15407427E+01</totfact>
</mgrwt>
</event>
<event>
 4    1  0.4880711E-008  0.2600770E+03  0.7818608E-02  0.1107097E+00
         -2   -1    0    0    0  501 -0.00000000000E+00  0.00000000000E+00  0.13815308126E+03  0.13815308128E+03  0.25500000000E-02 0.  1.
          2   -1    0    0  501    0  0.00000000000E+00 -0.00000000000E+00 -0.13230937249E+04  0.13230937249E+04  0.25500000000E-02 0. -1.
    8880022    1    1    2    0    0  0.69063952866E+02  0.19869208631E+03 -0.11723647223E+04  0.12008659667E+04  0.15294330000E+03 0.  0.
    8880022    1    1    2    0    0 -0.69063952866E+02 -0.19869208631E+03 -0.12575921271E+02  0.26038083946E+03  0.15294330000E+03 0.  0.
<mgrwt>
<rscale>  0 0.26007697E+03</rscale>
<asrwt>0</asrwt>
<pdfrwt beam="1">  1        2 0.20355287E+00 0.26007697E+03</pdfrwt>
<pdfrwt beam="2">  1       -2 0.21254321E-01 0.26007697E+03</pdfrwt>
<totfact> 0.32505609E+02</totfact>
</mgrwt>
</event>
<event>
 4    1  0.6043746E-008  0.7544248E+03  0.7818608E-02  0.9628434E-01
          2   -1    0    0  501    0  0.00000000000E+00  0.00000000000E+00  0.23738632569E+04  0.23738632569E+04  0.25500000000E-02 0. -1.
         -2   -1    0    0    0  501 -0.00000000000E+00 -0.00000000000E+00 -0.61545597246E+03  0.61545597246E+03  0.25500000000E-02 0.  1.
    8880022    1    1    2    0    0 -0.47421767663E+03  0.56646509459E+03  0.20469868968E+04  0.21815847719E+04  0.15294330000E+03 0.  0.
    8880022    1    1    2    0    0  0.47421767663E+03 -0.56646509459E+03 -0.28857961231E+03  0.80773445753E+03  0.15294330000E+03 0.  0.
<mgrwt>
<rscale>  0 0.75442479E+03</rscale>
<asrwt>0</asrwt>
<pdfrwt beam="1">  1        2 0.36520973E+00 0.75442479E+03</pdfrwt>
<pdfrwt beam="2">  1       -2 0.94685535E-01 0.75442479E+03</pdfrwt>
<totfact> 0.40407633E+00</totfact>
</mgrwt>
</event>
<event>
 4    1  0.4880711E-008  0.6526736E+03  0.7818608E-02  0.9801775E-01
         -2   -1    0    0    0  501 -0.00000000000E+00  0.00000000000E+00  0.85000445216E+03  0.85000445216E+03  0.25500000000E-02 0.  1.
          2   -1    0    0  501    0  0.00000000000E+00 -0.00000000000E+00 -0.79937658605E+03  0.79937658606E+03  0.25500000000E-02 0. -1.
    8880022    1    1    2    0    0  0.81536289467E+02 -0.62923998321E+03  0.52903006566E+03  0.84015212096E+03  0.15294330000E+03 0.  0.
    8880022    1    1    2    0    0 -0.81536289467E+02  0.62923998321E+03 -0.47840219956E+03  0.80922891726E+03  0.15294330000E+03 0.  0.
<mgrwt>
<rscale>  0 0.65267356E+03</rscale>
<asrwt>0</asrwt>
<pdfrwt beam="1">  1        2 0.12298101E+00 0.65267356E+03</pdfrwt>
<pdfrwt beam="2">  1       -2 0.13076992E+00 0.65267356E+03</pdfrwt>
<totfact> 0.15138301E+01</totfact>
</mgrwt>
</event>
<event>
 4    1  0.4880711E-008  0.4333333E+03  0.7818608E-02  0.1032812E+00
         -2   -1    0    0    0  501 -0.00000000000E+00  0.00000000000E+00  0.11585187890E+03  0.11585187892E+03  0.25500000000E-02 0.  1.
          2   -1    0    0  501    0  0.00000000000E+00 -0.00000000000E+00 -0.20509281342E+04  0.20509281342E+04  0.25500000000E-02 0. -1.
    8880022    1    1    2    0    0  0.29036338157E+03 -0.28297566412E+03 -0.14636578963E+04  0.15264574053E+04  0.15294330000E+03 0.  0.
    8880022    1    1    2    0    0 -0.29036338157E+03  0.28297566412E+03 -0.47141835897E+03  0.64032260778E+03  0.15294330000E+03 0.  0.
<mgrwt>
<rscale>  0 0.43333333E+03</rscale>
<asrwt>0</asrwt>
<pdfrwt beam="1">  1        2 0.31552738E+00 0.43333333E+03</pdfrwt>
<pdfrwt beam="2">  1       -2 0.17823368E-01 0.43333333E+03</pdfrwt>
<totfact> 0.17405401E+02</totfact>
</mgrwt>
</event>
<event>
 4    1  0.4880711E-008  0.9722272E+03  0.7818608E-02  0.9339541E-01
          2   -1    0    0  501    0  0.00000000000E+00  0.00000000000E+00  0.19151980163E+04  0.19151980163E+04  0.25500000000E-02 0. -1.
         -2   -1    0    0    0  501 -0.00000000000E+00 -0.00000000000E+00 -0.16172193551E+04  0.16172193551E+04  0.25500000000E-02 0.  1.
    8880022    1    1    2    0    0  0.62839304228E+03 -0.72591755711E+03  0.16212301638E+04  0.18904002254E+04  0.15294330000E+03 0.  0.
    8880022    1    1    2    0    0 -0.62839304228E+03  0.72591755711E+03 -0.13232515026E+04  0.16420171459E+04  0.15294330000E+03 0.  0.
<mgrwt>
<rscale>  0 0.97222722E+03</rscale>
<asrwt>0</asrwt>
<pdfrwt beam="1">  1        2 0.29464585E+00 0.97222722E+03</pdfrwt>
<pdfrwt beam="2">  1       -2 0.24880298E+00 0.97222722E+03</pdfrwt>
<totfact> 0.49007086E-01</totfact>
</mgrwt>
</event>
<event>
 4    1  0.4880711E-008  0.9252224E+03  0.7818608E-02  0.9394590E-01
         -2   -1    0    0    0  501 -0.00000000000E+00  0.00000000000E+00  0.43273102270E+03  0.43273102271E+03  0.25500000000E-02 0.  1.
          2   -1    0    0  501    0  0.00000000000E+00 -0.00000000000E+00 -0.25816957117E+04  0.25816957117E+04  0.25500000000E-02 0. -1.
    8880022    1    1    2    0    0  0.20570359361E+03 -0.88900558400E+03 -0.18031888031E+04  0.20267033353E+04  0.15294330000E+03 0.  0.
    8880022    1    1    2    0    0 -0.20570359361E+03  0.88900558400E+03 -0.34577588591E+03  0.98772339908E+03  0.15294330000E+03 0.  0.
<mgrwt>
<rscale>  0 0.92522243E+03</rscale>
<asrwt>0</asrwt>
<pdfrwt beam="1">  1        2 0.39718395E+00 0.92522243E+03</pdfrwt>
<pdfrwt beam="2">  1       -2 0.66574005E-01 0.92522243E+03</pdfrwt>
<totfact> 0.66179537E+00</totfact>
</mgrwt>
</event>
<event>
 4    1  0.4880711E-008  0.2642518E+03  0.7818608E-02  0.1104615E+00
          2   -1    0    0  501    0  0.00000000000E+00  0.00000000000E+00  0.50163643935E+03  0.50163643936E+03  0.25500000000E-02 0. -1.
         -2   -1    0    0    0  501 -0.00000000000E+00 -0.00000000000E+00 -0.20563432184E+03  0.20563432186E+03  0.25500000000E-02 0.  1.
    8880022    1    1    2    0    0 -0.13654810629E+03  0.16670928315E+03 -0.52998978872E+02  0.26951422077E+03  0.15294330000E+03 0.  0.
    8880022    1    1    2    0    0  0.13654810629E+03 -0.16670928315E+03  0.34900109638E+03  0.43775654045E+03  0.15294330000E+03 0.  0.
<mgrwt>
<rscale>  0 0.26425182E+03</rscale>
<asrwt>0</asrwt>
<pdfrwt beam="1">  1        2 0.77174836E-01 0.26425182E+03</pdfrwt>
<pdfrwt beam="2">  1       -2 0.31636050E-01 0.26425182E+03</pdfrwt>
<totfact> 0.57791519E+02</totfact>
</mgrwt>
</event>
<event>
 4    1  0.4880711E-008  0.5594537E+03  0.7818608E-02  0.9993291E-01
         -2   -1    0    0    0  501 -0.00000000000E+00  0.00000000000E+00  0.13150733949E+03  0.13150733951E+03  0.25500000000E-02 0.  1.
          2   -1    0    0  501    0  0.00000000000E+00 -0.00000000000E+00 -0.24910884145E+04  0.24910884145E+04  0.25500000000E-02 0. -1.
    8880022    1    1    2    0    0  0.53588129704E+03 -0.49275241047E+02 -0.14566926845E+04  0.15604300830E+04  0.15294330000E+03 0.  0.
    8880022    1    1    2    0    0 -0.53588129704E+03  0.49275241047E+02 -0.90288839043E+03  0.10621656709E+04  0.15294330000E+03 0.  0.
<mgrwt>
<rscale>  0 0.55945372E+03</rscale>
<asrwt>0</asrwt>
<pdfrwt beam="1">  1        2 0.38324434E+00 0.55945372E+03</pdfrwt>
<pdfrwt beam="2">  1       -2 0.20231900E-01 0.55945372E+03</pdfrwt>
<totfact> 0.78639787E+01</totfact>
</mgrwt>
</event>
<event>
 4    1  0.4880711E-008  0.6135529E+03  0.7818608E-02  0.9877680E-01
          2   -1    0    0  501    0  0.00000000000E+00  0.00000000000E+00  0.32159152982E+04  0.32159152982E+04  0.25500000000E-02 0. -1.
         -2   -1    0    0    0  501 -0.00000000000E+00 -0.00000000000E+00 -0.19191862663E+03  0.19191862665E+03  0.25500000000E-02 0.  1.
    8880022    1    1    2    0    0 -0.42485035483E+03  0.41540068095E+03  0.25761851262E+04  0.26482403605E+04  0.15294330000E+03 0.  0.
    8880022    1    1    2    0    0  0.42485035483E+03 -0.41540068095E+03  0.44781154533E+03  0.75959356427E+03  0.15294330000E+03 0.  0.
<mgrwt>
<rscale>  0 0.61355293E+03</rscale>
<asrwt>0</asrwt>
<pdfrwt beam="1">  1        2 0.49475616E+00 0.61355293E+03</pdfrwt>
<pdfrwt beam="2">  1       -2 0.29525945E-01 0.61355293E+03</pdfrwt>
<totfact> 0.14666645E+01</totfact>
</mgrwt>
</event>
<event>
 4    1  0.4880711E-008  0.4843706E+03  0.7818608E-02  0.1017941E+00
         -2   -1    0    0    0  501 -0.00000000000E+00  0.00000000000E+00  0.72004649584E+03  0.72004649585E+03  0.25500000000E-02 0.  1.
          2   -1    0    0  501    0  0.00000000000E+00 -0.00000000000E+00 -0.10804044112E+04  0.10804044112E+04  0.25500000000E-02 0. -1.
    8880022    1    1    2    0    0  0.38118199745E+03  0.25675571628E+03  0.57215091195E+03  0.74964760526E+03  0.15294330000E+03 0.  0.
    8880022    1    1    2    0    0 -0.38118199745E+03 -0.25675571628E+03 -0.93250882730E+03  0.10508033018E+04  0.15294330000E+03 0.  0.
<mgrwt>
<rscale>  0 0.48437059E+03</rscale>
<asrwt>0</asrwt>
<pdfrwt beam="1">  1        2 0.16621606E+00 0.48437059E+03</pdfrwt>
<pdfrwt beam="2">  1       -2 0.11077638E+00 0.48437059E+03</pdfrwt>
<totfact> 0.15291418E+01</totfact>
</mgrwt>
</event>
<event>
 4    1  0.4880711E-008  0.4258901E+03  0.7818608E-02  0.1035166E+00
         -2   -1    0    0    0  501 -0.00000000000E+00  0.00000000000E+00  0.14107269175E+03  0.14107269177E+03  0.25500000000E-02 0.  1.
          2   -1    0    0  501    0  0.00000000000E+00 -0.00000000000E+00 -0.14660760950E+04  0.14660760950E+04  0.25500000000E-02 0. -1.
    8880022    1    1    2    0    0  0.38655737903E+03 -0.92542305509E+02 -0.38066787017E+03  0.57121831727E+03  0.15294330000E+03 0.  0.
    8880022    1    1    2    0    0 -0.38655737903E+03  0.92542305509E+02 -0.94433553309E+03  0.10359304695E+04  0.15294330000E+03 0.  0.
<mgrwt>
<rscale>  0 0.42589005E+03</rscale>
<asrwt>0</asrwt>
<pdfrwt beam="1">  1        2 0.22555016E+00 0.42589005E+03</pdfrwt>
<pdfrwt beam="2">  1       -2 0.21703492E-01 0.42589005E+03</pdfrwt>
<totfact> 0.25570431E+02</totfact>
</mgrwt>
</event>
<event>
 4    1  0.4880711E-008  0.9904192E+03  0.7818608E-02  0.9319116E-01
         -2   -1    0    0    0  501 -0.00000000000E+00  0.00000000000E+00  0.34559865416E+03  0.34559865417E+03  0.25500000000E-02 0.  1.
          2   -1    0    0  501    0  0.00000000000E+00 -0.00000000000E+00 -0.34922580354E+04  0.34922580354E+04  0.25500000000E-02 0. -1.
    8880022    1    1    2    0    0  0.45506312884E+03 -0.86628873171E+03 -0.74297505523E+03  0.12381204318E+04  0.15294330000E+03 0.  0.
    8880022    1    1    2    0    0 -0.45506312884E+03  0.86628873171E+03 -0.24036843260E+04  0.25997362578E+04  0.15294330000E+03 0.  0.
<mgrwt>
<rscale>  0 0.99041924E+03</rscale>
<asrwt>0</asrwt>
<pdfrwt beam="1">  1        2 0.53727044E+00 0.99041924E+03</pdfrwt>
<pdfrwt beam="2">  1       -2 0.53169026E-01 0.99041924E+03</pdfrwt>
<totfact> 0.28510085E+00</totfact>
</mgrwt>
</event>
<event>
 4    1  0.4880711E-008  0.4836991E+03  0.7818608E-02  0.1018123E+00
         -2   -1    0    0    0  501 -0.00000000000E+00  0.00000000000E+00  0.33183722132E+03  0.33183722133E+03  0.25500000000E-02 0.  1.
          2   -1    0    0  501    0  0.00000000000E+00 -0.00000000000E+00 -0.20954051531E+04  0.20954051531E+04  0.25500000000E-02 0. -1.
    8880022    1    1    2    0    0 -0.16339181945E+02  0.45859152730E+03 -0.18703612338E+04  0.19318943956E+04  0.15294330000E+03 0.  0.
    8880022    1    1    2    0    0  0.16339181945E+02 -0.45859152730E+03  0.10679330202E+03  0.49534797885E+03  0.15294330000E+03 0.  0.
<mgrwt>
<rscale>  0 0.48369909E+03</rscale>
<asrwt>0</asrwt>
<pdfrwt beam="1">  1        2 0.32237001E+00 0.48369909E+03</pdfrwt>
<pdfrwt beam="2">  1       -2 0.51051882E-01 0.48369909E+03</pdfrwt>
<totfact> 0.23250265E+01</totfact>
</mgrwt>
</event>
<event>
 4    1  0.4880711E-008  0.2711405E+03  0.7818608E-02  0.1100629E+00
         -2   -1    0    0    0  501 -0.00000000000E+00  0.00000000000E+00  0.40992217992E+03  0.40992217993E+03  0.25500000000E-02 0.  1.
          2   -1    0    0  501    0  0.00000000000E+00 -0.00000000000E+00 -0.28993862564E+03  0.28993862565E+03  0.25500000000E-02 0. -1.
    8880022    1    1    2    0    0 -0.21899599710E+03 -0.46543125829E+02  0.27611193312E+03  0.38698186254E+03  0.15294330000E+03 0.  0.
    8880022    1    1    2    0    0  0.21899599710E+03  0.46543125829E+02 -0.15612837884E+03  0.31287894304E+03  0.15294330000E+03 0.  0.
<mgrwt>
<rscale>  0 0.27114048E+03</rscale>
<asrwt>0</asrwt>
<pdfrwt beam="1">  1        2 0.44605943E-01 0.27114048E+03</pdfrwt>
<pdfrwt beam="2">  1       -2 0.63064950E-01 0.27114048E+03</pdfrwt>
<totfact> 0.27204711E+02</totfact>
</mgrwt>
</event>
<event>
 4    1  0.4880711E-008  0.5938028E+03  0.7818608E-02  0.9918347E-01
         -2   -1    0    0    0  501 -0.00000000000E+00  0.00000000000E+00  0.28806703586E+03  0.28806703587E+03  0.25500000000E-02 0.  1.
          2   -1    0    0  501    0  0.00000000000E+00 -0.00000000000E+00 -0.16285255314E+04  0.16285255314E+04  0.25500000000E-02 0. -1.
    8880022    1    1    2    0    0 -0.41216654862E+03 -0.39916010497E+03 -0.19263265171E+03  0.62426680571E+03  0.15294330000E+03 0.  0.
    8880022    1    1    2    0    0  0.41216654862E+03  0.39916010497E+03 -0.11478258438E+04  0.12923257616E+04  0.15294330000E+03 0.  0.
<mgrwt>
<rscale>  0 0.59380275E+03</rscale>
<asrwt>0</asrwt>
<pdfrwt beam="1">  1        2 0.25054238E+00 0.59380275E+03</pdfrwt>
<pdfrwt beam="2">  1       -2 0.44318007E-01 0.59380275E+03</pdfrwt>
<totfact> 0.54126694E+01</totfact>
</mgrwt>
</event>
<event>
 4    1  0.4880711E-008  0.7448567E+03  0.7818608E-02  0.9643454E-01
          2   -1    0    0  501    0  0.00000000000E+00  0.00000000000E+00  0.46066077492E+04  0.46066077492E+04  0.25500000000E-02 0. -1.
         -2   -1    0    0    0  501 -0.00000000000E+00 -0.00000000000E+00 -0.20545171705E+03  0.20545171706E+03  0.25500000000E-02 0.  1.
    8880022    1    1    2    0    0 -0.46950082557E+03  0.55766366074E+03  0.65286599999E+03  0.99047738524E+03  0.15294330000E+03 0.  0.
    8880022    1    1    2    0    0  0.46950082557E+03 -0.55766366074E+03  0.37482900321E+04  0.38215820810E+04  0.15294330000E+03 0. -1.
<mgrwt>
<rscale>  0 0.74485666E+03</rscale>
<asrwt>0</asrwt>
<pdfrwt beam="1">  1        2 0.70870883E+00 0.74485666E+03</pdfrwt>
<pdfrwt beam="2">  1       -2 0.31607959E-01 0.74485666E+03</pdfrwt>
<totfact> 0.10250855E+00</totfact>
</mgrwt>
</event>
<event>
 4    1  0.4880711E-008  0.7612421E+03  0.7818608E-02  0.9617876E-01
         -2   -1    0    0    0  501 -0.00000000000E+00  0.00000000000E+00  0.63015417230E+03  0.63015417231E+03  0.25500000000E-02 0.  1.
          2   -1    0    0  501    0  0.00000000000E+00 -0.00000000000E+00 -0.16277701397E+04  0.16277701397E+04  0.25500000000E-02 0. -1.
    8880022    1    1    2    0    0 -0.16635175982E+03 -0.72692849286E+03 -0.12434572045E+04  0.14579696204E+04  0.15294330000E+03 0.  0.
    8880022    1    1    2    0    0  0.16635175982E+03  0.72692849286E+03  0.24584123707E+03  0.79995469158E+03  0.15294330000E+03 0.  0.
<mgrwt>
<rscale>  0 0.76124214E+03</rscale>
<asrwt>0</asrwt>
<pdfrwt beam="1">  1        2 0.25042617E+00 0.76124214E+03</pdfrwt>
<pdfrwt beam="2">  1       -2 0.96946796E-01 0.76124214E+03</pdfrwt>
<totfact> 0.98068828E+00</totfact>
</mgrwt>
</event>
<event>
 4    1  0.4880711E-008  0.3628515E+03  0.7818608E-02  0.1057460E+00
          2   -1    0    0  501    0  0.00000000000E+00  0.00000000000E+00  0.72681546336E+03  0.72681546337E+03  0.25500000000E-02 0. -1.
         -2   -1    0    0    0  501 -0.00000000000E+00 -0.00000000000E+00 -0.20933031517E+03  0.20933031519E+03  0.25500000000E-02 0.  1.
    8880022    1    1    2    0    0  0.23515231230E+03 -0.23015859900E+03  0.43048790958E+03  0.56301073167E+03  0.15294330000E+03 0.  0.
    8880022    1    1    2    0    0 -0.23515231230E+03  0.23015859900E+03  0.86997238612E+02  0.37313504688E+03  0.15294330000E+03 0.  0.
<mgrwt>
<rscale>  0 0.36285154E+03</rscale>
<asrwt>0</asrwt>
<pdfrwt beam="1">  1        2 0.11181776E+00 0.36285154E+03</pdfrwt>
<pdfrwt beam="2">  1       -2 0.32204664E-01 0.36285154E+03</pdfrwt>
<totfact> 0.35947163E+02</totfact>
</mgrwt>
</event>
<event>
 4    1  0.4880711E-008  0.5745460E+03  0.7818608E-02  0.9959669E-01
         -2   -1    0    0    0  501 -0.00000000000E+00  0.00000000000E+00  0.75132483454E+03  0.75132483455E+03  0.25500000000E-02 0.  1.
          2   -1    0    0  501    0  0.00000000000E+00 -0.00000000000E+00 -0.16843955070E+04  0.16843955070E+04  0.25500000000E-02 0. -1.
    8880022    1    1    2    0    0 -0.37022512672E+03  0.41187957482E+03  0.58051130069E+03  0.81675972712E+03  0.15294330000E+03 0.  0.
    8880022    1    1    2    0    0  0.37022512672E+03 -0.41187957482E+03 -0.15135819731E+04  0.16189606144E+04  0.15294330000E+03 0.  0.
<mgrwt>
<rscale>  0 0.57454598E+03</rscale>
<asrwt>0</asrwt>
<pdfrwt beam="1">  1        2 0.25913777E+00 0.57454598E+03</pdfrwt>
<pdfrwt beam="2">  1       -2 0.11558844E+00 0.57454598E+03</pdfrwt>
<totfact> 0.61803532E+00</totfact>
</mgrwt>
</event>
<event>
 4    1  0.5978050E-008  0.2856990E+03  0.7818608E-02  0.1092616E+00
          2   -1    0    0  501    0  0.00000000000E+00  0.00000000000E+00  0.10387183624E+04  0.10387183624E+04  0.25500000000E-02 0. -1.
         -2   -1    0    0    0  501 -0.00000000000E+00 -0.00000000000E+00 -0.13280055772E+04  0.13280055772E+04  0.25500000000E-02 0.  1.
    8880022    1    1    2    0    0  0.18257034057E+02  0.24062201089E+03  0.10031732917E+04  0.10430630746E+04  0.15294330000E+03 0.  0.
    8880022    1    1    2    0    0 -0.18257034057E+02 -0.24062201089E+03 -0.12924605065E+04  0.13236608649E+04  0.15294330000E+03 0.  0.
<mgrwt>
<rscale>  0 0.28569901E+03</rscale>
<asrwt>0</asrwt>
<pdfrwt beam="1">  1        2 0.15980283E+00 0.28569901E+03</pdfrwt>
<pdfrwt beam="2">  1       -2 0.20430855E+00 0.28569901E+03</pdfrwt>
<totfact> 0.34035296E+00</totfact>
</mgrwt>
</event>
<event>
 4    1  0.4880711E-008  0.7347604E+03  0.7818608E-02  0.9659567E-01
         -2   -1    0    0    0  501 -0.00000000000E+00  0.00000000000E+00  0.37640564498E+03  0.37640564498E+03  0.25500000000E-02 0.  1.
          2   -1    0    0  501    0  0.00000000000E+00 -0.00000000000E+00 -0.15861905935E+04  0.15861905935E+04  0.25500000000E-02 0. -1.
    8880022    1    1    2    0    0 -0.38551464761E+03 -0.60651433509E+03 -0.30121632889E+03  0.79410585692E+03  0.15294330000E+03 0.  0.
    8880022    1    1    2    0    0  0.38551464761E+03  0.60651433509E+03 -0.90856861963E+03  0.11684903816E+04  0.15294330000E+03 0.  0.
<mgrwt>
<rscale>  0 0.73476039E+03</rscale>
<asrwt>0</asrwt>
<pdfrwt beam="1">  1        2 0.24402932E+00 0.73476039E+03</pdfrwt>
<pdfrwt beam="2">  1       -2 0.57908562E-01 0.73476039E+03</pdfrwt>
<totfact> 0.32521775E+01</totfact>
</mgrwt>
</event>
<event>
 4    1  0.4880711E-008  0.9248940E+03  0.7818608E-02  0.9394987E-01
         -2   -1    0    0    0  501 -0.00000000000E+00  0.00000000000E+00  0.10407227580E+04  0.10407227580E+04  0.25500000000E-02 0.  1.
          2   -1    0    0  501    0  0.00000000000E+00 -0.00000000000E+00 -0.10116151507E+04  0.10116151507E+04  0.25500000000E-02 0. -1.
    8880022    1    1    2    0    0 -0.23274285020E+03  0.88196821666E+03 -0.42976792443E+03  0.10198672911E+04  0.15294330000E+03 0.  0.
    8880022    1    1    2    0    0  0.23274285020E+03 -0.88196821666E+03  0.45887553175E+03  0.10324706176E+04  0.15294330000E+03 0.  0.
<mgrwt>
<rscale>  0 0.92489395E+03</rscale>
<asrwt>0</asrwt>
<pdfrwt beam="1">  1        2 0.15563310E+00 0.92489395E+03</pdfrwt>
<pdfrwt beam="2">  1       -2 0.16011119E+00 0.92489395E+03</pdfrwt>
<totfact> 0.62169653E+00</totfact>
</mgrwt>
</event>
<event>
 4    1  0.4880711E-008  0.9890066E+03  0.7818608E-02  0.9320685E-01
         -2   -1    0    0    0  501 -0.00000000000E+00  0.00000000000E+00  0.91253527463E+03  0.91253527464E+03  0.25500000000E-02 0.  1.
          2   -1    0    0  501    0  0.00000000000E+00 -0.00000000000E+00 -0.26473046109E+04  0.26473046109E+04  0.25500000000E-02 0. -1.
    8880022    1    1    2    0    0  0.82074418640E+03 -0.53020880785E+03  0.50569727670E+03  0.11107942150E+04  0.15294330000E+03 0.  0.
    8880022    1    1    2    0    0 -0.82074418640E+03  0.53020880785E+03 -0.22404666130E+04  0.24490456705E+04  0.15294330000E+03 0.  0.
<mgrwt>
<rscale>  0 0.98900660E+03</rscale>
<asrwt>0</asrwt>
<pdfrwt beam="1">  1        2 0.40727763E+00 0.98900660E+03</pdfrwt>
<pdfrwt beam="2">  1       -2 0.14039004E+00 0.98900660E+03</pdfrwt>
<totfact> 0.10286103E+00</totfact>
</mgrwt>
</event>
<event>
 4    1  0.4880711E-008  0.5303300E+03  0.7818608E-02  0.1006152E+00
         -2   -1    0    0    0  501 -0.00000000000E+00  0.00000000000E+00  0.99739462053E+03  0.99739462054E+03  0.25500000000E-02 0.  1.
          2   -1    0    0  501    0  0.00000000000E+00 -0.00000000000E+00 -0.83385031862E+03  0.83385031862E+03  0.25500000000E-02 0. -1.
    8880022    1    1    2    0    0  0.26676338443E+03 -0.43208281074E+03  0.82665693909E+03  0.98214642827E+03  0.15294330000E+03 0.  0.
    8880022    1    1    2    0    0 -0.26676338443E+03  0.43208281074E+03 -0.66311263717E+03  0.84909851089E+03  0.15294330000E+03 0.  0.
<mgrwt>
<rscale>  0 0.53033000E+03</rscale>
<asrwt>0</asrwt>
<pdfrwt beam="1">  1        2 0.12828466E+00 0.53033000E+03</pdfrwt>
<pdfrwt beam="2">  1       -2 0.15344533E+00 0.53033000E+03</pdfrwt>
<totfact> 0.96295812E+00</totfact>
</mgrwt>
</event>
<event>
 4    1  0.4880711E-008  0.9953228E+03  0.7818608E-02  0.9313690E-01
          2   -1    0    0  501    0  0.00000000000E+00  0.00000000000E+00  0.24193328051E+04  0.24193328051E+04  0.25500000000E-02 0. -1.
         -2   -1    0    0    0  501 -0.00000000000E+00 -0.00000000000E+00 -0.50195689137E+03  0.50195689137E+03  0.25500000000E-02 0.  1.
    8880022    1    1    2    0    0 -0.40431509369E+03  0.89655175688E+03  0.15856323155E+04  0.18721370785E+04  0.15294330000E+03 0.  0.
    8880022    1    1    2    0    0  0.40431509369E+03 -0.89655175688E+03  0.33174359819E+03  0.10491526179E+04  0.15294330000E+03 0.  0.
<mgrwt>
<rscale>  0 0.99532276E+03</rscale>
<asrwt>0</asrwt>
<pdfrwt beam="1">  1        2 0.37220504E+00 0.99532276E+03</pdfrwt>
<pdfrwt beam="2">  1       -2 0.77224138E-01 0.99532276E+03</pdfrwt>
<totfact> 0.58538059E+00</totfact>
</mgrwt>
</event>
<event>
 4    1  0.4880711E-008  0.1037192E+04  0.7818608E-02  0.9268669E-01
          2   -1    0    0  501    0  0.00000000000E+00  0.00000000000E+00  0.17733616274E+04  0.17733616274E+04  0.25500000000E-02 0. -1.
         -2   -1    0    0    0  501 -0.00000000000E+00 -0.00000000000E+00 -0.62351852007E+03  0.62351852007E+03  0.25500000000E-02 0.  1.
    8880022    1    1    2    0    0  0.62897447785E+03 -0.81041104185E+03  0.77218367580E+03  0.12930716271E+04  0.15294330000E+03 0.  0.
    8880022    1    1    2    0    0 -0.62897447785E+03  0.81041104185E+03  0.37765943157E+03  0.11038085204E+04  0.15294330000E+03 0.  0.
<mgrwt>
<rscale>  0 0.10371917E+04</rscale>
<asrwt>0</asrwt>
<pdfrwt beam="1">  1        2 0.27282486E+00 0.10371917E+04</pdfrwt>
<pdfrwt beam="2">  1       -2 0.95925928E-01 0.10371917E+04</pdfrwt>
<totfact> 0.80862168E+00</totfact>
</mgrwt>
</event>
<event>
 4    1  0.4880711E-008  0.3336299E+03  0.7818608E-02  0.1069542E+00
          2   -1    0    0  501    0  0.00000000000E+00  0.00000000000E+00  0.11000546402E+04  0.11000546402E+04  0.25500000000E-02 0. -1.
         -2   -1    0    0    0  501 -0.00000000000E+00 -0.00000000000E+00 -0.25230456433E+03  0.25230456435E+03  0.25500000000E-02 0.  1.
    8880022    1    1    2    0    0 -0.11576615869E+02  0.29628235635E+03  0.94718622527E+03  0.10042263943E+04  0.15294330000E+03 0.  0.
    8880022    1    1    2    0    0  0.11576615869E+02 -0.29628235635E+03 -0.99436149415E+02  0.34813281021E+03  0.15294330000E+03 0.  0.
<mgrwt>
<rscale>  0 0.33362989E+03</rscale>
<asrwt>0</asrwt>
<pdfrwt beam="1">  1        2 0.16923918E+00 0.33362989E+03</pdfrwt>
<pdfrwt beam="2">  1       -2 0.38816087E-01 0.33362989E+03</pdfrwt>
<totfact> 0.14431102E+02</totfact>
</mgrwt>
</event>
<event>
 4    1  0.4880711E-008  0.8535678E+03  0.7818608E-02  0.9485561E-01
         -2   -1    0    0    0  501 -0.00000000000E+00  0.00000000000E+00  0.50723758451E+03  0.50723758452E+03  0.25500000000E-02 0.  1.
          2   -1    0    0  501    0  0.00000000000E+00 -0.00000000000E+00 -0.28599538042E+04  0.28599538042E+04  0.25500000000E-02 0. -1.
    8880022    1    1    2    0    0  0.16479317386E+03 -0.82342544650E+03  0.11462074099E+02  0.85364470844E+03  0.15294330000E+03 0.  0.
    8880022    1    1    2    0    0 -0.16479317386E+03  0.82342544650E+03 -0.23641782937E+04  0.25135466802E+04  0.15294330000E+03 0.  0.
<mgrwt>
<rscale>  0 0.85356775E+03</rscale>
<asrwt>0</asrwt>
<pdfrwt beam="1">  1        2 0.43999288E+00 0.85356775E+03</pdfrwt>
<pdfrwt beam="2">  1       -2 0.78036554E-01 0.85356775E+03</pdfrwt>
<totfact> 0.32375374E+00</totfact>
</mgrwt>
</event>
<event>
 4    1  0.4880711E-008  0.6086973E+03  0.7818608E-02  0.9887524E-01
          2   -1    0    0  501    0  0.00000000000E+00  0.00000000000E+00  0.16489278101E+04  0.16489278101E+04  0.25500000000E-02 0. -1.
         -2   -1    0    0    0  501 -0.00000000000E+00 -0.00000000000E+00 -0.66165700421E+03  0.66165700421E+03  0.25500000000E-02 0.  1.
    8880022    1    1    2    0    0 -0.45984383437E+02  0.58737228112E+03 -0.44521266443E+03  0.75413972826E+03  0.15294330000E+03 0.  0.
    8880022    1    1    2    0    0  0.45984383437E+02 -0.58737228112E+03  0.14324834703E+04  0.15564450860E+04  0.15294330000E+03 0.  0.
<mgrwt>
<rscale>  0 0.60869731E+03</rscale>
<asrwt>0</asrwt>
<pdfrwt beam="1">  1        2 0.25368120E+00 0.60869731E+03</pdfrwt>
<pdfrwt beam="2">  1       -2 0.10179339E+00 0.60869731E+03</pdfrwt>
<totfact> 0.87153174E+00</totfact>
</mgrwt>
</event>
<event>
 4    1  0.4880711E-008  0.6106528E+03  0.7818608E-02  0.9883548E-01
         -2   -1    0    0    0  501 -0.00000000000E+00  0.00000000000E+00  0.69435668749E+03  0.69435668749E+03  0.25500000000E-02 0.  1.
          2   -1    0    0  501    0  0.00000000000E+00 -0.00000000000E+00 -0.80992913891E+03  0.80992913892E+03  0.25500000000E-02 0. -1.
    8880022    1    1    2    0    0 -0.51394552313E+03  0.29217330561E+03 -0.49437288818E+03  0.78568533577E+03  0.15294330000E+03 0.  0.
    8880022    1    1    2    0    0  0.51394552313E+03 -0.29217330561E+03  0.37880043676E+03  0.71860049065E+03  0.15294330000E+03 0.  0.
<mgrwt>
<rscale>  0 0.61065284E+03</rscale>
<asrwt>0</asrwt>
<pdfrwt beam="1">  1        2 0.12460448E+00 0.61065284E+03</pdfrwt>
<pdfrwt beam="2">  1       -2 0.10682411E+00 0.61065284E+03</pdfrwt>
<totfact> 0.24594101E+01</totfact>
</mgrwt>
</event>
<event>
 4    1  0.4880711E-008  0.2123874E+03  0.7818608E-02  0.1139689E+00
          2   -1    0    0  501    0  0.00000000000E+00  0.00000000000E+00  0.27376281582E+03  0.27376281583E+03  0.25500000000E-02 0. -1.
         -2   -1    0    0    0  501 -0.00000000000E+00 -0.00000000000E+00 -0.47188036767E+03  0.47188036768E+03  0.25500000000E-02 0.  1.
    8880022    1    1    2    0    0  0.12640664607E+03 -0.75750225160E+02  0.20170884014E+03  0.29290757243E+03  0.15294330000E+03 0.  0.
    8880022    1    1    2    0    0 -0.12640664607E+03  0.75750225160E+02 -0.39982639200E+03  0.45273561107E+03  0.15294330000E+03 0.  0.
<mgrwt>
<rscale>  0 0.21238736E+03</rscale>
<asrwt>0</asrwt>
<pdfrwt beam="1">  1        2 0.42117356E-01 0.21238736E+03</pdfrwt>
<pdfrwt beam="2">  1       -2 0.72596980E-01 0.21238736E+03</pdfrwt>
<totfact> 0.21508871E+02</totfact>
</mgrwt>
</event>
<event>
 4    1  0.4880711E-008  0.3181698E+03  0.7818608E-02  0.1076495E+00
         -2   -1    0    0    0  501 -0.00000000000E+00  0.00000000000E+00  0.16420235228E+03  0.16420235230E+03  0.25500000000E-02 0.  1.
          2   -1    0    0  501    0  0.00000000000E+00 -0.00000000000E+00 -0.20060391941E+04  0.20060391941E+04  0.25500000000E-02 0. -1.
    8880022    1    1    2    0    0  0.26111172182E+03 -0.98290447472E+02 -0.18240324426E+04  0.18515740191E+04  0.15294330000E+03 0.  0.
    8880022    1    1    2    0    0 -0.26111172182E+03  0.98290447472E+02 -0.17804399198E+02  0.31866752734E+03  0.15294330000E+03 0.  0.
<mgrwt>
<rscale>  0 0.31816976E+03</rscale>
<asrwt>0</asrwt>
<pdfrwt beam="1">  1        2 0.30862140E+00 0.31816976E+03</pdfrwt>
<pdfrwt beam="2">  1       -2 0.25261902E-01 0.31816976E+03</pdfrwt>
<totfact> 0.10251922E+02</totfact>
</mgrwt>
</event>
<event>
 4    1  0.4880711E-008  0.3655563E+03  0.7818608E-02  0.1056405E+00
          2   -1    0    0  501    0  0.00000000000E+00  0.00000000000E+00  0.93286333211E+03  0.93286333211E+03  0.25500000000E-02 0. -1.
         -2   -1    0    0    0  501 -0.00000000000E+00 -0.00000000000E+00 -0.28227736160E+03  0.28227736162E+03  0.25500000000E-02 0.  1.
    8880022    1    1    2    0    0  0.31283648776E+03  0.11123424877E+03 -0.10110078448E+03  0.37927924779E+03  0.15294330000E+03 0.  0.
    8880022    1    1    2    0    0 -0.31283648776E+03 -0.11123424877E+03  0.75168675498E+03  0.83586144593E+03  0.15294330000E+03 0. -1.
<mgrwt>
<rscale>  0 0.36555626E+03</rscale>
<asrwt>0</asrwt>
<pdfrwt beam="1">  1        2 0.14351743E+00 0.36555626E+03</pdfrwt>
<pdfrwt beam="2">  1       -2 0.43427287E-01 0.36555626E+03</pdfrwt>
<totfact> 0.14662150E+02</totfact>
</mgrwt>
</event>
<event>
 4    1  0.4880711E-008  0.4656172E+03  0.7818608E-02  0.1023165E+00
          2   -1    0    0  501    0  0.00000000000E+00  0.00000000000E+00  0.80742442486E+03  0.80742442487E+03  0.25500000000E-02 0. -1.
         -2   -1    0    0    0  501 -0.00000000000E+00 -0.00000000000E+00 -0.63593342601E+03  0.63593342602E+03  0.25500000000E-02 0.  1.
    8880022    1    1    2    0    0 -0.43731777391E+03  0.46485295907E+02  0.63430431626E+03  0.78685534678E+03  0.15294330000E+03 0.  0.
    8880022    1    1    2    0    0  0.43731777391E+03 -0.46485295907E+02 -0.46281331741E+03  0.65650250411E+03  0.15294330000E+03 0.  0.
<mgrwt>
<rscale>  0 0.46561719E+03</rscale>
<asrwt>0</asrwt>
<pdfrwt beam="1">  1        2 0.12421914E+00 0.46561719E+03</pdfrwt>
<pdfrwt beam="2">  1       -2 0.97835911E-01 0.46561719E+03</pdfrwt>
<totfact> 0.30989220E+01</totfact>
</mgrwt>
</event>
<event>
 4    1  0.4880711E-008  0.1322545E+04  0.7818608E-02  0.9011875E-01
          2   -1    0    0  501    0  0.00000000000E+00  0.00000000000E+00  0.20547253148E+04  0.20547253148E+04  0.25500000000E-02 0. -1.
         -2   -1    0    0    0  501 -0.00000000000E+00 -0.00000000000E+00 -0.15845581395E+04  0.15845581395E+04  0.25500000000E-02 0.  1.
    8880022    1    1    2    0    0 -0.12587262535E+04 -0.37595480764E+03 -0.10027698013E+04  0.16597206771E+04  0.15294330000E+03 0.  0.
    8880022    1    1    2    0    0  0.12587262535E+04  0.37595480764E+03  0.14729369767E+04  0.19795627772E+04  0.15294330000E+03 0.  0.
<mgrwt>
<rscale>  0 0.13225451E+04</rscale>
<asrwt>0</asrwt>
<pdfrwt beam="1">  1        2 0.31611159E+00 0.13225451E+04</pdfrwt>
<pdfrwt beam="2">  1       -2 0.24377817E+00 0.13225451E+04</pdfrwt>
<totfact> 0.41852221E-01</totfact>
</mgrwt>
</event>
<event>
 4    1  0.4880711E-008  0.6075401E+03  0.7818608E-02  0.9889885E-01
         -2   -1    0    0    0  501 -0.00000000000E+00  0.00000000000E+00  0.30363191126E+03  0.30363191128E+03  0.25500000000E-02 0.  1.
          2   -1    0    0  501    0  0.00000000000E+00 -0.00000000000E+00 -0.23911319290E+04  0.23911319290E+04  0.25500000000E-02 0. -1.
    8880022    1    1    2    0    0 -0.51605243494E+03  0.28178574877E+03 -0.19884633786E+04  0.20792045558E+04  0.15294330000E+03 0.  0.
    8880022    1    1    2    0    0  0.51605243494E+03 -0.28178574877E+03 -0.99036639156E+02  0.61555928449E+03  0.15294330000E+03 0.  0.
<mgrwt>
<rscale>  0 0.60754010E+03</rscale>
<asrwt>0</asrwt>
<pdfrwt beam="1">  1        2 0.36786644E+00 0.60754010E+03</pdfrwt>
<pdfrwt beam="2">  1       -2 0.46712603E-01 0.60754010E+03</pdfrwt>
<totfact> 0.18678423E+01</totfact>
</mgrwt>
</event>
<event>
 4    1  0.4880711E-008  0.2445239E+03  0.7818608E-02  0.1116815E+00
         -2   -1    0    0    0  501 -0.00000000000E+00  0.00000000000E+00  0.22110748142E+03  0.22110748143E+03  0.25500000000E-02 0.  1.
          2   -1    0    0  501    0  0.00000000000E+00 -0.00000000000E+00 -0.18640783651E+04  0.18640783651E+04  0.25500000000E-02 0. -1.
    8880022    1    1    2    0    0 -0.17957799048E+03  0.64436120568E+02 -0.17854926490E+04  0.18021586836E+04  0.15294330000E+03 0.  0.
    8880022    1    1    2    0    0  0.17957799048E+03 -0.64436120568E+02  0.14252176537E+03  0.28302716286E+03  0.15294330000E+03 0.  0.
<mgrwt>
<rscale>  0 0.24452387E+03</rscale>
<asrwt>0</asrwt>
<pdfrwt beam="1">  1        2 0.28678128E+00 0.24452387E+03</pdfrwt>
<pdfrwt beam="2">  1       -2 0.34016537E-01 0.24452387E+03</pdfrwt>
<totfact> 0.72438315E+01</totfact>
</mgrwt>
</event>
<event>
 4    1  0.4880711E-008  0.6130438E+03  0.7818608E-02  0.9878708E-01
          2   -1    0    0  501    0  0.00000000000E+00  0.00000000000E+00  0.82785940788E+03  0.82785940788E+03  0.25500000000E-02 0. -1.
         -2   -1    0    0    0  501 -0.00000000000E+00 -0.00000000000E+00 -0.11778474779E+04  0.11778474779E+04  0.25500000000E-02 0.  1.
    8880022    1    1    2    0    0  0.55648938279E+03 -0.20676222335E+03  0.61119268396E+03  0.86566691060E+03  0.15294330000E+03 0.  0.
    8880022    1    1    2    0    0 -0.55648938279E+03  0.20676222335E+03 -0.96118075394E+03  0.11400399751E+04  0.15294330000E+03 0.  0.
<mgrwt>
<rscale>  0 0.61304380E+03</rscale>
<asrwt>0</asrwt>
<pdfrwt beam="1">  1        2 0.12736299E+00 0.61304380E+03</pdfrwt>
<pdfrwt beam="2">  1       -2 0.18120730E+00 0.61304380E+03</pdfrwt>
<totfact> 0.60831024E+00</totfact>
</mgrwt>
</event>
<event>
 4    1  0.4880711E-008  0.3158666E+03  0.7818608E-02  0.1077567E+00
         -2   -1    0    0    0  501 -0.00000000000E+00  0.00000000000E+00  0.14715184019E+04  0.14715184019E+04  0.25500000000E-02 0.  1.
          2   -1    0    0  501    0  0.00000000000E+00 -0.00000000000E+00 -0.95130993876E+03  0.95130993876E+03  0.25500000000E-02 0. -1.
    8880022    1    1    2    0    0  0.31681269979E+02  0.27454752828E+03  0.14275504754E+04  0.14620779941E+04  0.15294330000E+03 0.  0.
    8880022    1    1    2    0    0 -0.31681269979E+02 -0.27454752828E+03 -0.90734201225E+03  0.96075034653E+03  0.15294330000E+03 0. -1.
<mgrwt>
<rscale>  0 0.31586659E+03</rscale>
<asrwt>0</asrwt>
<pdfrwt beam="1">  1        2 0.14635538E+00 0.31586659E+03</pdfrwt>
<pdfrwt beam="2">  1       -2 0.22638744E+00 0.31586659E+03</pdfrwt>
<totfact> 0.27839845E+00</totfact>
</mgrwt>
</event>
<event>
 4    1  0.4880711E-008  0.6885198E+03  0.7818608E-02  0.9737069E-01
          2   -1    0    0  501    0  0.00000000000E+00  0.00000000000E+00  0.23126159207E+04  0.23126159207E+04  0.25500000000E-02 0. -1.
         -2   -1    0    0    0  501 -0.00000000000E+00 -0.00000000000E+00 -0.21247590581E+03  0.21247590582E+03  0.25500000000E-02 0.  1.
    8880022    1    1    2    0    0 -0.67111264212E+03 -0.16604479416E+02  0.81306384774E+03  0.10654259058E+04  0.15294330000E+03 0.  0.
    8880022    1    1    2    0    0  0.67111264212E+03  0.16604479416E+02  0.12870761671E+04  0.14596659207E+04  0.15294330000E+03 0.  0.
<mgrwt>
<rscale>  0 0.68851982E+03</rscale>
<asrwt>0</asrwt>
<pdfrwt beam="1">  1        2 0.35578705E+00 0.68851982E+03</pdfrwt>
<pdfrwt beam="2">  1       -2 0.32688603E-01 0.68851982E+03</pdfrwt>
<totfact> 0.40709357E+01</totfact>
</mgrwt>
</event>
<event>
 4    1  0.4880711E-008  0.8983996E+03  0.7818608E-02  0.9427584E-01
         -2   -1    0    0    0  501 -0.00000000000E+00  0.00000000000E+00  0.52181449435E+03  0.52181449436E+03  0.25500000000E-02 0.  1.
          2   -1    0    0  501    0  0.00000000000E+00 -0.00000000000E+00 -0.23782476489E+04  0.23782476489E+04  0.25500000000E-02 0. -1.
    8880022    1    1    2    0    0 -0.27840096272E+02  0.88484750258E+03 -0.17856030988E+04  0.19988747468E+04  0.15294330000E+03 0.  0.
    8880022    1    1    2    0    0  0.27840096272E+02 -0.88484750258E+03 -0.70830055738E+02  0.90118739649E+03  0.15294330000E+03 0.  0.
<mgrwt>
<rscale>  0 0.89839959E+03</rscale>
<asrwt>0</asrwt>
<pdfrwt beam="1">  1        2 0.36588425E+00 0.89839959E+03</pdfrwt>
<pdfrwt beam="2">  1       -2 0.80279154E-01 0.89839959E+03</pdfrwt>
<totfact> 0.57341057E+00</totfact>
</mgrwt>
</event>
<event>
 4    1  0.4880711E-008  0.2587155E+03  0.7818608E-02  0.1107917E+00
          2   -1    0    0  501    0  0.00000000000E+00  0.00000000000E+00  0.12223007210E+04  0.12223007210E+04  0.25500000000E-02 0. -1.
         -2   -1    0    0    0  501 -0.00000000000E+00 -0.00000000000E+00 -0.18399502866E+03  0.18399502867E+03  0.25500000000E-02 0.  1.
    8880022    1    1    2    0    0  0.22337582784E+02  0.20746824808E+03 -0.70142550589E+02  0.26805535247E+03  0.15294330000E+03 0.  0.
    8880022    1    1    2    0    0 -0.22337582784E+02 -0.20746824808E+03  0.11084482430E+04  0.11382403972E+04  0.15294330000E+03 0.  0.
<mgrwt>
<rscale>  0 0.25871547E+03</rscale>
<asrwt>0</asrwt>
<pdfrwt beam="1">  1        2 0.18804626E+00 0.25871547E+03</pdfrwt>
<pdfrwt beam="2">  1       -2 0.28306928E-01 0.25871547E+03</pdfrwt>
<totfact> 0.22313234E+02</totfact>
</mgrwt>
</event>
<event>
 4    1  0.4880711E-008  0.3086740E+03  0.7818608E-02  0.1080983E+00
          2   -1    0    0  501    0  0.00000000000E+00  0.00000000000E+00  0.19200731410E+04  0.19200731410E+04  0.25500000000E-02 0. -1.
         -2   -1    0    0    0  501 -0.00000000000E+00 -0.00000000000E+00 -0.15065178690E+03  0.15065178693E+03  0.25500000000E-02 0.  1.
    8880022    1    1    2    0    0  0.15225545853E+02 -0.26768674096E+03  0.36843184309E+02  0.31086505397E+03  0.15294330000E+03 0.  0.
    8880022    1    1    2    0    0 -0.15225545853E+02  0.26768674096E+03  0.17325781698E+04  0.17598598740E+04  0.15294330000E+03 0.  0.
<mgrwt>
<rscale>  0 0.30867404E+03</rscale>
<asrwt>0</asrwt>
<pdfrwt beam="1">  1        2 0.29539586E+00 0.30867404E+03</pdfrwt>
<pdfrwt beam="2">  1       -2 0.23177198E-01 0.30867404E+03</pdfrwt>
<totfact> 0.13286856E+02</totfact>
</mgrwt>
</event>
<event>
 4    1  0.4880711E-008  0.5076673E+03  0.7818608E-02  0.1011797E+00
          2   -1    0    0  501    0  0.00000000000E+00  0.00000000000E+00  0.15454332562E+04  0.15454332562E+04  0.25500000000E-02 0. -1.
         -2   -1    0    0    0  501 -0.00000000000E+00 -0.00000000000E+00 -0.17594240624E+03  0.17594240626E+03  0.25500000000E-02 0.  1.
    8880022    1    1    2    0    0 -0.48010226830E+03 -0.61937734485E+02  0.48818749679E+03  0.70431041169E+03  0.15294330000E+03 0.  0.
    8880022    1    1    2    0    0  0.48010226830E+03  0.61937734485E+02  0.88130335317E+03  0.10170652508E+04  0.15294330000E+03 0.  0.
<mgrwt>
<rscale>  0 0.50766734E+03</rscale>
<asrwt>0</asrwt>
<pdfrwt beam="1">  1        2 0.23775897E+00 0.50766734E+03</pdfrwt>
<pdfrwt beam="2">  1       -2 0.27068062E-01 0.50766734E+03</pdfrwt>
<totfact> 0.15455593E+02</totfact>
</mgrwt>
</event>
<event>
 4    1  0.4880711E-008  0.5368845E+03  0.7818608E-02  0.1004576E+00
         -2   -1    0    0    0  501 -0.00000000000E+00  0.00000000000E+00  0.95568981056E+03  0.95568981056E+03  0.25500000000E-02 0.  1.
          2   -1    0    0  501    0  0.00000000000E+00 -0.00000000000E+00 -0.85196803136E+03  0.85196803136E+03  0.25500000000E-02 0. -1.
    8880022    1    1    2    0    0 -0.69205908066E+02 -0.50996451464E+03 -0.67457538450E+03  0.86214666170E+03  0.15294330000E+03 0.  0.
    8880022    1    1    2    0    0  0.69205908066E+02  0.50996451464E+03  0.77829716369E+03  0.94551118022E+03  0.15294330000E+03 0.  0.
<mgrwt>
<rscale>  0 0.53688445E+03</rscale>
<asrwt>0</asrwt>
<pdfrwt beam="1">  1        2 0.13107200E+00 0.53688445E+03</pdfrwt>
<pdfrwt beam="2">  1       -2 0.14702920E+00 0.53688445E+03</pdfrwt>
<totfact> 0.10456569E+01</totfact>
</mgrwt>
</event>
<event>
 4    1  0.5327053E-008  0.9128743E+03  0.7818608E-02  0.9409629E-01
         -2   -1    0    0    0  501 -0.00000000000E+00  0.00000000000E+00  0.10992203741E+04  0.10992203741E+04  0.25500000000E-02 0.  1.
          2   -1    0    0  501    0  0.00000000000E+00 -0.00000000000E+00 -0.13610538873E+04  0.13610538873E+04  0.25500000000E-02 0. -1.
    8880022    1    1    2    0    0 -0.88603423912E+03  0.15776933933E+03  0.68783301619E+03  0.11430020772E+04  0.15294330000E+03 0.  0.
    8880022    1    1    2    0    0  0.88603423912E+03 -0.15776933933E+03 -0.94966652933E+03  0.13172721842E+04  0.15294330000E+03 0.  0.
<mgrwt>
<rscale>  0 0.91287430E+03</rscale>
<asrwt>0</asrwt>
<pdfrwt beam="1">  1        2 0.20939291E+00 0.91287430E+03</pdfrwt>
<pdfrwt beam="2">  1       -2 0.16911083E+00 0.91287430E+03</pdfrwt>
<totfact> 0.33029404E+00</totfact>
</mgrwt>
</event>
<event>
 4    1  0.4880711E-008  0.6754233E+03  0.7818608E-02  0.9760210E-01
          2   -1    0    0  501    0  0.00000000000E+00  0.00000000000E+00  0.38779061201E+04  0.38779061201E+04  0.25500000000E-02 0. -1.
         -2   -1    0    0    0  501 -0.00000000000E+00 -0.00000000000E+00 -0.27531930485E+03  0.27531930486E+03  0.25500000000E-02 0.  1.
    8880022    1    1    2    0    0  0.54825309223E+03 -0.36362544465E+03  0.22975632567E+03  0.71343152393E+03  0.15294330000E+03 0.  1.
    8880022    1    1    2    0    0 -0.54825309223E+03  0.36362544465E+03  0.33728304895E+04  0.34397939010E+04  0.15294330000E+03 0.  0.
<mgrwt>
<rscale>  0 0.67542325E+03</rscale>
<asrwt>0</asrwt>
<pdfrwt beam="1">  1        2 0.59660093E+00 0.67542325E+03</pdfrwt>
<pdfrwt beam="2">  1       -2 0.42356817E-01 0.67542325E+03</pdfrwt>
<totfact> 0.25382964E+00</totfact>
</mgrwt>
</event>
<event>
 4    1  0.4880711E-008  0.3686631E+03  0.7818608E-02  0.1055205E+00
          2   -1    0    0  501    0  0.00000000000E+00  0.00000000000E+00  0.24660432190E+04  0.24660432191E+04  0.25500000000E-02 0. -1.
         -2   -1    0    0    0  501 -0.00000000000E+00 -0.00000000000E+00 -0.15419854089E+03  0.15419854091E+03  0.25500000000E-02 0.  1.
    8880022    1    1    2    0    0  0.32454650335E+03 -0.84796386960E+02  0.10571495091E+03  0.38352074773E+03  0.15294330000E+03 0.  0.
    8880022    1    1    2    0    0 -0.32454650335E+03  0.84796386960E+02  0.22061297273E+04  0.22367210122E+04  0.15294330000E+03 0. -1.
<mgrwt>
<rscale>  0 0.36866314E+03</rscale>
<asrwt>0</asrwt>
<pdfrwt beam="1">  1        2 0.37939124E+00 0.36866314E+03</pdfrwt>
<pdfrwt beam="2">  1       -2 0.23722854E-01 0.36866314E+03</pdfrwt>
<totfact> 0.63904727E+01</totfact>
</mgrwt>
</event>
<event>
 4    1  0.4880711E-008  0.1143730E+04  0.7818608E-02  0.9163588E-01
          2   -1    0    0  501    0  0.00000000000E+00  0.00000000000E+00  0.25719244463E+04  0.25719244463E+04  0.25500000000E-02 0. -1.
         -2   -1    0    0    0  501 -0.00000000000E+00 -0.00000000000E+00 -0.10854342039E+04  0.10854342039E+04  0.25500000000E-02 0.  1.
    8880022    1    1    2    0    0 -0.80792664452E+03 -0.79497185134E+03 -0.58983407325E+03  0.12868650257E+04  0.15294330000E+03 0.  0.
    8880022    1    1    2    0    0  0.80792664452E+03  0.79497185134E+03  0.20763243156E+04  0.23704936246E+04  0.15294330000E+03 0.  0.
<mgrwt>
<rscale>  0 0.11437296E+04</rscale>
<asrwt>0</asrwt>
<pdfrwt beam="1">  1        2 0.39568068E+00 0.11437296E+04</pdfrwt>
<pdfrwt beam="2">  1       -2 0.16698988E+00 0.11437296E+04</pdfrwt>
<totfact> 0.69749004E-01</totfact>
</mgrwt>
</event>
<event>
 4    1  0.4880711E-008  0.6722455E+03  0.7818608E-02  0.9765910E-01
          2   -1    0    0  501    0  0.00000000000E+00  0.00000000000E+00  0.33122327011E+04  0.33122327011E+04  0.25500000000E-02 0. -1.
         -2   -1    0    0    0  501 -0.00000000000E+00 -0.00000000000E+00 -0.17727929233E+03  0.17727929235E+03  0.25500000000E-02 0.  1.
    8880022    1    1    2    0    0  0.15049337207E+03 -0.63708245502E+03  0.73003199423E+03  0.99240146874E+03  0.15294330000E+03 0.  0.
    8880022    1    1    2    0    0 -0.15049337207E+03  0.63708245502E+03  0.24049214145E+04  0.24971105247E+04  0.15294330000E+03 0.  0.
<mgrwt>
<rscale>  0 0.67224546E+03</rscale>
<asrwt>0</asrwt>
<pdfrwt beam="1">  1        2 0.50957424E+00 0.67224546E+03</pdfrwt>
<pdfrwt beam="2">  1       -2 0.27273738E-01 0.67224546E+03</pdfrwt>
<totfact> 0.14532623E+01</totfact>
</mgrwt>
</event>
<event>
 4    1  0.4880711E-008  0.7229601E+03  0.7818608E-02  0.9678753E-01
          2   -1    0    0  501    0  0.00000000000E+00  0.00000000000E+00  0.18232364907E+04  0.18232364907E+04  0.25500000000E-02 0. -1.
         -2   -1    0    0    0  501 -0.00000000000E+00 -0.00000000000E+00 -0.51973255161E+03  0.51973255162E+03  0.25500000000E-02 0.  1.
    8880022    1    1    2    0    0  0.57760322061E+03 -0.40700638714E+03  0.14362299079E+04  0.16079265161E+04  0.15294330000E+03 0.  0.
    8880022    1    1    2    0    0 -0.57760322061E+03  0.40700638714E+03 -0.13272596881E+03  0.73504252628E+03  0.15294330000E+03 0.  0.
<mgrwt>
<rscale>  0 0.72296012E+03</rscale>
<asrwt>0</asrwt>
<pdfrwt beam="1">  1        2 0.28049792E+00 0.72296012E+03</pdfrwt>
<pdfrwt beam="2">  1       -2 0.79958854E-01 0.72296012E+03</pdfrwt>
<totfact> 0.11998986E+01</totfact>
</mgrwt>
</event>
<event>
 4    1  0.4880711E-008  0.4669564E+03  0.7818608E-02  0.1022783E+00
          2   -1    0    0  501    0  0.00000000000E+00  0.00000000000E+00  0.14388596044E+04  0.14388596044E+04  0.25500000000E-02 0. -1.
         -2   -1    0    0    0  501 -0.00000000000E+00 -0.00000000000E+00 -0.34530851570E+03  0.34530851571E+03  0.25500000000E-02 0.  1.
    8880022    1    1    2    0    0 -0.38746406706E+03  0.21101718272E+03 -0.12147757889E+03  0.48249881850E+03  0.15294330000E+03 0.  0.
    8880022    1    1    2    0    0  0.38746406706E+03 -0.21101718272E+03  0.12150286676E+04  0.13016693016E+04  0.15294330000E+03 0.  0.
<mgrwt>
<rscale>  0 0.46695643E+03</rscale>
<asrwt>0</asrwt>
<pdfrwt beam="1">  1        2 0.22136302E+00 0.46695643E+03</pdfrwt>
<pdfrwt beam="2">  1       -2 0.53124387E-01 0.46695643E+03</pdfrwt>
<totfact> 0.48673314E+01</totfact>
</mgrwt>
</event>
<event>
 4    1  0.4880711E-008  0.1195396E+04  0.7818608E-02  0.9116896E-01
          2   -1    0    0  501    0  0.00000000000E+00  0.00000000000E+00  0.27764147639E+04  0.27764147639E+04  0.25500000000E-02 0. -1.
         -2   -1    0    0    0  501 -0.00000000000E+00 -0.00000000000E+00 -0.95863483894E+03  0.95863483894E+03  0.25500000000E-02 0.  1.
    8880022    1    1    2    0    0  0.10618534861E+04 -0.52730143435E+03 -0.36200041351E+03  0.12490058370E+04  0.15294330000E+03 0.  0.
    8880022    1    1    2    0    0 -0.10618534861E+04  0.52730143435E+03  0.21797803385E+04  0.24860437658E+04  0.15294330000E+03 0.  0.
<mgrwt>
<rscale>  0 0.11953959E+04</rscale>
<asrwt>0</asrwt>
<pdfrwt beam="1">  1        2 0.42714073E+00 0.11953959E+04</pdfrwt>
<pdfrwt beam="2">  1       -2 0.14748228E+00 0.11953959E+04</pdfrwt>
<totfact> 0.73545738E-01</totfact>
</mgrwt>
</event>
<event>
 4    1  0.4880711E-008  0.1118402E+04  0.7818608E-02  0.9187439E-01
         -2   -1    0    0    0  501 -0.00000000000E+00  0.00000000000E+00  0.50728319387E+03  0.50728319387E+03  0.25500000000E-02 0.  1.
          2   -1    0    0  501    0  0.00000000000E+00 -0.00000000000E+00 -0.39691488472E+04  0.39691488472E+04  0.25500000000E-02 0. -1.
    8880022    1    1    2    0    0 -0.90112355939E+03 -0.64452120406E+03 -0.31084386401E+04  0.33035153524E+04  0.15294330000E+03 0.  0.
    8880022    1    1    2    0    0  0.90112355939E+03  0.64452120406E+03 -0.35342701328E+03  0.11729166886E+04  0.15294330000E+03 0.  0.
<mgrwt>
<rscale>  0 0.11184019E+04</rscale>
<asrwt>0</asrwt>
<pdfrwt beam="1">  1        2 0.61063826E+00 0.11184019E+04</pdfrwt>
<pdfrwt beam="2">  1       -2 0.78043571E-01 0.11184019E+04</pdfrwt>
<totfact> 0.54512065E-01</totfact>
</mgrwt>
</event>
<event>
 4    1  0.4880711E-008  0.3276182E+03  0.7818608E-02  0.1072196E+00
          2   -1    0    0  501    0  0.00000000000E+00  0.00000000000E+00  0.66210361131E+03  0.66210361131E+03  0.25500000000E-02 0. -1.
         -2   -1    0    0    0  501 -0.00000000000E+00 -0.00000000000E+00 -0.20018356456E+04  0.20018356456E+04  0.25500000000E-02 0.  1.
    8880022    1    1    2    0    0 -0.99838999794E+02 -0.27198200745E+03 -0.19467652644E+04  0.19741399864E+04  0.15294330000E+03 0.  0.
    8880022    1    1    2    0    0  0.99838999794E+02  0.27198200745E+03  0.60703323005E+03  0.68979927055E+03  0.15294330000E+03 0. -1.
<mgrwt>
<rscale>  0 0.32761821E+03</rscale>
<asrwt>0</asrwt>
<pdfrwt beam="1">  1        2 0.10186209E+00 0.32761821E+03</pdfrwt>
<pdfrwt beam="2">  1       -2 0.30797471E+00 0.32761821E+03</pdfrwt>
<totfact> 0.14560307E+00</totfact>
</mgrwt>
</event>
<event>
 4    1  0.4880711E-008  0.7082265E+03  0.7818608E-02  0.9703266E-01
         -2   -1    0    0    0  501 -0.00000000000E+00  0.00000000000E+00  0.32895730689E+03  0.32895730690E+03  0.25500000000E-02 0.  1.
          2   -1    0    0  501    0  0.00000000000E+00 -0.00000000000E+00 -0.22944860488E+04  0.22944860488E+04  0.25500000000E-02 0. -1.
    8880022    1    1    2    0    0  0.67705115136E+03 -0.14069431010E+03 -0.17425022268E+04  0.18809303054E+04  0.15294330000E+03 0.  0.
    8880022    1    1    2    0    0 -0.67705115136E+03  0.14069431010E+03 -0.22302651521E+03  0.74251305036E+03  0.15294330000E+03 0.  0.
<mgrwt>
<rscale>  0 0.70822652E+03</rscale>
<asrwt>0</asrwt>
<pdfrwt beam="1">  1        2 0.35299784E+00 0.70822652E+03</pdfrwt>
<pdfrwt beam="2">  1       -2 0.50608818E-01 0.70822652E+03</pdfrwt>
<totfact> 0.17666707E+01</totfact>
</mgrwt>
</event>
<event>
 4    1  0.4880711E-008  0.3566019E+03  0.7818608E-02  0.1059937E+00
         -2   -1    0    0    0  501 -0.00000000000E+00  0.00000000000E+00  0.15010986003E+04  0.15010986003E+04  0.25500000000E-02 0.  1.
          2   -1    0    0  501    0  0.00000000000E+00 -0.00000000000E+00 -0.22475335346E+03  0.22475335348E+03  0.25500000000E-02 0. -1.
    8880022    1    1    2    0    0  0.10977584420E+03 -0.30285730767E+03 -0.42980263294E+02  0.35918274015E+03  0.15294330000E+03 0.  0.
    8880022    1    1    2    0    0 -0.10977584420E+03  0.30285730767E+03  0.13193255101E+04  0.13666692136E+04  0.15294330000E+03 0.  0.
<mgrwt>
<rscale>  0 0.35660193E+03</rscale>
<asrwt>0</asrwt>
<pdfrwt beam="1">  1        2 0.34577439E-01 0.35660193E+03</pdfrwt>
<pdfrwt beam="2">  1       -2 0.23093825E+00 0.35660193E+03</pdfrwt>
<totfact> 0.13778415E+01</totfact>
</mgrwt>
</event>
<event>
 4    1  0.4880711E-008  0.2399917E+03  0.7818608E-02  0.1119798E+00
         -2   -1    0    0    0  501 -0.00000000000E+00  0.00000000000E+00  0.41460901289E+03  0.41460901290E+03  0.25500000000E-02 0.  1.
          2   -1    0    0  501    0  0.00000000000E+00 -0.00000000000E+00 -0.71038121410E+03  0.71038121411E+03  0.25500000000E-02 0. -1.
    8880022    1    1    2    0    0 -0.12275168372E+02 -0.18453636959E+03 -0.65239375038E+03  0.69513567741E+03  0.15294330000E+03 0. -1.
    8880022    1    1    2    0    0  0.12275168372E+02  0.18453636959E+03  0.35662154917E+03  0.42985454960E+03  0.15294330000E+03 0.  0.
<mgrwt>
<rscale>  0 0.23999168E+03</rscale>
<asrwt>0</asrwt>
<pdfrwt beam="1">  1        2 0.10928942E+00 0.23999168E+03</pdfrwt>
<pdfrwt beam="2">  1       -2 0.63786002E-01 0.23999168E+03</pdfrwt>
<totfact> 0.97527609E+01</totfact>
</mgrwt>
</event>
<event>
 4    1  0.4880711E-008  0.1516023E+04  0.7818608E-02  0.8873867E-01
          2   -1    0    0  501    0  0.00000000000E+00  0.00000000000E+00  0.32104579268E+04  0.32104579268E+04  0.25500000000E-02 0. -1.
         -2   -1    0    0    0  501 -0.00000000000E+00 -0.00000000000E+00 -0.75675555061E+03  0.75675555061E+03  0.25500000000E-02 0.  1.
    8880022    1    1    2    0    0  0.15082602375E+04  0.91608057329E+01  0.76588046934E+03  0.16984985754E+04  0.15294330000E+03 0.  0.
    8880022    1    1    2    0    0 -0.15082602375E+04 -0.91608057329E+01  0.16878219069E+04  0.22687149020E+04  0.15294330000E+03 0.  0.
<mgrwt>
<rscale>  0 0.15160226E+04</rscale>
<asrwt>0</asrwt>
<pdfrwt beam="1">  1        2 0.49391660E+00 0.15160226E+04</pdfrwt>
<pdfrwt beam="2">  1       -2 0.11642393E+00 0.15160226E+04</pdfrwt>
<totfact> 0.69642955E-01</totfact>
</mgrwt>
</event>
<event>
 4    1  0.4880711E-008  0.1663689E+04  0.7818608E-02  0.8782349E-01
         -2   -1    0    0    0  501 -0.00000000000E+00  0.00000000000E+00  0.10015510749E+04  0.10015510749E+04  0.25500000000E-02 0.  1.
          2   -1    0    0  501    0  0.00000000000E+00 -0.00000000000E+00 -0.39480030287E+04  0.39480030287E+04  0.25500000000E-02 0. -1.
    8880022    1    1    2    0    0  0.63050124006E+03  0.15319723425E+04 -0.28287320186E+04  0.32817049773E+04  0.15294330000E+03 0.  0.
    8880022    1    1    2    0    0 -0.63050124006E+03 -0.15319723425E+04 -0.11771993527E+03  0.16678491263E+04  0.15294330000E+03 0.  0.
<mgrwt>
<rscale>  0 0.16636895E+04</rscale>
<asrwt>0</asrwt>
<pdfrwt beam="1">  1        2 0.60738507E+00 0.16636895E+04</pdfrwt>
<pdfrwt beam="2">  1       -2 0.15408478E+00 0.16636895E+04</pdfrwt>
<totfact> 0.98665648E-02</totfact>
</mgrwt>
</event>
<event>
 4    1  0.4880711E-008  0.3666041E+03  0.7818608E-02  0.1055999E+00
         -2   -1    0    0    0  501 -0.00000000000E+00  0.00000000000E+00  0.39130449057E+03  0.39130449058E+03  0.25500000000E-02 0.  1.
          2   -1    0    0  501    0  0.00000000000E+00 -0.00000000000E+00 -0.11360135354E+04  0.11360135354E+04  0.25500000000E-02 0. -1.
    8880022    1    1    2    0    0 -0.28674210953E+03  0.16966410125E+03  0.26549938797E+03  0.45264613404E+03  0.15294330000E+03 0.  1.
    8880022    1    1    2    0    0  0.28674210953E+03 -0.16966410125E+03 -0.10102084328E+04  0.10746718919E+04  0.15294330000E+03 0.  0.
<mgrwt>
<rscale>  0 0.36660414E+03</rscale>
<asrwt>0</asrwt>
<pdfrwt beam="1">  1        2 0.17477131E+00 0.36660414E+03</pdfrwt>
<pdfrwt beam="2">  1       -2 0.60200691E-01 0.36660414E+03</pdfrwt>
<totfact> 0.56829208E+01</totfact>
</mgrwt>
</event>
<event>
 4    1  0.4880711E-008  0.4632739E+03  0.7818608E-02  0.1023836E+00
         -2   -1    0    0    0  501 -0.00000000000E+00  0.00000000000E+00  0.65330275900E+03  0.65330275900E+03  0.25500000000E-02 0.  1.
          2   -1    0    0  501    0  0.00000000000E+00 -0.00000000000E+00 -0.17550963011E+04  0.17550963011E+04  0.25500000000E-02 0. -1.
    8880022    1    1    2    0    0  0.21933084260E+03 -0.37831866466E+03  0.53476753463E+03  0.70753021113E+03  0.15294330000E+03 0.  0.
    8880022    1    1    2    0    0 -0.21933084260E+03  0.37831866466E+03 -0.16365610767E+04  0.17008688489E+04  0.15294330000E+03 0.  0.
<mgrwt>
<rscale>  0 0.46327388E+03</rscale>
<asrwt>0</asrwt>
<pdfrwt beam="1">  1        2 0.27001481E+00 0.46327388E+03</pdfrwt>
<pdfrwt beam="2">  1       -2 0.10050812E+00 0.46327388E+03</pdfrwt>
<totfact> 0.81127737E+00</totfact>
</mgrwt>
</event>
<event>
 4    1  0.4880711E-008  0.2218643E+03  0.7818608E-02  0.1132501E+00
         -2   -1    0    0    0  501 -0.00000000000E+00  0.00000000000E+00  0.22217031691E+03  0.22217031692E+03  0.25500000000E-02 0.  1.
          2   -1    0    0  501    0  0.00000000000E+00 -0.00000000000E+00 -0.39073403508E+03  0.39073403509E+03  0.25500000000E-02 0. -1.
    8880022    1    1    2    0    0 -0.14458582568E+03  0.70193109886E+02 -0.28592826932E+03  0.36190988087E+03  0.15294330000E+03 0.  0.
    8880022    1    1    2    0    0  0.14458582568E+03 -0.70193109886E+02  0.11736455114E+03  0.25099447114E+03  0.15294330000E+03 0.  1.
<mgrwt>
<rscale>  0 0.22186434E+03</rscale>
<asrwt>0</asrwt>
<pdfrwt beam="1">  1        2 0.60112929E-01 0.22186434E+03</pdfrwt>
<pdfrwt beam="2">  1       -2 0.34180049E-01 0.22186434E+03</pdfrwt>
<totfact> 0.66006082E+02</totfact>
</mgrwt>
</event>
<event>
 4    1  0.4880711E-008  0.6812482E+03  0.7818608E-02  0.9749849E-01
          2   -1    0    0  501    0  0.00000000000E+00  0.00000000000E+00  0.17793115025E+04  0.17793115025E+04  0.25500000000E-02 0. -1.
         -2   -1    0    0    0  501 -0.00000000000E+00 -0.00000000000E+00 -0.38461147816E+03  0.38461147817E+03  0.25500000000E-02 0.  1.
    8880022    1    1    2    0    0 -0.64627165939E+03 -0.15179058662E+03  0.13111505426E+04  0.14775705866E+04  0.15294330000E+03 0. -1.
    8880022    1    1    2    0    0  0.64627165939E+03  0.15179058662E+03  0.83549481680E+02  0.68635239405E+03  0.15294330000E+03 0.  0.
<mgrwt>
<rscale>  0 0.68124819E+03</rscale>
<asrwt>0</asrwt>
<pdfrwt beam="1">  1        2 0.27374024E+00 0.68124819E+03</pdfrwt>
<pdfrwt beam="2">  1       -2 0.59170996E-01 0.68124819E+03</pdfrwt>
<totfact> 0.24539959E+01</totfact>
</mgrwt>
</event>
<event>
 4    1  0.4880711E-008  0.3867088E+03  0.7818608E-02  0.1048482E+00
          2   -1    0    0  501    0  0.00000000000E+00  0.00000000000E+00  0.28125646189E+04  0.28125646189E+04  0.25500000000E-02 0. -1.
         -2   -1    0    0    0  501 -0.00000000000E+00 -0.00000000000E+00 -0.13213762239E+03  0.13213762242E+03  0.25500000000E-02 0.  1.
    8880022    1    1    2    0    0  0.34227401044E+03 -0.94871009230E+02  0.20200173279E+03  0.43628930732E+03  0.15294330000E+03 0.  0.
    8880022    1    1    2    0    0 -0.34227401044E+03  0.94871009230E+02  0.24784252638E+04  0.25084129340E+04  0.15294330000E+03 0.  0.
<mgrwt>
<rscale>  0 0.38670875E+03</rscale>
<asrwt>0</asrwt>
<pdfrwt beam="1">  1        2 0.43270223E+00 0.38670875E+03</pdfrwt>
<pdfrwt beam="2">  1       -2 0.20328866E-01 0.38670875E+03</pdfrwt>
<totfact> 0.53079181E+01</totfact>
</mgrwt>
</event>
<event>
 4    1  0.4880711E-008  0.8437828E+03  0.7818608E-02  0.9498720E-01
          2   -1    0    0  501    0  0.00000000000E+00  0.00000000000E+00  0.16680434887E+04  0.16680434887E+04  0.25500000000E-02 0. -1.
         -2   -1    0    0    0  501 -0.00000000000E+00 -0.00000000000E+00 -0.53785287503E+03  0.53785287503E+03  0.25500000000E-02 0.  1.
    8880022    1    1    2    0    0 -0.26379993312E+03  0.78675752958E+03  0.10662033755E+04  0.13596908126E+04  0.15294330000E+03 0.  0.
    8880022    1    1    2    0    0  0.26379993312E+03 -0.78675752958E+03  0.63987238201E+02  0.84620555111E+03  0.15294330000E+03 0.  0.
<mgrwt>
<rscale>  0 0.84378283E+03</rscale>
<asrwt>0</asrwt>
<pdfrwt beam="1">  1        2 0.25662207E+00 0.84378283E+03</pdfrwt>
<pdfrwt beam="2">  1       -2 0.82746599E-01 0.84378283E+03</pdfrwt>
<totfact> 0.13288233E+01</totfact>
</mgrwt>
</event>
<event>
 4    1  0.4880711E-008  0.6219760E+03  0.7818608E-02  0.9860833E-01
          2   -1    0    0  501    0  0.00000000000E+00  0.00000000000E+00  0.20048954038E+04  0.20048954038E+04  0.25500000000E-02 0. -1.
         -2   -1    0    0    0  501 -0.00000000000E+00 -0.00000000000E+00 -0.13160139653E+04  0.13160139653E+04  0.25500000000E-02 0.  1.
    8880022    1    1    2    0    0  0.53025864368E+03  0.28685932479E+03 -0.11894630005E+04  0.13422653925E+04  0.15294330000E+03 0.  0.
    8880022    1    1    2    0    0 -0.53025864368E+03 -0.28685932479E+03  0.18783444390E+04  0.19786439765E+04  0.15294330000E+03 0.  0.
<mgrwt>
<rscale>  0 0.62197601E+03</rscale>
<asrwt>0</asrwt>
<pdfrwt beam="1">  1        2 0.30844545E+00 0.62197601E+03</pdfrwt>
<pdfrwt beam="2">  1       -2 0.20246369E+00 0.62197601E+03</pdfrwt>
<totfact> 0.91509486E-01</totfact>
</mgrwt>
</event>
<event>
 4    1  0.4880711E-008  0.2921104E+03  0.7818608E-02  0.1089252E+00
          2   -1    0    0  501    0  0.00000000000E+00  0.00000000000E+00  0.37309805146E+03  0.37309805146E+03  0.25500000000E-02 0. -1.
         -2   -1    0    0    0  501 -0.00000000000E+00 -0.00000000000E+00 -0.11698470879E+04  0.11698470879E+04  0.25500000000E-02 0.  1.
    8880022    1    1    2    0    0 -0.95652151368E+02  0.22975529866E+03 -0.10903394695E+04  0.11287907880E+04  0.15294330000E+03 0.  0.
    8880022    1    1    2    0    0  0.95652151368E+02 -0.22975529866E+03  0.29359043308E+03  0.41415435134E+03  0.15294330000E+03 0. -1.
<mgrwt>
<rscale>  0 0.29211040E+03</rscale>
<asrwt>0</asrwt>
<pdfrwt beam="1">  1        2 0.57399701E-01 0.29211040E+03</pdfrwt>
<pdfrwt beam="2">  1       -2 0.17997647E+00 0.29211040E+03</pdfrwt>
<totfact> 0.16870344E+01</totfact>
</mgrwt>
</event>
<event>
 4    1  0.4880711E-008  0.3299474E+03  0.7818608E-02  0.1071160E+00
          2   -1    0    0  501    0  0.00000000000E+00  0.00000000000E+00  0.28928588861E+04  0.28928588861E+04  0.25500000000E-02 0. -1.
         -2   -1    0    0    0  501 -0.00000000000E+00 -0.00000000000E+00 -0.18986126527E+03  0.18986126528E+03  0.25500000000E-02 0.  1.
    8880022    1    1    2    0    0 -0.28972268311E+03 -0.39171500704E+02 -0.28676934659E+02  0.33119127279E+03  0.15294330000E+03 0.  0.
    8880022    1    1    2    0    0  0.28972268311E+03  0.39171500704E+02  0.27316745555E+04  0.27515288786E+04  0.15294330000E+03 0.  0.
<mgrwt>
<rscale>  0 0.32994741E+03</rscale>
<asrwt>0</asrwt>
<pdfrwt beam="1">  1        2 0.44505520E+00 0.32994741E+03</pdfrwt>
<pdfrwt beam="2">  1       -2 0.29209426E-01 0.32994741E+03</pdfrwt>
<totfact> 0.25507376E+01</totfact>
</mgrwt>
</event>
<event>
 4    1  0.4880711E-008  0.4651058E+03  0.7818608E-02  0.1023311E+00
          2   -1    0    0  501    0  0.00000000000E+00  0.00000000000E+00  0.14984232975E+04  0.14984232975E+04  0.25500000000E-02 0. -1.
         -2   -1    0    0    0  501 -0.00000000000E+00 -0.00000000000E+00 -0.43461453082E+03  0.43461453083E+03  0.25500000000E-02 0.  1.
    8880022    1    1    2    0    0  0.82254398133E+02 -0.43146951360E+03 -0.25794130441E+03  0.53184311288E+03  0.15294330000E+03 0.  0.
    8880022    1    1    2    0    0 -0.82254398133E+02  0.43146951360E+03  0.13217500711E+04  0.14011947154E+04  0.15294330000E+03 0.  0.
<mgrwt>
<rscale>  0 0.46510577E+03</rscale>
<asrwt>0</asrwt>
<pdfrwt beam="1">  1        2 0.23052666E+00 0.46510577E+03</pdfrwt>
<pdfrwt beam="2">  1       -2 0.66863775E-01 0.46510577E+03</pdfrwt>
<totfact> 0.27888192E+01</totfact>
</mgrwt>
</event>
<event>
 4    1  0.4880711E-008  0.3478572E+03  0.7818608E-02  0.1063498E+00
         -2   -1    0    0    0  501 -0.00000000000E+00  0.00000000000E+00  0.30483948283E+03  0.30483948284E+03  0.25500000000E-02 0.  1.
          2   -1    0    0  501    0  0.00000000000E+00 -0.00000000000E+00 -0.12089841909E+04  0.12089841909E+04  0.25500000000E-02 0. -1.
    8880022    1    1    2    0    0  0.16229883145E+03  0.26696834882E+03 -0.10724031548E+04  0.11274099474E+04  0.15294330000E+03 0.  0.
    8880022    1    1    2    0    0 -0.16229883145E+03 -0.26696834882E+03  0.16825844678E+03  0.38641372633E+03  0.15294330000E+03 0.  1.
<mgrwt>
<rscale>  0 0.34785725E+03</rscale>
<asrwt>0</asrwt>
<pdfrwt beam="1">  1        2 0.18599757E+00 0.34785725E+03</pdfrwt>
<pdfrwt beam="2">  1       -2 0.46898383E-01 0.34785725E+03</pdfrwt>
<totfact> 0.86016201E+01</totfact>
</mgrwt>
</event>
<event>
 4    1  0.4880711E-008  0.3365069E+03  0.7818608E-02  0.1068294E+00
         -2   -1    0    0    0  501 -0.00000000000E+00  0.00000000000E+00  0.23671144868E+03  0.23671144869E+03  0.25500000000E-02 0.  1.
          2   -1    0    0  501    0  0.00000000000E+00 -0.00000000000E+00 -0.13340019571E+04  0.13340019571E+04  0.25500000000E-02 0. -1.
    8880022    1    1    2    0    0  0.32187707306E+02  0.29800869070E+03  0.80326156963E+02  0.34596123011E+03  0.15294330000E+03 0.  0.
    8880022    1    1    2    0    0 -0.32187707306E+02 -0.29800869070E+03 -0.11776166654E+04  0.12247521757E+04  0.15294330000E+03 0. -1.
<mgrwt>
<rscale>  0 0.33650688E+03</rscale>
<asrwt>0</asrwt>
<pdfrwt beam="1">  1        2 0.20523107E+00 0.33650688E+03</pdfrwt>
<pdfrwt beam="2">  1       -2 0.36417147E-01 0.33650688E+03</pdfrwt>
<totfact> 0.11960728E+02</totfact>
</mgrwt>
</event>
<event>
 4    1  0.4880711E-008  0.4356107E+03  0.7818608E-02  0.1032102E+00
          2   -1    0    0  501    0  0.00000000000E+00  0.00000000000E+00  0.68893338255E+03  0.68893338255E+03  0.25500000000E-02 0. -1.
         -2   -1    0    0    0  501 -0.00000000000E+00 -0.00000000000E+00 -0.60402041878E+03  0.60402041878E+03  0.25500000000E-02 0.  1.
    8880022    1    1    2    0    0 -0.40647419458E+03  0.33819274649E+02  0.51927274150E+03  0.67779115314E+03  0.15294330000E+03 0.  0.
    8880022    1    1    2    0    0  0.40647419458E+03 -0.33819274649E+02 -0.43435977774E+03  0.61516264819E+03  0.15294330000E+03 0.  0.
<mgrwt>
<rscale>  0 0.43561068E+03</rscale>
<asrwt>0</asrwt>
<pdfrwt beam="1">  1        2 0.10598975E+00 0.43561068E+03</pdfrwt>
<pdfrwt beam="2">  1       -2 0.92926219E-01 0.43561068E+03</pdfrwt>
<totfact> 0.42897396E+01</totfact>
</mgrwt>
</event>
<event>
 4    1  0.4880711E-008  0.4510607E+03  0.7818608E-02  0.1027406E+00
         -2   -1    0    0    0  501 -0.00000000000E+00  0.00000000000E+00  0.11477628981E+03  0.11477628984E+03  0.25500000000E-02 0.  1.
          2   -1    0    0  501    0  0.00000000000E+00 -0.00000000000E+00 -0.37817199102E+04  0.37817199102E+04  0.25500000000E-02 0. -1.
    8880022    1    1    2    0    0  0.32287231594E+03  0.27534989714E+03 -0.41343565283E+03  0.61186991289E+03  0.15294330000E+03 0.  1.
    8880022    1    1    2    0    0 -0.32287231594E+03 -0.27534989714E+03 -0.32535079676E+04  0.32846262872E+04  0.15294330000E+03 0.  0.
<mgrwt>
<rscale>  0 0.45106070E+03</rscale>
<asrwt>0</asrwt>
<pdfrwt beam="1">  1        2 0.58180297E+00 0.45106070E+03</pdfrwt>
<pdfrwt beam="2">  1       -2 0.17657894E-01 0.45106070E+03</pdfrwt>
<totfact> 0.15763323E+01</totfact>
</mgrwt>
</event>
<event>
 4    1  0.4880711E-008  0.3108848E+03  0.7818608E-02  0.1079923E+00
         -2   -1    0    0    0  501 -0.00000000000E+00  0.00000000000E+00  0.68246830325E+02  0.68246830373E+02  0.25500000000E-02 0.  1.
          2   -1    0    0  501    0  0.00000000000E+00 -0.00000000000E+00 -0.14392016364E+04  0.14392016364E+04  0.25500000000E-02 0. -1.
    8880022    1    1    2    0    0 -0.17173185922E+03  0.20920294793E+03 -0.78081853846E+03  0.84043259570E+03  0.15294330000E+03 0.  0.
    8880022    1    1    2    0    0  0.17173185922E+03 -0.20920294793E+03 -0.59013626762E+03  0.66701587108E+03  0.15294330000E+03 0.  0.
<mgrwt>
<rscale>  0 0.31088480E+03</rscale>
<asrwt>0</asrwt>
<pdfrwt beam="1">  1        2 0.22141561E+00 0.31088480E+03</pdfrwt>
<pdfrwt beam="2">  1       -2 0.10499513E-01 0.31088480E+03</pdfrwt>
<totfact> 0.90198995E+02</totfact>
</mgrwt>
</event>
<event>
 4    1  0.4880711E-008  0.3963478E+03  0.7818608E-02  0.1045052E+00
         -2   -1    0    0    0  501 -0.00000000000E+00  0.00000000000E+00  0.11891263567E+03  0.11891263569E+03  0.25500000000E-02 0.  1.
          2   -1    0    0  501    0  0.00000000000E+00 -0.00000000000E+00 -0.25816255310E+04  0.25816255310E+04  0.25500000000E-02 0. -1.
    8880022    1    1    2    0    0 -0.35008595300E+03 -0.10554500906E+03 -0.21748852948E+04  0.22107052319E+04  0.15294330000E+03 0.  0.
    8880022    1    1    2    0    0  0.35008595300E+03  0.10554500906E+03 -0.28782760048E+03  0.48983293483E+03  0.15294330000E+03 0.  0.
<mgrwt>
<rscale>  0 0.39634780E+03</rscale>
<asrwt>0</asrwt>
<pdfrwt beam="1">  1        2 0.39717312E+00 0.39634780E+03</pdfrwt>
<pdfrwt beam="2">  1       -2 0.18294254E-01 0.39634780E+03</pdfrwt>
<totfact> 0.85980547E+01</totfact>
</mgrwt>
</event>
<event>
 4    1  0.4880711E-008  0.2849280E+03  0.7818608E-02  0.1093027E+00
         -2   -1    0    0    0  501 -0.00000000000E+00  0.00000000000E+00  0.11781510901E+03  0.11781510904E+03  0.25500000000E-02 0.  1.
          2   -1    0    0  501    0  0.00000000000E+00 -0.00000000000E+00 -0.73183876774E+03  0.73183876775E+03  0.25500000000E-02 0. -1.
    8880022    1    1    2    0    0  0.24023611429E+03 -0.88845881135E+01 -0.20432391397E+03  0.35061694390E+03  0.15294330000E+03 0.  0.
    8880022    1    1    2    0    0 -0.24023611429E+03  0.88845881135E+01 -0.40969974476E+03  0.49903693288E+03  0.15294330000E+03 0.  0.
<mgrwt>
<rscale>  0 0.28492803E+03</rscale>
<asrwt>0</asrwt>
<pdfrwt beam="1">  1        2 0.11259058E+00 0.28492803E+03</pdfrwt>
<pdfrwt beam="2">  1       -2 0.18125402E-01 0.28492803E+03</pdfrwt>
<totfact> 0.98981523E+02</totfact>
</mgrwt>
</event>
<event>
 4    1  0.4880711E-008  0.4304939E+03  0.7818608E-02  0.1033704E+00
         -2   -1    0    0    0  501 -0.00000000000E+00  0.00000000000E+00  0.72543791437E+03  0.72543791438E+03  0.25500000000E-02 0.  1.
          2   -1    0    0  501    0  0.00000000000E+00 -0.00000000000E+00 -0.92265223796E+03  0.92265223797E+03  0.25500000000E-02 0. -1.
    8880022    1    1    2    0    0 -0.10585437401E+03  0.38823726383E+03  0.60213036427E+03  0.74019318432E+03  0.15294330000E+03 0.  0.
    8880022    1    1    2    0    0  0.10585437401E+03 -0.38823726383E+03 -0.79934468786E+03  0.90789696802E+03  0.15294330000E+03 0.  0.
<mgrwt>
<rscale>  0 0.43049387E+03</rscale>
<asrwt>0</asrwt>
<pdfrwt beam="1">  1        2 0.14194650E+00 0.43049387E+03</pdfrwt>
<pdfrwt beam="2">  1       -2 0.11160583E+00 0.43049387E+03</pdfrwt>
<totfact> 0.19048768E+01</totfact>
</mgrwt>
</event>
<event>
 4    1  0.4880711E-008  0.1904220E+03  0.7818608E-02  0.1158081E+00
         -2   -1    0    0    0  501 -0.00000000000E+00  0.00000000000E+00  0.28897195915E+03  0.28897195916E+03  0.25500000000E-02 0.  1.
          2   -1    0    0  501    0  0.00000000000E+00 -0.00000000000E+00 -0.14333939219E+04  0.14333939219E+04  0.25500000000E-02 0. -1.
    8880022    1    1    2    0    0  0.15266276140E+02  0.11240925609E+03 -0.13948361979E+04  0.14077743328E+04  0.15294330000E+03 0. -1.
    8880022    1    1    2    0    0 -0.15266276140E+02 -0.11240925609E+03  0.25041423518E+03  0.31459154826E+03  0.15294330000E+03 0.  0.
<mgrwt>
<rscale>  0 0.19042204E+03</rscale>
<asrwt>0</asrwt>
<pdfrwt beam="1">  1        2 0.22052214E+00 0.19042204E+03</pdfrwt>
<pdfrwt beam="2">  1       -2 0.44457226E-01 0.19042204E+03</pdfrwt>
<totfact> 0.74797058E+01</totfact>
</mgrwt>
</event>
<event>
 4    1  0.4880711E-008  0.5010177E+03  0.7818608E-02  0.1013514E+00
         -2   -1    0    0    0  501 -0.00000000000E+00  0.00000000000E+00  0.37011525432E+03  0.37011525433E+03  0.25500000000E-02 0.  1.
          2   -1    0    0  501    0  0.00000000000E+00 -0.00000000000E+00 -0.13902147014E+04  0.13902147014E+04  0.25500000000E-02 0. -1.
    8880022    1    1    2    0    0  0.27939022735E+03  0.38674044396E+03 -0.11399361101E+04  0.12451799300E+04  0.15294330000E+03 0.  0.
    8880022    1    1    2    0    0 -0.27939022735E+03 -0.38674044396E+03  0.11983666300E+03  0.51515002567E+03  0.15294330000E+03 0.  0.
<mgrwt>
<rscale>  0 0.50101769E+03</rscale>
<asrwt>0</asrwt>
<pdfrwt beam="1">  1        2 0.21387918E+00 0.50101769E+03</pdfrwt>
<pdfrwt beam="2">  1       -2 0.56940809E-01 0.50101769E+03</pdfrwt>
<totfact> 0.44646530E+01</totfact>
</mgrwt>
</event>
<event>
 4    1  0.4880711E-008  0.4018462E+03  0.7818608E-02  0.1043142E+00
         -2   -1    0    0    0  501 -0.00000000000E+00  0.00000000000E+00  0.29752732467E+03  0.29752732468E+03  0.25500000000E-02 0.  1.
          2   -1    0    0  501    0  0.00000000000E+00 -0.00000000000E+00 -0.18692302168E+04  0.18692302168E+04  0.25500000000E-02 0. -1.
    8880022    1    1    2    0    0 -0.33679860377E+03  0.15702047308E+03 -0.16984940309E+04  0.17453831541E+04  0.15294330000E+03 0.  0.
    8880022    1    1    2    0    0  0.33679860377E+03 -0.15702047308E+03  0.12679113878E+03  0.42137438740E+03  0.15294330000E+03 0.  1.
<mgrwt>
<rscale>  0 0.40184622E+03</rscale>
<asrwt>0</asrwt>
<pdfrwt beam="1">  1        2 0.28757387E+00 0.40184622E+03</pdfrwt>
<pdfrwt beam="2">  1       -2 0.45773435E-01 0.40184622E+03</pdfrwt>
<totfact> 0.38973127E+01</totfact>
</mgrwt>
</event>
<event>
 4    1  0.4880711E-008  0.5207068E+03  0.7818608E-02  0.1008511E+00
         -2   -1    0    0    0  501 -0.00000000000E+00  0.00000000000E+00  0.10016396358E+04  0.10016396358E+04  0.25500000000E-02 0.  1.
          2   -1    0    0  501    0  0.00000000000E+00 -0.00000000000E+00 -0.17869002610E+04  0.17869002610E+04  0.25500000000E-02 0. -1.
    8880022    1    1    2    0    0  0.46479461204E+03 -0.17807280060E+03 -0.16769589690E+04  0.17559404860E+04  0.15294330000E+03 0.  0.
    8880022    1    1    2    0    0 -0.46479461204E+03  0.17807280060E+03  0.89169834379E+03  0.10325994107E+04  0.15294330000E+03 0.  0.
<mgrwt>
<rscale>  0 0.52070683E+03</rscale>
<asrwt>0</asrwt>
<pdfrwt beam="1">  1        2 0.27490773E+00 0.52070683E+03</pdfrwt>
<pdfrwt beam="2">  1       -2 0.15409841E+00 0.52070683E+03</pdfrwt>
<totfact> 0.26527739E+00</totfact>
</mgrwt>
</event>
<event>
 4    1  0.4880711E-008  0.6183831E+03  0.7818608E-02  0.9867984E-01
         -2   -1    0    0    0  501 -0.00000000000E+00  0.00000000000E+00  0.26225135650E+03  0.26225135651E+03  0.25500000000E-02 0.  1.
          2   -1    0    0  501    0  0.00000000000E+00 -0.00000000000E+00 -0.45875381535E+04  0.45875381535E+04  0.25500000000E-02 0. -1.
    8880022    1    1    2    0    0  0.51647974477E+03  0.30373461864E+03 -0.15986058464E+03  0.63871206725E+03  0.15294330000E+03 0.  0.
    8880022    1    1    2    0    0 -0.51647974477E+03 -0.30373461864E+03 -0.41654262124E+04  0.42110774428E+04  0.15294330000E+03 0.  0.
<mgrwt>
<rscale>  0 0.61838313E+03</rscale>
<asrwt>0</asrwt>
<pdfrwt beam="1">  1        2 0.70577504E+00 0.61838313E+03</pdfrwt>
<pdfrwt beam="2">  1       -2 0.40346366E-01 0.61838313E+03</pdfrwt>
<totfact> 0.69811751E-01</totfact>
</mgrwt>
</event>
<event>
 4    1  0.4880711E-008  0.4319620E+03  0.7818608E-02  0.1033242E+00
         -2   -1    0    0    0  501 -0.00000000000E+00  0.00000000000E+00  0.82367959718E+02  0.82367959758E+02  0.25500000000E-02 0.  1.
          2   -1    0    0  501    0  0.00000000000E+00 -0.00000000000E+00 -0.31119950532E+04  0.31119950532E+04  0.25500000000E-02 0. -1.
    8880022    1    1    2    0    0  0.22485710586E+03 -0.33561707671E+03 -0.68172948519E+03  0.80706027299E+03  0.15294330000E+03 0.  0.
    8880022    1    1    2    0    0 -0.22485710586E+03  0.33561707671E+03 -0.23478976082E+04  0.23873027399E+04  0.15294330000E+03 0.  0.
<mgrwt>
<rscale>  0 0.43196203E+03</rscale>
<asrwt>0</asrwt>
<pdfrwt beam="1">  1        2 0.47876838E+00 0.43196203E+03</pdfrwt>
<pdfrwt beam="2">  1       -2 0.12671996E-01 0.43196203E+03</pdfrwt>
<totfact> 0.77143369E+01</totfact>
</mgrwt>
</event>
<event>
 4    1  0.4880711E-008  0.3668850E+03  0.7818608E-02  0.1055890E+00
          2   -1    0    0  501    0  0.00000000000E+00  0.00000000000E+00  0.92662762997E+03  0.92662762997E+03  0.25500000000E-02 0. -1.
         -2   -1    0    0    0  501 -0.00000000000E+00 -0.00000000000E+00 -0.39441410695E+03  0.39441410695E+03  0.25500000000E-02 0.  1.
    8880022    1    1    2    0    0 -0.32349020043E+03 -0.81037456900E+02 -0.25887208757E+03  0.44902047830E+03  0.15294330000E+03 0.  0.
    8880022    1    1    2    0    0  0.32349020043E+03  0.81037456900E+02  0.79108561059E+03  0.87202125862E+03  0.15294330000E+03 0.  0.
<mgrwt>
<rscale>  0 0.36688504E+03</rscale>
<asrwt>0</asrwt>
<pdfrwt beam="1">  1        2 0.14255810E+00 0.36688504E+03</pdfrwt>
<pdfrwt beam="2">  1       -2 0.60679094E-01 0.36688504E+03</pdfrwt>
<totfact> 0.75172413E+01</totfact>
</mgrwt>
</event>
<event>
 4    1  0.4880711E-008  0.1167926E+04  0.7818608E-02  0.9141403E-01
         -2   -1    0    0    0  501 -0.00000000000E+00  0.00000000000E+00  0.75614559200E+03  0.75614559201E+03  0.25500000000E-02 0.  1.
          2   -1    0    0  501    0  0.00000000000E+00 -0.00000000000E+00 -0.24195191728E+04  0.24195191728E+04  0.25500000000E-02 0. -1.
    8880022    1    1    2    0    0 -0.44959311421E+03 -0.10670176307E+04 -0.16325843377E+04  0.20073325248E+04  0.15294330000E+03 0.  0.
    8880022    1    1    2    0    0  0.44959311421E+03  0.10670176307E+04 -0.30789243157E+02  0.11683322400E+04  0.15294330000E+03 0.  0.
<mgrwt>
<rscale>  0 0.11679265E+04</rscale>
<asrwt>0</asrwt>
<pdfrwt beam="1">  1        2 0.37223372E+00 0.11679265E+04</pdfrwt>
<pdfrwt beam="2">  1       -2 0.11633009E+00 0.11679265E+04</pdfrwt>
<totfact> 0.21856381E+00</totfact>
</mgrwt>
</event>
<event>
 4    1  0.4880711E-008  0.4649267E+03  0.7818608E-02  0.1023362E+00
          2   -1    0    0  501    0  0.00000000000E+00  0.00000000000E+00  0.17640810298E+04  0.17640810298E+04  0.25500000000E-02 0. -1.
         -2   -1    0    0    0  501 -0.00000000000E+00 -0.00000000000E+00 -0.16293361589E+03  0.16293361591E+03  0.25500000000E-02 0.  1.
    8880022    1    1    2    0    0 -0.42084117214E+03  0.12513149303E+03  0.32078762966E+03  0.56485532580E+03  0.15294330000E+03 0.  0.
    8880022    1    1    2    0    0  0.42084117214E+03 -0.12513149303E+03  0.12803597842E+04  0.13621593199E+04  0.15294330000E+03 0.  0.
<mgrwt>
<rscale>  0 0.46492670E+03</rscale>
<asrwt>0</asrwt>
<pdfrwt beam="1">  1        2 0.27139708E+00 0.46492670E+03</pdfrwt>
<pdfrwt beam="2">  1       -2 0.25066710E-01 0.46492670E+03</pdfrwt>
<totfact> 0.13596334E+02</totfact>
</mgrwt>
</event>
<event>
 4    1  0.4880711E-008  0.3117575E+03  0.7818608E-02  0.1079507E+00
          2   -1    0    0  501    0  0.00000000000E+00  0.00000000000E+00  0.15415883722E+04  0.15415883722E+04  0.25500000000E-02 0. -1.
         -2   -1    0    0    0  501 -0.00000000000E+00 -0.00000000000E+00 -0.95974330560E+02  0.95974330594E+02  0.25500000000E-02 0.  1.
    8880022    1    1    2    0    0 -0.18258277430E+03 -0.20115821219E+03  0.12023943372E+04  0.12421533283E+04  0.15294330000E+03 0.  0.
    8880022    1    1    2    0    0  0.18258277430E+03  0.20115821219E+03  0.24321970440E+03  0.39540937448E+03  0.15294330000E+03 0.  0.
<mgrwt>
<rscale>  0 0.31175752E+03</rscale>
<asrwt>0</asrwt>
<pdfrwt beam="1">  1        2 0.23716746E+00 0.31175752E+03</pdfrwt>
<pdfrwt beam="2">  1       -2 0.14765281E-01 0.31175752E+03</pdfrwt>
<totfact> 0.45504765E+02</totfact>
</mgrwt>
</event>
<event>
 4    1  0.4880711E-008  0.6327143E+03  0.7818608E-02  0.9839766E-01
         -2   -1    0    0    0  501 -0.00000000000E+00  0.00000000000E+00  0.96397993394E+03  0.96397993395E+03  0.25500000000E-02 0.  1.
          2   -1    0    0  501    0  0.00000000000E+00 -0.00000000000E+00 -0.70476009347E+03  0.70476009348E+03  0.25500000000E-02 0. -1.
    8880022    1    1    2    0    0  0.37208419190E+03 -0.48835349243E+03 -0.40513028545E+03  0.75130418648E+03  0.15294330000E+03 0.  0.
    8880022    1    1    2    0    0 -0.37208419190E+03  0.48835349243E+03  0.66435012592E+03  0.91743584094E+03  0.15294330000E+03 0.  0.
<mgrwt>
<rscale>  0 0.63271434E+03</rscale>
<asrwt>0</asrwt>
<pdfrwt beam="1">  1        2 0.10842463E+00 0.63271434E+03</pdfrwt>
<pdfrwt beam="2">  1       -2 0.14830461E+00 0.63271434E+03</pdfrwt>
<totfact> 0.12904363E+01</totfact>
</mgrwt>
</event>
<event>
 4    1  0.4880711E-008  0.1121373E+04  0.7818608E-02  0.9184607E-01
         -2   -1    0    0    0  501 -0.00000000000E+00  0.00000000000E+00  0.14577861848E+04  0.14577861848E+04  0.25500000000E-02 0.  1.
          2   -1    0    0  501    0  0.00000000000E+00 -0.00000000000E+00 -0.23936931126E+04  0.23936931126E+04  0.25500000000E-02 0. -1.
    8880022    1    1    2    0    0 -0.60476524447E+03 -0.93185014098E+03  0.10722036152E+04  0.15514824948E+04  0.15294330000E+03 0.  0.
    8880022    1    1    2    0    0  0.60476524447E+03  0.93185014098E+03 -0.20081105430E+04  0.22999968027E+04  0.15294330000E+03 0.  0.
<mgrwt>
<rscale>  0 0.11213730E+04</rscale>
<asrwt>0</asrwt>
<pdfrwt beam="1">  1        2 0.36826048E+00 0.11213730E+04</pdfrwt>
<pdfrwt beam="2">  1       -2 0.22427480E+00 0.11213730E+04</pdfrwt>
<totfact> 0.36732669E-01</totfact>
</mgrwt>
</event>
<event>
 4    1  0.4880711E-008  0.4261474E+03  0.7818608E-02  0.1035084E+00
         -2   -1    0    0    0  501 -0.00000000000E+00  0.00000000000E+00  0.54373547812E+03  0.54373547813E+03  0.25500000000E-02 0.  1.
          2   -1    0    0  501    0  0.00000000000E+00 -0.00000000000E+00 -0.10842758386E+04  0.10842758386E+04  0.25500000000E-02 0. -1.
    8880022    1    1    2    0    0  0.18877464098E+03  0.35010582590E+03 -0.94739889368E+03  0.10388292791E+04  0.15294330000E+03 0.  0.
    8880022    1    1    2    0    0 -0.18877464098E+03 -0.35010582590E+03  0.40685853319E+03  0.58918203762E+03  0.15294330000E+03 0.  0.
<mgrwt>
<rscale>  0 0.42614740E+03</rscale>
<asrwt>0</asrwt>
<pdfrwt beam="1">  1        2 0.16681167E+00 0.42614740E+03</pdfrwt>
<pdfrwt beam="2">  1       -2 0.83651613E-01 0.42614740E+03</pdfrwt>
<totfact> 0.29561921E+01</totfact>
</mgrwt>
</event>
<event>
 4    1  0.4880711E-008  0.4200962E+03  0.7818608E-02  0.1037035E+00
          2   -1    0    0  501    0  0.00000000000E+00  0.00000000000E+00  0.86001329352E+03  0.86001329353E+03  0.25500000000E-02 0. -1.
         -2   -1    0    0    0  501 -0.00000000000E+00 -0.00000000000E+00 -0.24258302422E+03  0.24258302423E+03  0.25500000000E-02 0.  1.
    8880022    1    1    2    0    0 -0.38491917257E+03  0.70188474450E+02  0.92317634802E+02  0.43012020421E+03  0.15294330000E+03 0.  0.
    8880022    1    1    2    0    0  0.38491917257E+03 -0.70188474450E+02  0.52511263451E+03  0.67247611355E+03  0.15294330000E+03 0. -1.
<mgrwt>
<rscale>  0 0.42009623E+03</rscale>
<asrwt>0</asrwt>
<pdfrwt beam="1">  1        2 0.13230974E+00 0.42009623E+03</pdfrwt>
<pdfrwt beam="2">  1       -2 0.37320465E-01 0.42009623E+03</pdfrwt>
<totfact> 0.21822598E+02</totfact>
</mgrwt>
</event>
<event>
 4    1  0.4880711E-008  0.5719150E+03  0.7818608E-02  0.9965450E-01
          2   -1    0    0  501    0  0.00000000000E+00  0.00000000000E+00  0.15297126488E+04  0.15297126488E+04  0.25500000000E-02 0. -1.
         -2   -1    0    0    0  501 -0.00000000000E+00 -0.00000000000E+00 -0.45179299768E+03  0.45179299769E+03  0.25500000000E-02 0.  1.
    8880022    1    1    2    0    0  0.46937493298E+03 -0.28875990900E+03  0.12580067943E+04  0.13819073269E+04  0.15294330000E+03 0.  0.
    8880022    1    1    2    0    0 -0.46937493298E+03  0.28875990900E+03 -0.18008714312E+03  0.59959831961E+03  0.15294330000E+03 0.  0.
<mgrwt>
<rscale>  0 0.57191500E+03</rscale>
<asrwt>0</asrwt>
<pdfrwt beam="1">  1        2 0.23534041E+00 0.57191500E+03</pdfrwt>
<pdfrwt beam="2">  1       -2 0.69506615E-01 0.57191500E+03</pdfrwt>
<totfact> 0.24202106E+01</totfact>
</mgrwt>
</event>
<event>
 4    1  0.4880711E-008  0.8189388E+03  0.7818608E-02  0.9533001E-01
         -2   -1    0    0    0  501 -0.00000000000E+00  0.00000000000E+00  0.72894354115E+03  0.72894354115E+03  0.25500000000E-02 0.  1.
          2   -1    0    0  501    0  0.00000000000E+00 -0.00000000000E+00 -0.13740236157E+04  0.13740236157E+04  0.25500000000E-02 0. -1.
    8880022    1    1    2    0    0 -0.20993946529E+03 -0.77665594183E+03 -0.92693830332E+03  0.12368812806E+04  0.15294330000E+03 0.  0.
    8880022    1    1    2    0    0  0.20993946529E+03  0.77665594183E+03  0.28185822872E+03  0.86608587633E+03  0.15294330000E+03 0.  0.
<mgrwt>
<rscale>  0 0.81893875E+03</rscale>
<asrwt>0</asrwt>
<pdfrwt beam="1">  1        2 0.21138825E+00 0.81893875E+03</pdfrwt>
<pdfrwt beam="2">  1       -2 0.11214516E+00 0.81893875E+03</pdfrwt>
<totfact> 0.95170719E+00</totfact>
</mgrwt>
</event>
<event>
 4    1  0.4880711E-008  0.2337029E+03  0.7818608E-02  0.1124060E+00
         -2   -1    0    0    0  501 -0.00000000000E+00  0.00000000000E+00  0.16331687287E+03  0.16331687289E+03  0.25500000000E-02 0.  1.
          2   -1    0    0  501    0  0.00000000000E+00 -0.00000000000E+00 -0.18226227931E+04  0.18226227931E+04  0.25500000000E-02 0. -1.
    8880022    1    1    2    0    0  0.16226581927E+03 -0.69965524289E+02  0.67606781102E+02  0.24328522470E+03  0.15294330000E+03 0.  0.
    8880022    1    1    2    0    0 -0.16226581927E+03  0.69965524289E+02 -0.17269127014E+04  0.17426544413E+04  0.15294330000E+03 0. -1.
<mgrwt>
<rscale>  0 0.23370285E+03</rscale>
<asrwt>0</asrwt>
<pdfrwt beam="1">  1        2 0.28040349E+00 0.23370285E+03</pdfrwt>
<pdfrwt beam="2">  1       -2 0.25125674E-01 0.23370285E+03</pdfrwt>
<totfact> 0.13229755E+02</totfact>
</mgrwt>
</event>
<event>
 4    1  0.4880711E-008  0.1119409E+04  0.7818608E-02  0.9186479E-01
          2   -1    0    0  501    0  0.00000000000E+00  0.00000000000E+00  0.31679410539E+04  0.31679410539E+04  0.25500000000E-02 0. -1.
         -2   -1    0    0    0  501 -0.00000000000E+00 -0.00000000000E+00 -0.45445651306E+03  0.45445651307E+03  0.25500000000E-02 0.  1.
    8880022    1    1    2    0    0 -0.14134616206E+03  0.10998662226E+04  0.70465595840E+03  0.13227305537E+04  0.15294330000E+03 0.  0.
    8880022    1    1    2    0    0  0.14134616206E+03 -0.10998662226E+04  0.20088285824E+04  0.22996670132E+04  0.15294330000E+03 0.  0.
<mgrwt>
<rscale>  0 0.11194088E+04</rscale>
<asrwt>0</asrwt>
<pdfrwt beam="1">  1        2 0.48737553E+00 0.11194088E+04</pdfrwt>
<pdfrwt beam="2">  1       -2 0.69916389E-01 0.11194088E+04</pdfrwt>
<totfact> 0.25580836E+00</totfact>
</mgrwt>
</event>
<event>
 4    1  0.4880711E-008  0.1852421E+03  0.7818608E-02  0.1162824E+00
         -2   -1    0    0    0  501 -0.00000000000E+00  0.00000000000E+00  0.72810399906E+02  0.72810399951E+02  0.25500000000E-02 0.  1.
          2   -1    0    0  501    0  0.00000000000E+00 -0.00000000000E+00 -0.30737522598E+04  0.30737522598E+04  0.25500000000E-02 0. -1.
    8880022    1    1    2    0    0  0.10305650656E+03 -0.17387573738E+02 -0.29481236650E+04  0.29539376718E+04  0.15294330000E+03 0. -1.
    8880022    1    1    2    0    0 -0.10305650656E+03  0.17387573738E+02 -0.52818194813E+02  0.19262498795E+03  0.15294330000E+03 0.  0.
<mgrwt>
<rscale>  0 0.18524207E+03</rscale>
<asrwt>0</asrwt>
<pdfrwt beam="1">  1        2 0.47288486E+00 0.18524207E+03</pdfrwt>
<pdfrwt beam="2">  1       -2 0.11201602E-01 0.18524207E+03</pdfrwt>
<totfact> 0.10848645E+02</totfact>
</mgrwt>
</event>
<event>
 4    1  0.4880711E-008  0.3819603E+03  0.7818608E-02  0.1050212E+00
         -2   -1    0    0    0  501 -0.00000000000E+00  0.00000000000E+00  0.58552316889E+03  0.58552316889E+03  0.25500000000E-02 0.  1.
          2   -1    0    0  501    0  0.00000000000E+00 -0.00000000000E+00 -0.34195932047E+03  0.34195932047E+03  0.25500000000E-02 0. -1.
    8880022    1    1    2    0    0  0.20043295347E+03  0.28692973983E+03 -0.11978748453E+03  0.40030330863E+03  0.15294330000E+03 0.  0.
    8880022    1    1    2    0    0 -0.20043295347E+03 -0.28692973983E+03  0.36335133295E+03  0.52717918074E+03  0.15294330000E+03 0.  0.
<mgrwt>
<rscale>  0 0.38196033E+03</rscale>
<asrwt>0</asrwt>
<pdfrwt beam="1">  1        2 0.52609126E-01 0.38196033E+03</pdfrwt>
<pdfrwt beam="2">  1       -2 0.90080488E-01 0.38196033E+03</pdfrwt>
<totfact> 0.10331316E+02</totfact>
</mgrwt>
</event>
<event>
 4    1  0.4880711E-008  0.2195413E+03  0.7818608E-02  0.1134226E+00
         -2   -1    0    0    0  501 -0.00000000000E+00  0.00000000000E+00  0.20890000704E+03  0.20890000706E+03  0.25500000000E-02 0.  1.
          2   -1    0    0  501    0  0.00000000000E+00 -0.00000000000E+00 -0.91013459192E+03  0.91013459193E+03  0.25500000000E-02 0. -1.
    8880022    1    1    2    0    0  0.13553494051E+03 -0.80230922834E+02  0.13280499356E+03  0.25658437288E+03  0.15294330000E+03 0.  0.
    8880022    1    1    2    0    0 -0.13553494051E+03  0.80230922834E+02 -0.83403957844E+03  0.86245022610E+03  0.15294330000E+03 0. -1.
<mgrwt>
<rscale>  0 0.21954128E+03</rscale>
<asrwt>0</asrwt>
<pdfrwt beam="1">  1        2 0.14002070E+00 0.21954128E+03</pdfrwt>
<pdfrwt beam="2">  1       -2 0.32138463E-01 0.21954128E+03</pdfrwt>
<totfact> 0.27370398E+02</totfact>
</mgrwt>
</event>
<event>
 4    1  0.4880711E-008  0.6837982E+03  0.7818608E-02  0.9745348E-01
         -2   -1    0    0    0  501 -0.00000000000E+00  0.00000000000E+00  0.88463016225E+03  0.88463016225E+03  0.25500000000E-02 0.  1.
          2   -1    0    0  501    0  0.00000000000E+00 -0.00000000000E+00 -0.10424233386E+04  0.10424233386E+04  0.25500000000E-02 0. -1.
    8880022    1    1    2    0    0  0.66553580361E+03  0.35361959179E+02  0.59759994330E+03  0.90813309558E+03  0.15294330000E+03 0.  0.
    8880022    1    1    2    0    0 -0.66553580361E+03 -0.35361959179E+02 -0.75539311965E+03  0.10189204053E+04  0.15294330000E+03 0.  0.
<mgrwt>
<rscale>  0 0.68379824E+03</rscale>
<asrwt>0</asrwt>
<pdfrwt beam="1">  1        2 0.16037282E+00 0.68379824E+03</pdfrwt>
<pdfrwt beam="2">  1       -2 0.13609695E+00 0.68379824E+03</pdfrwt>
<totfact> 0.93910938E+00</totfact>
</mgrwt>
</event>
<event>
 4    1  0.4880711E-008  0.4784702E+03  0.7818608E-02  0.1019556E+00
         -2   -1    0    0    0  501 -0.00000000000E+00  0.00000000000E+00  0.15637073304E+03  0.15637073306E+03  0.25500000000E-02 0.  1.
          2   -1    0    0  501    0  0.00000000000E+00 -0.00000000000E+00 -0.36264300028E+04  0.36264300028E+04  0.25500000000E-02 0. -1.
    8880022    1    1    2    0    0 -0.35128540086E+03 -0.28660189867E+03 -0.31955592437E+04  0.32311813032E+04  0.15294330000E+03 0. -1.
    8880022    1    1    2    0    0  0.35128540086E+03  0.28660189867E+03 -0.27450002610E+03  0.55161943269E+03  0.15294330000E+03 0.  0.
<mgrwt>
<rscale>  0 0.47847020E+03</rscale>
<asrwt>0</asrwt>
<pdfrwt beam="1">  1        2 0.55791225E+00 0.47847020E+03</pdfrwt>
<pdfrwt beam="2">  1       -2 0.24057039E-01 0.47847020E+03</pdfrwt>
<totfact> 0.11754909E+01</totfact>
</mgrwt>
</event>
<event>
 4    1  0.4880711E-008  0.4190593E+03  0.7818608E-02  0.1037373E+00
          2   -1    0    0  501    0  0.00000000000E+00  0.00000000000E+00  0.48376695178E+03  0.48376695179E+03  0.25500000000E-02 0. -1.
         -2   -1    0    0    0  501 -0.00000000000E+00 -0.00000000000E+00 -0.51881832625E+03  0.51881832626E+03  0.25500000000E-02 0.  1.
    8880022    1    1    2    0    0 -0.31701193227E+03 -0.22742578217E+03 -0.29224135625E+03  0.51089697094E+03  0.15294330000E+03 0.  0.
    8880022    1    1    2    0    0  0.31701193227E+03  0.22742578217E+03  0.25718998178E+03  0.49168830711E+03  0.15294330000E+03 0. -1.
<mgrwt>
<rscale>  0 0.41905931E+03</rscale>
<asrwt>0</asrwt>
<pdfrwt beam="1">  1        2 0.74425685E-01 0.41905931E+03</pdfrwt>
<pdfrwt beam="2">  1       -2 0.79818204E-01 0.41905931E+03</pdfrwt>
<totfact> 0.92005029E+01</totfact>
</mgrwt>
</event>
<event>
 4    1  0.4880711E-008  0.2158302E+03  0.7818608E-02  0.1137031E+00
         -2   -1    0    0    0  501 -0.00000000000E+00  0.00000000000E+00  0.31072281901E+03  0.31072281902E+03  0.25500000000E-02 0.  1.
          2   -1    0    0  501    0  0.00000000000E+00 -0.00000000000E+00 -0.77347565158E+03  0.77347565158E+03  0.25500000000E-02 0. -1.
    8880022    1    1    2    0    0 -0.14654238146E+03 -0.41428818490E+02 -0.71811310652E+03  0.74984605309E+03  0.15294330000E+03 0. -1.
    8880022    1    1    2    0    0  0.14654238146E+03  0.41428818490E+02  0.25536027396E+03  0.33435241751E+03  0.15294330000E+03 0.  0.
<mgrwt>
<rscale>  0 0.21583019E+03</rscale>
<asrwt>0</asrwt>
<pdfrwt beam="1">  1        2 0.11899625E+00 0.21583019E+03</pdfrwt>
<pdfrwt beam="2">  1       -2 0.47803511E-01 0.21583019E+03</pdfrwt>
<totfact> 0.15872450E+02</totfact>
</mgrwt>
</event>
<event>
 4    1  0.4880711E-008  0.1164048E+04  0.7818608E-02  0.9144920E-01
          2   -1    0    0  501    0  0.00000000000E+00  0.00000000000E+00  0.84690383436E+03  0.84690383437E+03  0.25500000000E-02 0. -1.
         -2   -1    0    0    0  501 -0.00000000000E+00 -0.00000000000E+00 -0.20841029666E+04  0.20841029666E+04  0.25500000000E-02 0.  1.
    8880022    1    1    2    0    0  0.10954464131E+04 -0.36278644155E+03 -0.13249432226E+04  0.17636561576E+04  0.15294330000E+03 0.  0.
    8880022    1    1    2    0    0 -0.10954464131E+04  0.36278644155E+03  0.87744090379E+02  0.11673506433E+04  0.15294330000E+03 0.  0.
<mgrwt>
<rscale>  0 0.11640483E+04</rscale>
<asrwt>0</asrwt>
<pdfrwt beam="1">  1        2 0.13029290E+00 0.11640483E+04</pdfrwt>
<pdfrwt beam="2">  1       -2 0.32063122E+00 0.11640483E+04</pdfrwt>
<totfact> 0.74640978E-01</totfact>
</mgrwt>
</event>
<event>
 4    1  0.4880711E-008  0.5036181E+03  0.7818608E-02  0.1012839E+00
          2   -1    0    0  501    0  0.00000000000E+00  0.00000000000E+00  0.58349516965E+03  0.58349516966E+03  0.25500000000E-02 0. -1.
         -2   -1    0    0    0  501 -0.00000000000E+00 -0.00000000000E+00 -0.89597831563E+03  0.89597831563E+03  0.25500000000E-02 0.  1.
    8880022    1    1    2    0    0  0.72604146155E+02  0.47430806632E+03 -0.68702995858E+03  0.85184583161E+03  0.15294330000E+03 0.  0.
    8880022    1    1    2    0    0 -0.72604146155E+02 -0.47430806632E+03  0.37454681261E+03  0.62762765368E+03  0.15294330000E+03 0.  0.
<mgrwt>
<rscale>  0 0.50361807E+03</rscale>
<asrwt>0</asrwt>
<pdfrwt beam="1">  1        2 0.89768488E-01 0.50361807E+03</pdfrwt>
<pdfrwt beam="2">  1       -2 0.13784282E+00 0.50361807E+03</pdfrwt>
<totfact> 0.19971092E+01</totfact>
</mgrwt>
</event>
<event>
 4    1  0.4880711E-008  0.2738106E+03  0.7818608E-02  0.1099118E+00
         -2   -1    0    0    0  501 -0.00000000000E+00  0.00000000000E+00  0.14060926735E+03  0.14060926737E+03  0.25500000000E-02 0.  1.
          2   -1    0    0  501    0  0.00000000000E+00 -0.00000000000E+00 -0.76674772131E+03  0.76674772132E+03  0.25500000000E-02 0. -1.
    8880022    1    1    2    0    0 -0.29676734829E+02  0.22516630567E+03 -0.56345748515E+03  0.62646353795E+03  0.15294330000E+03 0.  1.
    8880022    1    1    2    0    0  0.29676734829E+02 -0.22516630567E+03 -0.62680968816E+02  0.28089345073E+03  0.15294330000E+03 0.  0.
<mgrwt>
<rscale>  0 0.27381057E+03</rscale>
<asrwt>0</asrwt>
<pdfrwt beam="1">  1        2 0.11796119E+00 0.27381057E+03</pdfrwt>
<pdfrwt beam="2">  1       -2 0.21632195E-01 0.27381057E+03</pdfrwt>
<totfact> 0.68951517E+02</totfact>
</mgrwt>
</event>
<event>
 4    1  0.4880711E-008  0.9223335E+03  0.7818608E-02  0.9398086E-01
         -2   -1    0    0    0  501 -0.00000000000E+00  0.00000000000E+00  0.86660670747E+03  0.86660670748E+03  0.25500000000E-02 0.  1.
          2   -1    0    0  501    0  0.00000000000E+00 -0.00000000000E+00 -0.11185743280E+04  0.11185743280E+04  0.25500000000E-02 0. -1.
    8880022    1    1    2    0    0  0.90955020026E+03 -0.50893044271E+01  0.22130261194E+03  0.94851144794E+03  0.15294330000E+03 0.  0.
    8880022    1    1    2    0    0 -0.90955020026E+03  0.50893044271E+01 -0.47327023251E+03  0.10366695876E+04  0.15294330000E+03 0.  0.
<mgrwt>
<rscale>  0 0.92233352E+03</rscale>
<asrwt>0</asrwt>
<pdfrwt beam="1">  1        2 0.17208836E+00 0.92233352E+03</pdfrwt>
<pdfrwt beam="2">  1       -2 0.13332411E+00 0.92233352E+03</pdfrwt>
<totfact> 0.86376391E+00</totfact>
</mgrwt>
</event>
<event>
 4    1  0.4880711E-008  0.6347504E+03  0.7818608E-02  0.9835822E-01
          2   -1    0    0  501    0  0.00000000000E+00  0.00000000000E+00  0.21435549508E+04  0.21435549508E+04  0.25500000000E-02 0. -1.
         -2   -1    0    0    0  501 -0.00000000000E+00 -0.00000000000E+00 -0.28585176759E+03  0.28585176760E+03  0.25500000000E-02 0.  1.
    8880022    1    1    2    0    0  0.60667975084E+03 -0.10703338731E+03  0.21801929222E+03  0.67114866526E+03  0.15294330000E+03 0.  0.
    8880022    1    1    2    0    0 -0.60667975084E+03  0.10703338731E+03  0.16396838910E+04  0.17582580531E+04  0.15294330000E+03 0.  0.
<mgrwt>
<rscale>  0 0.63475044E+03</rscale>
<asrwt>0</asrwt>
<pdfrwt beam="1">  1        2 0.32977768E+00 0.63475044E+03</pdfrwt>
<pdfrwt beam="2">  1       -2 0.43977195E-01 0.63475044E+03</pdfrwt>
<totfact> 0.28698445E+01</totfact>
</mgrwt>
</event>
<event>
 4    1  0.4880711E-008  0.5178043E+03  0.7818608E-02  0.1009233E+00
         -2   -1    0    0    0  501 -0.00000000000E+00  0.00000000000E+00  0.45294169616E+03  0.45294169616E+03  0.25500000000E-02 0.  1.
          2   -1    0    0  501    0  0.00000000000E+00 -0.00000000000E+00 -0.75964867232E+03  0.75964867232E+03  0.25500000000E-02 0. -1.
    8880022    1    1    2    0    0  0.49445959685E+03 -0.15471294320E+02 -0.43821611729E+03  0.67834701469E+03  0.15294330000E+03 0.  0.
    8880022    1    1    2    0    0 -0.49445959685E+03  0.15471294320E+02  0.13150914113E+03  0.53424335380E+03  0.15294330000E+03 0.  0.
<mgrwt>
<rscale>  0 0.51780431E+03</rscale>
<asrwt>0</asrwt>
<pdfrwt beam="1">  1        2 0.11686903E+00 0.51780431E+03</pdfrwt>
<pdfrwt beam="2">  1       -2 0.69683338E-01 0.51780431E+03</pdfrwt>
<totfact> 0.71523410E+01</totfact>
</mgrwt>
</event>
<event>
 4    1  0.4880711E-008  0.2488324E+03  0.7818608E-02  0.1114045E+00
          2   -1    0    0  501    0  0.00000000000E+00  0.00000000000E+00  0.27932782425E+04  0.27932782425E+04  0.25500000000E-02 0. -1.
         -2   -1    0    0    0  501 -0.00000000000E+00 -0.00000000000E+00 -0.50873685986E+02  0.50873686050E+02  0.25500000000E-02 0.  1.
    8880022    1    1    2    0    0 -0.17837590237E+03 -0.81901924531E+02  0.24394465881E+04  0.24521046464E+04  0.15294330000E+03 0.  0.
    8880022    1    1    2    0    0  0.17837590237E+03  0.81901924531E+02  0.30295796842E+03  0.39204728214E+03  0.15294330000E+03 0.  0.
<mgrwt>
<rscale>  0 0.24883235E+03</rscale>
<asrwt>0</asrwt>
<pdfrwt beam="1">  1        2 0.42973509E+00 0.24883235E+03</pdfrwt>
<pdfrwt beam="2">  1       -2 0.78267214E-02 0.24883235E+03</pdfrwt>
<totfact> 0.27108675E+02</totfact>
</mgrwt>
</event>
<event>
 4    1  0.4880711E-008  0.6955254E+03  0.7818608E-02  0.9724915E-01
          2   -1    0    0  501    0  0.00000000000E+00  0.00000000000E+00  0.43501138931E+04  0.43501138931E+04  0.25500000000E-02 0. -1.
         -2   -1    0    0    0  501 -0.00000000000E+00 -0.00000000000E+00 -0.27841521306E+03  0.27841521307E+03  0.25500000000E-02 0.  1.
    8880022    1    1    2    0    0 -0.54432522341E+03  0.40506046648E+03  0.38293336177E+04  0.38919855522E+04  0.15294330000E+03 0.  0.
    8880022    1    1    2    0    0  0.54432522341E+03 -0.40506046648E+03  0.24236506236E+03  0.73654355392E+03  0.15294330000E+03 0.  0.
<mgrwt>
<rscale>  0 0.69552540E+03</rscale>
<asrwt>0</asrwt>
<pdfrwt beam="1">  1        2 0.66924823E+00 0.69552540E+03</pdfrwt>
<pdfrwt beam="2">  1       -2 0.42833114E-01 0.69552540E+03</pdfrwt>
<totfact> 0.10124560E+00</totfact>
</mgrwt>
</event>
<event>
 4    1  0.4880711E-008  0.2634047E+03  0.7818608E-02  0.1105115E+00
          2   -1    0    0  501    0  0.00000000000E+00  0.00000000000E+00  0.26691553114E+04  0.26691553114E+04  0.25500000000E-02 0. -1.
         -2   -1    0    0    0  501 -0.00000000000E+00 -0.00000000000E+00 -0.10272144223E+03  0.10272144226E+03  0.25500000000E-02 0.  1.
    8880022    1    1    2    0    0  0.21319216076E+03 -0.23226937488E+02  0.24810290678E+04  0.24949723999E+04  0.15294330000E+03 0.  0.
    8880022    1    1    2    0    0 -0.21319216076E+03  0.23226937488E+02  0.85404801426E+02  0.27690435381E+03  0.15294330000E+03 0.  0.
<mgrwt>
<rscale>  0 0.26340471E+03</rscale>
<asrwt>0</asrwt>
<pdfrwt beam="1">  1        2 0.41063924E+00 0.26340471E+03</pdfrwt>
<pdfrwt beam="2">  1       -2 0.15803300E-01 0.26340471E+03</pdfrwt>
<totfact> 0.10219818E+02</totfact>
</mgrwt>
</event>
<event>
 4    1  0.4880711E-008  0.9462161E+03  0.7818608E-02  0.9369584E-01
         -2   -1    0    0    0  501 -0.00000000000E+00  0.00000000000E+00  0.14169197811E+04  0.14169197811E+04  0.25500000000E-02 0.  1.
          2   -1    0    0  501    0  0.00000000000E+00 -0.00000000000E+00 -0.86413076899E+03  0.86413076900E+03  0.25500000000E-02 0. -1.
    8880022    1    1    2    0    0  0.72493454565E+03 -0.58856022066E+03 -0.31488482374E+03  0.99723484398E+03  0.15294330000E+03 0.  0.
    8880022    1    1    2    0    0 -0.72493454565E+03  0.58856022066E+03  0.86767383582E+03  0.12838157061E+04  0.15294330000E+03 0.  0.
<mgrwt>
<rscale>  0 0.94621609E+03</rscale>
<asrwt>0</asrwt>
<pdfrwt beam="1">  1        2 0.13294320E+00 0.94621609E+03</pdfrwt>
<pdfrwt beam="2">  1       -2 0.21798766E+00 0.94621609E+03</pdfrwt>
<totfact> 0.31578617E+00</totfact>
</mgrwt>
</event>
<event>
 4    1  0.4880711E-008  0.2295186E+03  0.7818608E-02  0.1126979E+00
          2   -1    0    0  501    0  0.00000000000E+00  0.00000000000E+00  0.61498588875E+03  0.61498588875E+03  0.25500000000E-02 0. -1.
         -2   -1    0    0    0  501 -0.00000000000E+00 -0.00000000000E+00 -0.51851742328E+03  0.51851742328E+03  0.25500000000E-02 0.  1.
    8880022    1    1    2    0    0  0.10191916086E+03  0.13747590196E+03 -0.46959228786E+03  0.52268126885E+03  0.15294330000E+03 0.  1.
    8880022    1    1    2    0    0 -0.10191916086E+03 -0.13747590196E+03  0.56606075333E+03  0.61082204319E+03  0.15294330000E+03 0.  0.
<mgrwt>
<rscale>  0 0.22951861E+03</rscale>
<asrwt>0</asrwt>
<pdfrwt beam="1">  1        2 0.94613213E-01 0.22951861E+03</pdfrwt>
<pdfrwt beam="2">  1       -2 0.79771912E-01 0.22951861E+03</pdfrwt>
<totfact> 0.71704907E+01</totfact>
</mgrwt>
</event>
<event>
 4    1  0.4880711E-008  0.7458784E+03  0.7818608E-02  0.9641839E-01
          2   -1    0    0  501    0  0.00000000000E+00  0.00000000000E+00  0.20726764589E+04  0.20726764589E+04  0.25500000000E-02 0. -1.
         -2   -1    0    0    0  501 -0.00000000000E+00 -0.00000000000E+00 -0.39784221752E+03  0.39784221752E+03  0.25500000000E-02 0.  1.
    8880022    1    1    2    0    0  0.63424131511E+03 -0.36149821538E+03  0.13285744970E+03  0.75761847950E+03  0.15294330000E+03 0.  0.
    8880022    1    1    2    0    0 -0.63424131511E+03  0.36149821538E+03  0.15419767916E+04  0.17129001969E+04  0.15294330000E+03 0.  0.
<mgrwt>
<rscale>  0 0.74587845E+03</rscale>
<asrwt>0</asrwt>
<pdfrwt beam="1">  1        2 0.31887330E+00 0.74587845E+03</pdfrwt>
<pdfrwt beam="2">  1       -2 0.61206495E-01 0.74587845E+03</pdfrwt>
<totfact> 0.15669236E+01</totfact>
</mgrwt>
</event>
<event>
 4    1  0.4880711E-008  0.7556686E+03  0.7818608E-02  0.9626499E-01
         -2   -1    0    0    0  501 -0.00000000000E+00  0.00000000000E+00  0.22229322128E+04  0.22229322128E+04  0.25500000000E-02 0.  1.
          2   -1    0    0  501    0  0.00000000000E+00 -0.00000000000E+00 -0.70069880413E+03  0.70069880414E+03  0.25500000000E-02 0. -1.
    8880022    1    1    2    0    0  0.63533015115E+03 -0.37947192268E+03  0.19245136752E+04  0.20675560162E+04  0.15294330000E+03 0.  0.
    8880022    1    1    2    0    0 -0.63533015115E+03  0.37947192268E+03 -0.40228026652E+03  0.85607500075E+03  0.15294330000E+03 0.  0.
<mgrwt>
<rscale>  0 0.75566857E+03</rscale>
<asrwt>0</asrwt>
<pdfrwt beam="1">  1        2 0.10779982E+00 0.75566857E+03</pdfrwt>
<pdfrwt beam="2">  1       -2 0.34198957E+00 0.75566857E+03</pdfrwt>
<totfact> 0.75262964E-01</totfact>
</mgrwt>
</event>
<event>
 4    1  0.4880711E-008  0.6956447E+03  0.7818608E-02  0.9724709E-01
          2   -1    0    0  501    0  0.00000000000E+00  0.00000000000E+00  0.11931225189E+04  0.11931225189E+04  0.25500000000E-02 0. -1.
         -2   -1    0    0    0  501 -0.00000000000E+00 -0.00000000000E+00 -0.70363877092E+03  0.70363877092E+03  0.25500000000E-02 0.  1.
    8880022    1    1    2    0    0  0.16168764013E+03 -0.65908043793E+03  0.86197557806E+03  0.11076657740E+04  0.15294330000E+03 0.  0.
    8880022    1    1    2    0    0 -0.16168764013E+03  0.65908043793E+03 -0.37249183009E+03  0.78909551585E+03  0.15294330000E+03 0.  0.
<mgrwt>
<rscale>  0 0.69564472E+03</rscale>
<asrwt>0</asrwt>
<pdfrwt beam="1">  1        2 0.18355731E+00 0.69564472E+03</pdfrwt>
<pdfrwt beam="2">  1       -2 0.10825212E+00 0.69564472E+03</pdfrwt>
<totfact> 0.13403572E+01</totfact>
</mgrwt>
</event>
<event>
 4    1  0.4880711E-008  0.6156408E+03  0.7818608E-02  0.9873477E-01
         -2   -1    0    0    0  501 -0.00000000000E+00  0.00000000000E+00  0.11451771249E+04  0.11451771249E+04  0.25500000000E-02 0.  1.
          2   -1    0    0  501    0  0.00000000000E+00 -0.00000000000E+00 -0.48977034651E+03  0.48977034652E+03  0.25500000000E-02 0. -1.
    8880022    1    1    2    0    0  0.45026703521E+03  0.39100067649E+03 -0.13778631486E+03  0.63087134472E+03  0.15294330000E+03 0.  0.
    8880022    1    1    2    0    0 -0.45026703521E+03 -0.39100067649E+03  0.79319309320E+03  0.10040761267E+04  0.15294330000E+03 0.  1.
<mgrwt>
<rscale>  0 0.61564079E+03</rscale>
<asrwt>0</asrwt>
<pdfrwt beam="1">  1        2 0.75349284E-01 0.61564079E+03</pdfrwt>
<pdfrwt beam="2">  1       -2 0.17618110E+00 0.61564079E+03</pdfrwt>
<totfact> 0.12536987E+01</totfact>
</mgrwt>
</event>
<event>
 4    1  0.4880711E-008  0.3101646E+03  0.7818608E-02  0.1080267E+00
          2   -1    0    0  501    0  0.00000000000E+00  0.00000000000E+00  0.93285774111E+03  0.93285774111E+03  0.25500000000E-02 0. -1.
         -2   -1    0    0    0  501 -0.00000000000E+00 -0.00000000000E+00 -0.31905222664E+03  0.31905222665E+03  0.25500000000E-02 0.  1.
    8880022    1    1    2    0    0  0.11820937244E+03  0.24256338931E+03  0.82185229561E+03  0.87843229812E+03  0.15294330000E+03 0.  0.
    8880022    1    1    2    0    0 -0.11820937244E+03 -0.24256338931E+03 -0.20804678115E+03  0.37347766965E+03  0.15294330000E+03 0.  0.
<mgrwt>
<rscale>  0 0.31016464E+03</rscale>
<asrwt>0</asrwt>
<pdfrwt beam="1">  1        2 0.14351658E+00 0.31016464E+03</pdfrwt>
<pdfrwt beam="2">  1       -2 0.49084957E-01 0.31016464E+03</pdfrwt>
<totfact> 0.11597899E+02</totfact>
</mgrwt>
</event>
<event>
 4    1  0.4880711E-008  0.2441233E+03  0.7818608E-02  0.1117076E+00
          2   -1    0    0  501    0  0.00000000000E+00  0.00000000000E+00  0.24162597052E+04  0.24162597052E+04  0.25500000000E-02 0. -1.
         -2   -1    0    0    0  501 -0.00000000000E+00 -0.00000000000E+00 -0.61014621836E+02  0.61014621889E+02  0.25500000000E-02 0.  1.
    8880022    1    1    2    0    0 -0.17741539617E+03  0.68762826355E+02  0.21336693994E+04  0.21475896507E+04  0.15294330000E+03 0. -1.
    8880022    1    1    2    0    0  0.17741539617E+03 -0.68762826355E+02  0.22157568403E+03  0.32968467641E+03  0.15294330000E+03 0.  0.
<mgrwt>
<rscale>  0 0.24412333E+03</rscale>
<asrwt>0</asrwt>
<pdfrwt beam="1">  1        2 0.37173224E+00 0.24412333E+03</pdfrwt>
<pdfrwt beam="2">  1       -2 0.93868654E-02 0.24412333E+03</pdfrwt>
<totfact> 0.32992527E+02</totfact>
</mgrwt>
</event>
<event>
 4    1  0.4880711E-008  0.6563960E+03  0.7818608E-02  0.9794851E-01
         -2   -1    0    0    0  501 -0.00000000000E+00  0.00000000000E+00  0.11765124769E+04  0.11765124769E+04  0.25500000000E-02 0.  1.
          2   -1    0    0  501    0  0.00000000000E+00 -0.00000000000E+00 -0.71609259680E+03  0.71609259680E+03  0.25500000000E-02 0. -1.
    8880022    1    1    2    0    0 -0.60173973314E+03  0.21301018196E+03  0.89167043613E+03  0.11072180742E+04  0.15294330000E+03 0.  0.
    8880022    1    1    2    0    0  0.60173973314E+03 -0.21301018196E+03 -0.43125055599E+03  0.78538699959E+03  0.15294330000E+03 0. -1.
<mgrwt>
<rscale>  0 0.65639599E+03</rscale>
<asrwt>0</asrwt>
<pdfrwt beam="1">  1        2 0.11016809E+00 0.65639599E+03</pdfrwt>
<pdfrwt beam="2">  1       -2 0.18100192E+00 0.65639599E+03</pdfrwt>
<totfact> 0.73216841E+00</totfact>
</mgrwt>
</event>
<event>
 4    1  0.4880711E-008  0.2732086E+03  0.7818608E-02  0.1099457E+00
         -2   -1    0    0    0  501 -0.00000000000E+00  0.00000000000E+00  0.10962336711E+04  0.10962336711E+04  0.25500000000E-02 0.  1.
          2   -1    0    0  501    0  0.00000000000E+00 -0.00000000000E+00 -0.64067262379E+03  0.64067262379E+03  0.25500000000E-02 0. -1.
    8880022    1    1    2    0    0 -0.22045750261E+03  0.51475714577E+02  0.10487882931E+04  0.10837895536E+04  0.15294330000E+03 0.  0.
    8880022    1    1    2    0    0  0.22045750261E+03 -0.51475714577E+02 -0.59322724579E+03  0.65311674133E+03  0.15294330000E+03 0.  0.
<mgrwt>
<rscale>  0 0.27320855E+03</rscale>
<asrwt>0</asrwt>
<pdfrwt beam="1">  1        2 0.98565020E-01 0.27320855E+03</pdfrwt>
<pdfrwt beam="2">  1       -2 0.16865133E+00 0.27320855E+03</pdfrwt>
<totfact> 0.11008815E+01</totfact>
</mgrwt>
</event>
<event>
 4    1  0.4880711E-008  0.1985738E+03  0.7818608E-02  0.1150948E+00
         -2   -1    0    0    0  501 -0.00000000000E+00  0.00000000000E+00  0.29744375043E+03  0.29744375044E+03  0.25500000000E-02 0.  1.
          2   -1    0    0  501    0  0.00000000000E+00 -0.00000000000E+00 -0.81096813657E+03  0.81096813657E+03  0.25500000000E-02 0. -1.
    8880022    1    1    2    0    0  0.10907849464E+03  0.64356771809E+02  0.25012603083E+03  0.31936592865E+03  0.15294330000E+03 0.  0.
    8880022    1    1    2    0    0 -0.10907849464E+03 -0.64356771809E+02 -0.76365041696E+03  0.78904595836E+03  0.15294330000E+03 0. -1.
<mgrwt>
<rscale>  0 0.19857383E+03</rscale>
<asrwt>0</asrwt>
<pdfrwt beam="1">  1        2 0.12476433E+00 0.19857383E+03</pdfrwt>
<pdfrwt beam="2">  1       -2 0.45760577E-01 0.19857383E+03</pdfrwt>
<totfact> 0.16345268E+02</totfact>
</mgrwt>
</event>
<event>
 4    1  0.4880711E-008  0.3602128E+03  0.7818608E-02  0.1058500E+00
         -2   -1    0    0    0  501 -0.00000000000E+00  0.00000000000E+00  0.43533919877E+03  0.43533919877E+03  0.25500000000E-02 0.  1.
          2   -1    0    0  501    0  0.00000000000E+00 -0.00000000000E+00 -0.97512397190E+03  0.97512397190E+03  0.25500000000E-02 0. -1.
    8880022    1    1    2    0    0 -0.72550644725E+02  0.31795916974E+03  0.31775874637E+03  0.48033728107E+03  0.15294330000E+03 0.  0.
    8880022    1    1    2    0    0  0.72550644725E+02 -0.31795916974E+03 -0.85754351950E+03  0.93012588961E+03  0.15294330000E+03 0.  0.
<mgrwt>
<rscale>  0 0.36021283E+03</rscale>
<asrwt>0</asrwt>
<pdfrwt beam="1">  1        2 0.15001907E+00 0.36021283E+03</pdfrwt>
<pdfrwt beam="2">  1       -2 0.66975262E-01 0.36021283E+03</pdfrwt>
<totfact> 0.56871426E+01</totfact>
</mgrwt>
</event>
<event>
 4    1  0.4880711E-008  0.2485742E+03  0.7818608E-02  0.1114209E+00
          2   -1    0    0  501    0  0.00000000000E+00  0.00000000000E+00  0.94825796923E+03  0.94825796923E+03  0.25500000000E-02 0. -1.
         -2   -1    0    0    0  501 -0.00000000000E+00 -0.00000000000E+00 -0.16928385916E+03  0.16928385918E+03  0.25500000000E-02 0.  1.
    8880022    1    1    2    0    0  0.14228328450E+03  0.13473291494E+03 -0.48740521645E+02  0.25330768422E+03  0.15294330000E+03 0.  0.
    8880022    1    1    2    0    0 -0.14228328450E+03 -0.13473291494E+03  0.82771463172E+03  0.86423414419E+03  0.15294330000E+03 0.  0.
<mgrwt>
<rscale>  0 0.24857422E+03</rscale>
<asrwt>0</asrwt>
<pdfrwt beam="1">  1        2 0.14588584E+00 0.24857422E+03</pdfrwt>
<pdfrwt beam="2">  1       -2 0.26043670E-01 0.24857422E+03</pdfrwt>
<totfact> 0.37721850E+02</totfact>
</mgrwt>
</event>
<event>
 4    1  0.4880711E-008  0.3391564E+03  0.7818608E-02  0.1067156E+00
         -2   -1    0    0    0  501 -0.00000000000E+00  0.00000000000E+00  0.89316629882E+03  0.89316629883E+03  0.25500000000E-02 0.  1.
          2   -1    0    0  501    0  0.00000000000E+00 -0.00000000000E+00 -0.24615862924E+03  0.24615862926E+03  0.25500000000E-02 0. -1.
    8880022    1    1    2    0    0  0.30128794042E+03 -0.29342844459E+02  0.71686726089E+03  0.79304838964E+03  0.15294330000E+03 0.  1.
    8880022    1    1    2    0    0 -0.30128794042E+03  0.29342844459E+02 -0.69859591309E+02  0.34627653844E+03  0.15294330000E+03 0.  0.
<mgrwt>
<rscale>  0 0.33915642E+03</rscale>
<asrwt>0</asrwt>
<pdfrwt beam="1">  1        2 0.37870559E-01 0.33915642E+03</pdfrwt>
<pdfrwt beam="2">  1       -2 0.13741020E+00 0.33915642E+03</pdfrwt>
<totfact> 0.53838295E+01</totfact>
</mgrwt>
</event>
<event>
 4    1  0.4880711E-008  0.1139117E+04  0.7818608E-02  0.9167883E-01
         -2   -1    0    0    0  501 -0.00000000000E+00  0.00000000000E+00  0.35864705761E+04  0.35864705761E+04  0.25500000000E-02 0.  1.
          2   -1    0    0  501    0  0.00000000000E+00 -0.00000000000E+00 -0.11014561272E+04  0.11014561272E+04  0.25500000000E-02 0. -1.
    8880022    1    1    2    0    0 -0.82216323539E+03 -0.77346210516E+03 -0.67829182132E+03  0.13257705162E+04  0.15294330000E+03 0.  0.
    8880022    1    1    2    0    0  0.82216323539E+03  0.77346210516E+03  0.31633062703E+04  0.33621561871E+04  0.15294330000E+03 0.  0.
<mgrwt>
<rscale>  0 0.11391171E+04</rscale>
<asrwt>0</asrwt>
<pdfrwt beam="1">  1        2 0.16945479E+00 0.11391171E+04</pdfrwt>
<pdfrwt beam="2">  1       -2 0.55176471E+00 0.11391171E+04</pdfrwt>
<totfact> 0.17628048E-02</totfact>
</mgrwt>
</event>
<event>
 4    1  0.4880711E-008  0.5128801E+03  0.7818608E-02  0.1010471E+00
         -2   -1    0    0    0  501 -0.00000000000E+00  0.00000000000E+00  0.67230199898E+03  0.67230199899E+03  0.25500000000E-02 0.  1.
          2   -1    0    0  501    0  0.00000000000E+00 -0.00000000000E+00 -0.67828805474E+03  0.67828805474E+03  0.25500000000E-02 0. -1.
    8880022    1    1    2    0    0  0.44427125226E+03  0.20561464991E+03  0.43629300994E+03  0.67334803288E+03  0.15294330000E+03 0.  0.
    8880022    1    1    2    0    0 -0.44427125226E+03 -0.20561464991E+03 -0.44227906569E+03  0.67724202085E+03  0.15294330000E+03 0.  0.
<mgrwt>
<rscale>  0 0.51288009E+03</rscale>
<asrwt>0</asrwt>
<pdfrwt beam="1">  1        2 0.10435201E+00 0.51288009E+03</pdfrwt>
<pdfrwt beam="2">  1       -2 0.10343108E+00 0.51288009E+03</pdfrwt>
<totfact> 0.33702322E+01</totfact>
</mgrwt>
</event>
<event>
 4    1  0.4880711E-008  0.8357103E+03  0.7818608E-02  0.9509719E-01
         -2   -1    0    0    0  501 -0.00000000000E+00  0.00000000000E+00  0.72984260910E+03  0.72984260910E+03  0.25500000000E-02 0.  1.
          2   -1    0    0  501    0  0.00000000000E+00 -0.00000000000E+00 -0.11181123972E+04  0.11181123972E+04  0.25500000000E-02 0. -1.
    8880022    1    1    2    0    0 -0.55556110156E+03  0.60528663533E+03  0.15667446400E+03  0.85026971554E+03  0.15294330000E+03 0.  0.
    8880022    1    1    2    0    0  0.55556110156E+03 -0.60528663533E+03 -0.54494425208E+03  0.99768529074E+03  0.15294330000E+03 0.  0.
<mgrwt>
<rscale>  0 0.83571030E+03</rscale>
<asrwt>0</asrwt>
<pdfrwt beam="1">  1        2 0.17201729E+00 0.83571030E+03</pdfrwt>
<pdfrwt beam="2">  1       -2 0.11228348E+00 0.83571030E+03</pdfrwt>
<totfact> 0.13388255E+01</totfact>
</mgrwt>
</event>
<event>
 4    1  0.4880711E-008  0.4510104E+03  0.7818608E-02  0.1027421E+00
          2   -1    0    0  501    0  0.00000000000E+00  0.00000000000E+00  0.20945124035E+04  0.20945124035E+04  0.25500000000E-02 0. -1.
         -2   -1    0    0    0  501 -0.00000000000E+00 -0.00000000000E+00 -0.24705511972E+03  0.24705511973E+03  0.25500000000E-02 0.  1.
    8880022    1    1    2    0    0 -0.10557494755E+03 -0.41094113658E+03  0.11639122882E+02  0.45116051410E+03  0.15294330000E+03 0.  0.
    8880022    1    1    2    0    0  0.10557494755E+03  0.41094113658E+03  0.18358181609E+04  0.18904070092E+04  0.15294330000E+03 0.  0.
<mgrwt>
<rscale>  0 0.45101035E+03</rscale>
<asrwt>0</asrwt>
<pdfrwt beam="1">  1        2 0.32223270E+00 0.45101035E+03</pdfrwt>
<pdfrwt beam="2">  1       -2 0.38008478E-01 0.45101035E+03</pdfrwt>
<totfact> 0.41943718E+01</totfact>
</mgrwt>
</event>
<event>
 4    1  0.4880711E-008  0.3821808E+03  0.7818608E-02  0.1050131E+00
         -2   -1    0    0    0  501 -0.00000000000E+00  0.00000000000E+00  0.26460548991E+03  0.26460548993E+03  0.25500000000E-02 0.  1.
          2   -1    0    0  501    0  0.00000000000E+00 -0.00000000000E+00 -0.21465762464E+04  0.21465762464E+04  0.25500000000E-02 0. -1.
    8880022    1    1    2    0    0  0.18722032145E+03  0.29600519426E+03 -0.19800665199E+04  0.20166124070E+04  0.15294330000E+03 0.  0.
    8880022    1    1    2    0    0 -0.18722032145E+03 -0.29600519426E+03  0.98095763459E+02  0.39456932929E+03  0.15294330000E+03 0.  1.
<mgrwt>
<rscale>  0 0.38218082E+03</rscale>
<asrwt>0</asrwt>
<pdfrwt beam="1">  1        2 0.33024249E+00 0.38218082E+03</pdfrwt>
<pdfrwt beam="2">  1       -2 0.40708538E-01 0.38218082E+03</pdfrwt>
<totfact> 0.35029050E+01</totfact>
</mgrwt>
</event>
<event>
 4    1  0.4880711E-008  0.6112208E+03  0.7818608E-02  0.9882396E-01
         -2   -1    0    0    0  501 -0.00000000000E+00  0.00000000000E+00  0.19064693428E+03  0.19064693430E+03  0.25500000000E-02 0.  1.
          2   -1    0    0  501    0  0.00000000000E+00 -0.00000000000E+00 -0.31670325029E+04  0.31670325029E+04  0.25500000000E-02 0. -1.
    8880022    1    1    2    0    0 -0.55904761801E+03  0.19407472382E+03 -0.45158324661E+03  0.75994626078E+03  0.15294330000E+03 0.  0.
    8880022    1    1    2    0    0  0.55904761801E+03 -0.19407472382E+03 -0.25248023220E+04  0.25977331764E+04  0.15294330000E+03 0.  0.
<mgrwt>
<rscale>  0 0.61122082E+03</rscale>
<asrwt>0</asrwt>
<pdfrwt beam="1">  1        2 0.48723573E+00 0.61122082E+03</pdfrwt>
<pdfrwt beam="2">  1       -2 0.29330300E-01 0.61122082E+03</pdfrwt>
<totfact> 0.15949800E+01</totfact>
</mgrwt>
</event>
<event>
 4    1  0.4880711E-008  0.5919709E+03  0.7818608E-02  0.9922205E-01
          2   -1    0    0  501    0  0.00000000000E+00  0.00000000000E+00  0.13432801575E+04  0.13432801575E+04  0.25500000000E-02 0. -1.
         -2   -1    0    0    0  501 -0.00000000000E+00 -0.00000000000E+00 -0.51798995957E+03  0.51798995958E+03  0.25500000000E-02 0.  1.
    8880022    1    1    2    0    0 -0.53375761325E+03 -0.20528207869E+03  0.10683094235E+04  0.12213576867E+04  0.15294330000E+03 0.  0.
    8880022    1    1    2    0    0  0.53375761325E+03  0.20528207869E+03 -0.24301922557E+03  0.63991243038E+03  0.15294330000E+03 0.  0.
<mgrwt>
<rscale>  0 0.59197092E+03</rscale>
<asrwt>0</asrwt>
<pdfrwt beam="1">  1        2 0.20665848E+00 0.59197092E+03</pdfrwt>
<pdfrwt beam="2">  1       -2 0.79690765E-01 0.59197092E+03</pdfrwt>
<totfact> 0.22673219E+01</totfact>
</mgrwt>
</event>
<event>
 4    1  0.4880711E-008  0.3108353E+03  0.7818608E-02  0.1079946E+00
         -2   -1    0    0    0  501 -0.00000000000E+00  0.00000000000E+00  0.52560088607E+02  0.52560088669E+02  0.25500000000E-02 0.  1.
          2   -1    0    0  501    0  0.00000000000E+00 -0.00000000000E+00 -0.25789044891E+04  0.25789044891E+04  0.25500000000E-02 0. -1.
    8880022    1    1    2    0    0  0.50319259237E+02  0.26588513401E+03 -0.55806082688E+03  0.63878828406E+03  0.15294330000E+03 0.  0.
    8880022    1    1    2    0    0 -0.50319259237E+02 -0.26588513401E+03 -0.19682835736E+04  0.19926762937E+04  0.15294330000E+03 0.  0.
<mgrwt>
<rscale>  0 0.31083530E+03</rscale>
<asrwt>0</asrwt>
<pdfrwt beam="1">  1        2 0.39675444E+00 0.31083530E+03</pdfrwt>
<pdfrwt beam="2">  1       -2 0.80861695E-02 0.31083530E+03</pdfrwt>
<totfact> 0.33467858E+02</totfact>
</mgrwt>
</event>
<event>
 4    1  0.4880711E-008  0.7852192E+03  0.7818608E-02  0.9581662E-01
         -2   -1    0    0    0  501 -0.00000000000E+00  0.00000000000E+00  0.58422904069E+03  0.58422904069E+03  0.25500000000E-02 0.  1.
          2   -1    0    0  501    0  0.00000000000E+00 -0.00000000000E+00 -0.23015806448E+04  0.23015806448E+04  0.25500000000E-02 0. -1.
    8880022    1    1    2    0    0  0.73586778291E+03 -0.22732394986E+03  0.20307568809E+03  0.81105422767E+03  0.15294330000E+03 0.  0.
    8880022    1    1    2    0    0 -0.73586778291E+03  0.22732394986E+03 -0.19204272922E+04  0.20747554579E+04  0.15294330000E+03 0.  0.
<mgrwt>
<rscale>  0 0.78521922E+03</rscale>
<asrwt>0</asrwt>
<pdfrwt beam="1">  1        2 0.35408932E+00 0.78521922E+03</pdfrwt>
<pdfrwt beam="2">  1       -2 0.89881392E-01 0.78521922E+03</pdfrwt>
<totfact> 0.49773206E+00</totfact>
</mgrwt>
</event>
<event>
 4    1  0.4880711E-008  0.5464994E+03  0.7818608E-02  0.1002307E+00
         -2   -1    0    0    0  501 -0.00000000000E+00  0.00000000000E+00  0.26611262515E+03  0.26611262517E+03  0.25500000000E-02 0.  1.
          2   -1    0    0  501    0  0.00000000000E+00 -0.00000000000E+00 -0.29043227520E+04  0.29043227520E+04  0.25500000000E-02 0. -1.
    8880022    1    1    2    0    0  0.50556174989E+03  0.14027558086E+03 -0.25608189783E+04  0.26184834188E+04  0.15294330000E+03 0. -1.
    8880022    1    1    2    0    0 -0.50556174989E+03 -0.14027558086E+03 -0.77391148552E+02  0.55195195844E+03  0.15294330000E+03 0.  0.
<mgrwt>
<rscale>  0 0.54649938E+03</rscale>
<asrwt>0</asrwt>
<pdfrwt beam="1">  1        2 0.44681886E+00 0.54649938E+03</pdfrwt>
<pdfrwt beam="2">  1       -2 0.40940406E-01 0.54649938E+03</pdfrwt>
<totfact> 0.12460531E+01</totfact>
</mgrwt>
</event>
<event>
 4    1  0.4880711E-008  0.6131745E+03  0.7818608E-02  0.9878444E-01
         -2   -1    0    0    0  501 -0.00000000000E+00  0.00000000000E+00  0.18331690124E+03  0.18331690126E+03  0.25500000000E-02 0.  1.
          2   -1    0    0  501    0  0.00000000000E+00 -0.00000000000E+00 -0.22840149487E+04  0.22840149487E+04  0.25500000000E-02 0. -1.
    8880022    1    1    2    0    0 -0.57957313485E+03  0.12917551301E+03 -0.14443886391E+04  0.15691531237E+04  0.15294330000E+03 0.  0.
    8880022    1    1    2    0    0  0.57957313485E+03 -0.12917551301E+03 -0.65630940833E+03  0.89817872625E+03  0.15294330000E+03 0.  1.
<mgrwt>
<rscale>  0 0.61317451E+03</rscale>
<asrwt>0</asrwt>
<pdfrwt beam="1">  1        2 0.35138689E+00 0.61317451E+03</pdfrwt>
<pdfrwt beam="2">  1       -2 0.28202602E-01 0.61317451E+03</pdfrwt>
<totfact> 0.56151603E+01</totfact>
</mgrwt>
</event>
<event>
 4    1  0.4880711E-008  0.4135775E+03  0.7818608E-02  0.1039177E+00
         -2   -1    0    0    0  501 -0.00000000000E+00  0.00000000000E+00  0.46102760327E+03  0.46102760327E+03  0.25500000000E-02 0.  1.
          2   -1    0    0  501    0  0.00000000000E+00 -0.00000000000E+00 -0.83852431843E+03  0.83852431844E+03  0.25500000000E-02 0. -1.
    8880022    1    1    2    0    0  0.22935307846E+02  0.38357352103E+03 -0.67392824270E+03  0.79071208648E+03  0.15294330000E+03 0.  0.
    8880022    1    1    2    0    0 -0.22935307846E+02 -0.38357352103E+03  0.29643152754E+03  0.50883983523E+03  0.15294330000E+03 0.  0.
<mgrwt>
<rscale>  0 0.41357747E+03</rscale>
<asrwt>0</asrwt>
<pdfrwt beam="1">  1        2 0.12900374E+00 0.41357747E+03</pdfrwt>
<pdfrwt beam="2">  1       -2 0.70927324E-01 0.41357747E+03</pdfrwt>
<totfact> 0.61267408E+01</totfact>
</mgrwt>
</event>
<event>
 4    1  0.4880711E-008  0.8424308E+03  0.7818608E-02  0.9500553E-01
          2   -1    0    0  501    0  0.00000000000E+00  0.00000000000E+00  0.15677824032E+04  0.15677824032E+04  0.25500000000E-02 0. -1.
         -2   -1    0    0    0  501 -0.00000000000E+00 -0.00000000000E+00 -0.69278418073E+03  0.69278418074E+03  0.25500000000E-02 0.  1.
    8880022    1    1    2    0    0 -0.54441966728E+02  0.82664022411E+03 -0.22792160863E+03  0.87271868351E+03  0.15294330000E+03 0.  0.
    8880022    1    1    2    0    0  0.54441966728E+02 -0.82664022411E+03  0.11029198311E+04  0.13878479004E+04  0.15294330000E+03 0.  0.
<mgrwt>
<rscale>  0 0.84243079E+03</rscale>
<asrwt>0</asrwt>
<pdfrwt beam="1">  1        2 0.24119729E+00 0.84243079E+03</pdfrwt>
<pdfrwt beam="2">  1       -2 0.10658218E+00 0.84243079E+03</pdfrwt>
<totfact> 0.83555887E+00</totfact>
</mgrwt>
</event>
<event>
 4    1  0.4880711E-008  0.4306012E+03  0.7818608E-02  0.1033670E+00
          2   -1    0    0  501    0  0.00000000000E+00  0.00000000000E+00  0.67802712493E+03  0.67802712494E+03  0.25500000000E-02 0. -1.
         -2   -1    0    0    0  501 -0.00000000000E+00 -0.00000000000E+00 -0.53219158789E+03  0.53219158790E+03  0.25500000000E-02 0.  1.
    8880022    1    1    2    0    0 -0.15054570846E+03 -0.37331188015E+03 -0.34899190746E+03  0.55426778247E+03  0.15294330000E+03 0.  0.
    8880022    1    1    2    0    0  0.15054570846E+03  0.37331188015E+03  0.49482744451E+03  0.65595093036E+03  0.15294330000E+03 0.  0.
<mgrwt>
<rscale>  0 0.43060123E+03</rscale>
<asrwt>0</asrwt>
<pdfrwt beam="1">  1        2 0.10431187E+00 0.43060123E+03</pdfrwt>
<pdfrwt beam="2">  1       -2 0.81875629E-01 0.43060123E+03</pdfrwt>
<totfact> 0.58368935E+01</totfact>
</mgrwt>
</event>
<event>
 4    1  0.4880711E-008  0.2918026E+03  0.7818608E-02  0.1089412E+00
         -2   -1    0    0    0  501 -0.00000000000E+00  0.00000000000E+00  0.95744021036E+02  0.95744021070E+02  0.25500000000E-02 0.  1.
          2   -1    0    0  501    0  0.00000000000E+00 -0.00000000000E+00 -0.27776192433E+04  0.27776192433E+04  0.25500000000E-02 0. -1.
    8880022    1    1    2    0    0  0.13775484130E+03  0.20683493201E+03 -0.25254990537E+04  0.25423009674E+04  0.15294330000E+03 0.  0.
    8880022    1    1    2    0    0 -0.13775484130E+03 -0.20683493201E+03 -0.15637616858E+03  0.33106229703E+03  0.15294330000E+03 0.  0.
<mgrwt>
<rscale>  0 0.29180257E+03</rscale>
<asrwt>0</asrwt>
<pdfrwt beam="1">  1        2 0.42732598E+00 0.29180257E+03</pdfrwt>
<pdfrwt beam="2">  1       -2 0.14729852E-01 0.29180257E+03</pdfrwt>
<totfact> 0.98770007E+01</totfact>
</mgrwt>
</event>
<event>
 4    1  0.4880711E-008  0.2639089E+03  0.7818608E-02  0.1104817E+00
          2   -1    0    0  501    0  0.00000000000E+00  0.00000000000E+00  0.68810224498E+03  0.68810224499E+03  0.25500000000E-02 0. -1.
         -2   -1    0    0    0  501 -0.00000000000E+00 -0.00000000000E+00 -0.13733075047E+03  0.13733075049E+03  0.25500000000E-02 0.  1.
    8880022    1    1    2    0    0 -0.92015218064E+02 -0.19439503413E+03  0.63743603484E+02  0.27149793673E+03  0.15294330000E+03 0.  0.
    8880022    1    1    2    0    0  0.92015218064E+02  0.19439503413E+03  0.48702789103E+03  0.55393505874E+03  0.15294330000E+03 0.  0.
<mgrwt>
<rscale>  0 0.26390885E+03</rscale>
<asrwt>0</asrwt>
<pdfrwt beam="1">  1        2 0.10586189E+00 0.26390885E+03</pdfrwt>
<pdfrwt beam="2">  1       -2 0.21127808E-01 0.26390885E+03</pdfrwt>
<totfact> 0.82118193E+02</totfact>
</mgrwt>
</event>
<event>
 4    1  0.4880711E-008  0.8759593E+03  0.7818608E-02  0.9456143E-01
         -2   -1    0    0    0  501 -0.00000000000E+00  0.00000000000E+00  0.52667344830E+03  0.52667344831E+03  0.25500000000E-02 0.  1.
          2   -1    0    0  501    0  0.00000000000E+00 -0.00000000000E+00 -0.16376663201E+04  0.16376663201E+04  0.25500000000E-02 0. -1.
    8880022    1    1    2    0    0  0.81635054447E+03  0.27836081605E+03 -0.91504291305E+03  0.12667312821E+04  0.15294330000E+03 0.  0.
    8880022    1    1    2    0    0 -0.81635054447E+03 -0.27836081605E+03 -0.19594995879E+03  0.89760848633E+03  0.15294330000E+03 0.  0.
<mgrwt>
<rscale>  0 0.87595925E+03</rscale>
<asrwt>0</asrwt>
<pdfrwt beam="1">  1        2 0.25194866E+00 0.87595925E+03</pdfrwt>
<pdfrwt beam="2">  1       -2 0.81026685E-01 0.87595925E+03</pdfrwt>
<totfact> 0.14429258E+01</totfact>
</mgrwt>
</event>
<event>
 4    1  0.4880711E-008  0.4127585E+03  0.7818608E-02  0.1039449E+00
         -2   -1    0    0    0  501 -0.00000000000E+00  0.00000000000E+00  0.17566871971E+03  0.17566871973E+03  0.25500000000E-02 0.  1.
          2   -1    0    0  501    0  0.00000000000E+00 -0.00000000000E+00 -0.20010814994E+04  0.20010814994E+04  0.25500000000E-02 0. -1.
    8880022    1    1    2    0    0 -0.14236664838E+00 -0.38337696977E+03 -0.13138884880E+03  0.43316579254E+03  0.15294330000E+03 0.  0.
    8880022    1    1    2    0    0  0.14236664838E+00  0.38337696977E+03 -0.16940239309E+04  0.17435844266E+04  0.15294330000E+03 0.  0.
<mgrwt>
<rscale>  0 0.41275849E+03</rscale>
<asrwt>0</asrwt>
<pdfrwt beam="1">  1        2 0.30785868E+00 0.41275849E+03</pdfrwt>
<pdfrwt beam="2">  1       -2 0.27025958E-01 0.41275849E+03</pdfrwt>
<totfact> 0.89473595E+01</totfact>
</mgrwt>
</event>
<event>
 4    1  0.4880711E-008  0.2455798E+03  0.7818608E-02  0.1116131E+00
          2   -1    0    0  501    0  0.00000000000E+00  0.00000000000E+00  0.18287482896E+04  0.18287482896E+04  0.25500000000E-02 0. -1.
         -2   -1    0    0    0  501 -0.00000000000E+00 -0.00000000000E+00 -0.18988793885E+03  0.18988793886E+03  0.25500000000E-02 0.  1.
    8880022    1    1    2    0    0 -0.12902382228E+03 -0.14237501818E+03 -0.98065147433E+02  0.26443566075E+03  0.15294330000E+03 0.  0.
    8880022    1    1    2    0    0  0.12902382228E+03  0.14237501818E+03  0.17369254982E+04  0.17542005677E+04  0.15294330000E+03 0.  0.
<mgrwt>
<rscale>  0 0.24557981E+03</rscale>
<asrwt>0</asrwt>
<pdfrwt beam="1">  1        2 0.28134590E+00 0.24557981E+03</pdfrwt>
<pdfrwt beam="2">  1       -2 0.29213528E-01 0.24557981E+03</pdfrwt>
<totfact> 0.99911403E+01</totfact>
</mgrwt>
</event>
<event>
 4    1  0.4880711E-008  0.3424620E+03  0.7818608E-02  0.1065752E+00
          2   -1    0    0  501    0  0.00000000000E+00  0.00000000000E+00  0.48834352224E+03  0.48834352225E+03  0.25500000000E-02 0. -1.
         -2   -1    0    0    0  501 -0.00000000000E+00 -0.00000000000E+00 -0.33368112972E+03  0.33368112973E+03  0.25500000000E-02 0.  1.
    8880022    1    1    2    0    0  0.18611033659E+03  0.24341627698E+03 -0.14026220970E+03  0.37007253582E+03  0.15294330000E+03 0.  0.
    8880022    1    1    2    0    0 -0.18611033659E+03 -0.24341627698E+03  0.29492460222E+03  0.45195211615E+03  0.15294330000E+03 0.  0.
<mgrwt>
<rscale>  0 0.34246196E+03</rscale>
<asrwt>0</asrwt>
<pdfrwt beam="1">  1        2 0.75129772E-01 0.34246196E+03</pdfrwt>
<pdfrwt beam="2">  1       -2 0.51335559E-01 0.34246196E+03</pdfrwt>
<totfact> 0.23361592E+02</totfact>
</mgrwt>
</event>
<event>
 4    1  0.4880711E-008  0.2304975E+03  0.7818608E-02  0.1126290E+00
         -2   -1    0    0    0  501 -0.00000000000E+00  0.00000000000E+00  0.71377701342E+02  0.71377701388E+02  0.25500000000E-02 0.  1.
          2   -1    0    0  501    0  0.00000000000E+00 -0.00000000000E+00 -0.10478504697E+04  0.10478504697E+04  0.25500000000E-02 0. -1.
    8880022    1    1    2    0    0  0.20422992819E+02  0.17123178531E+03 -0.78941757565E+03  0.82238019474E+03  0.15294330000E+03 0.  0.
    8880022    1    1    2    0    0 -0.20422992819E+02 -0.17123178531E+03 -0.18705519272E+03  0.29684797637E+03  0.15294330000E+03 0.  0.
<mgrwt>
<rscale>  0 0.23049745E+03</rscale>
<asrwt>0</asrwt>
<pdfrwt beam="1">  1        2 0.16120775E+00 0.23049745E+03</pdfrwt>
<pdfrwt beam="2">  1       -2 0.10981186E-01 0.23049745E+03</pdfrwt>
<totfact> 0.14026307E+03</totfact>
</mgrwt>
</event>
<event>
 4    1  0.4880711E-008  0.4291469E+03  0.7818608E-02  0.1034130E+00
         -2   -1    0    0    0  501 -0.00000000000E+00  0.00000000000E+00  0.17399566243E+03  0.17399566245E+03  0.25500000000E-02 0.  1.
          2   -1    0    0  501    0  0.00000000000E+00 -0.00000000000E+00 -0.30898025952E+04  0.30898025952E+04  0.25500000000E-02 0. -1.
    8880022    1    1    2    0    0 -0.19391753998E+03 -0.35095776922E+03 -0.13472082672E+03  0.44979631196E+03  0.15294330000E+03 0.  0.
    8880022    1    1    2    0    0  0.19391753998E+03  0.35095776922E+03 -0.27810861060E+04  0.28140019456E+04  0.15294330000E+03 0.  0.
<mgrwt>
<rscale>  0 0.42914685E+03</rscale>
<asrwt>0</asrwt>
<pdfrwt beam="1">  1        2 0.47535420E+00 0.42914685E+03</pdfrwt>
<pdfrwt beam="2">  1       -2 0.26768566E-01 0.42914685E+03</pdfrwt>
<totfact> 0.22036038E+01</totfact>
</mgrwt>
</event>
<event>
 4    1  0.4880711E-008  0.7137165E+03  0.7818608E-02  0.9694058E-01
          2   -1    0    0  501    0  0.00000000000E+00  0.00000000000E+00  0.14857296310E+04  0.14857296310E+04  0.25500000000E-02 0. -1.
         -2   -1    0    0    0  501 -0.00000000000E+00 -0.00000000000E+00 -0.48496655225E+03  0.48496655225E+03  0.25500000000E-02 0.  1.
    8880022    1    1    2    0    0 -0.62399169734E+03  0.31086011608E+03  0.10337741141E+04  0.12562166303E+04  0.15294330000E+03 0. -1.
    8880022    1    1    2    0    0  0.62399169734E+03 -0.31086011608E+03 -0.33011035395E+02  0.71447955296E+03  0.15294330000E+03 0.  0.
<mgrwt>
<rscale>  0 0.71371654E+03</rscale>
<asrwt>0</asrwt>
<pdfrwt beam="1">  1        2 0.22857379E+00 0.71371654E+03</pdfrwt>
<pdfrwt beam="2">  1       -2 0.74610240E-01 0.71371654E+03</pdfrwt>
<totfact> 0.21479252E+01</totfact>
</mgrwt>
</event>
<event>
 4    1  0.4880711E-008  0.3300686E+03  0.7818608E-02  0.1071107E+00
          2   -1    0    0  501    0  0.00000000000E+00  0.00000000000E+00  0.10540655867E+04  0.10540655867E+04  0.25500000000E-02 0. -1.
         -2   -1    0    0    0  501 -0.00000000000E+00 -0.00000000000E+00 -0.41813721597E+03  0.41813721598E+03  0.25500000000E-02 0.  1.
    8880022    1    1    2    0    0  0.17490354744E+03  0.23444053324E+03 -0.32071359820E+03  0.46022003392E+03  0.15294330000E+03 0.  0.
    8880022    1    1    2    0    0 -0.17490354744E+03 -0.23444053324E+03  0.95664196897E+03  0.10119827688E+04  0.15294330000E+03 0.  0.
<mgrwt>
<rscale>  0 0.33006858E+03</rscale>
<asrwt>0</asrwt>
<pdfrwt beam="1">  1        2 0.16216393E+00 0.33006858E+03</pdfrwt>
<pdfrwt beam="2">  1       -2 0.64328803E-01 0.33006858E+03</pdfrwt>
<totfact> 0.55704960E+01</totfact>
</mgrwt>
</event>
<event>
 4    1  0.4880711E-008  0.1533835E+04  0.7818608E-02  0.8862259E-01
         -2   -1    0    0    0  501 -0.00000000000E+00  0.00000000000E+00  0.14172119776E+04  0.14172119776E+04  0.25500000000E-02 0.  1.
          2   -1    0    0  501    0  0.00000000000E+00 -0.00000000000E+00 -0.30839730675E+04  0.30839730675E+04  0.25500000000E-02 0. -1.
    8880022    1    1    2    0    0 -0.29553088539E+03  0.14973045387E+04 -0.23626497861E+04  0.28168715006E+04  0.15294330000E+03 0.  0.
    8880022    1    1    2    0    0  0.29553088539E+03 -0.14973045387E+04  0.69588869618E+03  0.16843135445E+04  0.15294330000E+03 0.  0.
<mgrwt>
<rscale>  0 0.15338354E+04</rscale>
<asrwt>0</asrwt>
<pdfrwt beam="1">  1        2 0.47445739E+00 0.15338354E+04</pdfrwt>
<pdfrwt beam="2">  1       -2 0.21803261E+00 0.15338354E+04</pdfrwt>
<totfact> 0.14702633E-01</totfact>
</mgrwt>
</event>
<event>
 4    1  0.4880711E-008  0.6688805E+03  0.7818608E-02  0.9771982E-01
         -2   -1    0    0    0  501 -0.00000000000E+00  0.00000000000E+00  0.29334001324E+03  0.29334001325E+03  0.25500000000E-02 0.  1.
          2   -1    0    0  501    0  0.00000000000E+00 -0.00000000000E+00 -0.35775351927E+04  0.35775351927E+04  0.25500000000E-02 0. -1.
    8880022    1    1    2    0    0  0.48233529517E+03 -0.43744956662E+03 -0.31080225887E+04  0.31791831538E+04  0.15294330000E+03 0.  0.
    8880022    1    1    2    0    0 -0.48233529517E+03  0.43744956662E+03 -0.17617259074E+03  0.69169205218E+03  0.15294330000E+03 0.  0.
<mgrwt>
<rscale>  0 0.66888049E+03</rscale>
<asrwt>0</asrwt>
<pdfrwt beam="1">  1        2 0.55039000E+00 0.66888049E+03</pdfrwt>
<pdfrwt beam="2">  1       -2 0.45129235E-01 0.66888049E+03</pdfrwt>
<totfact> 0.36993464E+00</totfact>
</mgrwt>
</event>
<event>
 4    1  0.4880711E-008  0.5288510E+03  0.7818608E-02  0.1006511E+00
         -2   -1    0    0    0  501 -0.00000000000E+00  0.00000000000E+00  0.34692058217E+03  0.34692058218E+03  0.25500000000E-02 0.  1.
          2   -1    0    0  501    0  0.00000000000E+00 -0.00000000000E+00 -0.13267895382E+04  0.13267895382E+04  0.25500000000E-02 0. -1.
    8880022    1    1    2    0    0 -0.15305563928E+03 -0.48256159106E+03 -0.10141402007E+04  0.11437498492E+04  0.15294330000E+03 0.  0.
    8880022    1    1    2    0    0  0.15305563928E+03  0.48256159106E+03  0.34271244585E+02  0.52996027125E+03  0.15294330000E+03 0.  0.
<mgrwt>
<rscale>  0 0.52885099E+03</rscale>
<asrwt>0</asrwt>
<pdfrwt beam="1">  1        2 0.20412146E+00 0.52885099E+03</pdfrwt>
<pdfrwt beam="2">  1       -2 0.53372398E-01 0.52885099E+03</pdfrwt>
<totfact> 0.55169582E+01</totfact>
</mgrwt>
</event>
<event>
 4    1  0.4880711E-008  0.4406726E+03  0.7818608E-02  0.1030541E+00
          2   -1    0    0  501    0  0.00000000000E+00  0.00000000000E+00  0.18029509787E+04  0.18029509787E+04  0.25500000000E-02 0. -1.
         -2   -1    0    0    0  501 -0.00000000000E+00 -0.00000000000E+00 -0.21273351929E+03  0.21273351931E+03  0.25500000000E-02 0.  1.
    8880022    1    1    2    0    0 -0.39036632783E+03 -0.13570117212E+03  0.86964180268E+02  0.44917157043E+03  0.15294330000E+03 0.  0.
    8880022    1    1    2    0    0  0.39036632783E+03  0.13570117212E+03  0.15032532791E+04  0.15665129276E+04  0.15294330000E+03 0.  0.
<mgrwt>
<rscale>  0 0.44067259E+03</rscale>
<asrwt>0</asrwt>
<pdfrwt beam="1">  1        2 0.27737709E+00 0.44067259E+03</pdfrwt>
<pdfrwt beam="2">  1       -2 0.32728232E-01 0.44067259E+03</pdfrwt>
<totfact> 0.79923101E+01</totfact>
</mgrwt>
</event>
<event>
 4    1  0.4880711E-008  0.2798670E+03  0.7818608E-02  0.1095762E+00
          2   -1    0    0  501    0  0.00000000000E+00  0.00000000000E+00  0.11035052647E+04  0.11035052647E+04  0.25500000000E-02 0. -1.
         -2   -1    0    0    0  501 -0.00000000000E+00 -0.00000000000E+00 -0.17627010439E+03  0.17627010441E+03  0.25500000000E-02 0.  1.
    8880022    1    1    2    0    0  0.96198467789E+01  0.23418230698E+03 -0.30932807876E+02  0.28157128045E+03  0.15294330000E+03 0.  0.
    8880022    1    1    2    0    0 -0.96198467789E+01 -0.23418230698E+03  0.95816796822E+03  0.99820408870E+03  0.15294330000E+03 0.  0.
<mgrwt>
<rscale>  0 0.27986702E+03</rscale>
<asrwt>0</asrwt>
<pdfrwt beam="1">  1        2 0.16977004E+00 0.27986702E+03</pdfrwt>
<pdfrwt beam="2">  1       -2 0.27118478E-01 0.27986702E+03</pdfrwt>
<totfact> 0.28130448E+02</totfact>
</mgrwt>
</event>
<event>
 4    1  0.4880711E-008  0.1084585E+04  0.7818608E-02  0.9220348E-01
         -2   -1    0    0    0  501 -0.00000000000E+00  0.00000000000E+00  0.65691612796E+03  0.65691612797E+03  0.25500000000E-02 0.  1.
          2   -1    0    0  501    0  0.00000000000E+00 -0.00000000000E+00 -0.36542983294E+04  0.36542983294E+04  0.25500000000E-02 0. -1.
    8880022    1    1    2    0    0  0.20531017498E+03 -0.10539354908E+04  0.40691541216E+02  0.10853477513E+04  0.15294330000E+03 0.  0.
    8880022    1    1    2    0    0 -0.20531017498E+03  0.10539354908E+04 -0.30380737427E+04  0.32258667061E+04  0.15294330000E+03 0.  0.
<mgrwt>
<rscale>  0 0.10845847E+04</rscale>
<asrwt>0</asrwt>
<pdfrwt beam="1">  1        2 0.56219973E+00 0.10845847E+04</pdfrwt>
<pdfrwt beam="2">  1       -2 0.10106402E+00 0.10845847E+04</pdfrwt>
<totfact> 0.51955286E-01</totfact>
</mgrwt>
</event>
<event>
 4    1  0.4880711E-008  0.9816120E+03  0.7818608E-02  0.9328946E-01
          2   -1    0    0  501    0  0.00000000000E+00  0.00000000000E+00  0.26419042675E+04  0.26419042675E+04  0.25500000000E-02 0. -1.
         -2   -1    0    0    0  501 -0.00000000000E+00 -0.00000000000E+00 -0.61332442067E+03  0.61332442067E+03  0.25500000000E-02 0.  1.
    8880022    1    1    2    0    0 -0.65987357351E+03 -0.71044872291E+03 -0.21945749193E+02  0.98185731642E+03  0.15294330000E+03 0.  0.
    8880022    1    1    2    0    0  0.65987357351E+03  0.71044872291E+03  0.20505255960E+04  0.22733713717E+04  0.15294330000E+03 0.  0.
<mgrwt>
<rscale>  0 0.98161203E+03</rscale>
<asrwt>0</asrwt>
<pdfrwt beam="1">  1        2 0.40644682E+00 0.98161203E+03</pdfrwt>
<pdfrwt beam="2">  1       -2 0.94357602E-01 0.98161203E+03</pdfrwt>
<totfact> 0.27621028E+00</totfact>
</mgrwt>
</event>
<event>
 4    1  0.4880711E-008  0.3077724E+03  0.7818608E-02  0.1081419E+00
          2   -1    0    0  501    0  0.00000000000E+00  0.00000000000E+00  0.16357279129E+04  0.16357279129E+04  0.25500000000E-02 0. -1.
         -2   -1    0    0    0  501 -0.00000000000E+00 -0.00000000000E+00 -0.39253244809E+03  0.39253244809E+03  0.25500000000E-02 0.  1.
    8880022    1    1    2    0    0 -0.24162400721E+03 -0.11379819159E+03 -0.31474301398E+03  0.44021245681E+03  0.15294330000E+03 0.  1.
    8880022    1    1    2    0    0  0.24162400721E+03  0.11379819159E+03  0.15579384788E+04  0.15880479042E+04  0.15294330000E+03 0.  0.
<mgrwt>
<rscale>  0 0.30777239E+03</rscale>
<asrwt>0</asrwt>
<pdfrwt beam="1">  1        2 0.25165044E+00 0.30777239E+03</pdfrwt>
<pdfrwt beam="2">  1       -2 0.60389608E-01 0.30777239E+03</pdfrwt>
<totfact> 0.30280072E+01</totfact>
</mgrwt>
</event>
<event>
 4    1  0.4880711E-008  0.9187194E+03  0.7818608E-02  0.9402479E-01
          2   -1    0    0  501    0  0.00000000000E+00  0.00000000000E+00  0.32949081592E+04  0.32949081592E+04  0.25500000000E-02 0. -1.
         -2   -1    0    0    0  501 -0.00000000000E+00 -0.00000000000E+00 -0.38374216667E+03  0.38374216668E+03  0.25500000000E-02 0.  1.
    8880022    1    1    2    0    0 -0.61031030421E+03 -0.66945880627E+03  0.39505409788E+03  0.10000565754E+04  0.15294330000E+03 0.  0.
    8880022    1    1    2    0    0  0.61031030421E+03  0.66945880627E+03  0.25161118946E+04  0.26785937505E+04  0.15294330000E+03 0.  0.
<mgrwt>
<rscale>  0 0.91871944E+03</rscale>
<asrwt>0</asrwt>
<pdfrwt beam="1">  1        2 0.50690895E+00 0.91871944E+03</pdfrwt>
<pdfrwt beam="2">  1       -2 0.59037256E-01 0.91871944E+03</pdfrwt>
<totfact> 0.31418328E+00</totfact>
</mgrwt>
</event>
<event>
 4    1  0.4880711E-008  0.1745008E+03  0.7818608E-02  0.1173234E+00
          2   -1    0    0  501    0  0.00000000000E+00  0.00000000000E+00  0.61951571175E+03  0.61951571175E+03  0.25500000000E-02 0. -1.
         -2   -1    0    0    0  501 -0.00000000000E+00 -0.00000000000E+00 -0.49536164831E+02  0.49536164897E+02  0.25500000000E-02 0.  1.
    8880022    1    1    2    0    0  0.39257276047E+02 -0.74281437315E+02  0.25553523420E+03  0.30943298884E+03  0.15294330000E+03 0. -1.
    8880022    1    1    2    0    0 -0.39257276047E+02  0.74281437315E+02  0.31444431272E+03  0.35961888780E+03  0.15294330000E+03 0.  1.
<mgrwt>
<rscale>  0 0.17450077E+03</rscale>
<asrwt>0</asrwt>
<pdfrwt beam="1">  1        2 0.95310111E-01 0.17450077E+03</pdfrwt>
<pdfrwt beam="2">  1       -2 0.76209483E-02 0.17450077E+03</pdfrwt>
<totfact> 0.48538401E+03</totfact>
</mgrwt>
</event>
<event>
 4    1  0.4880711E-008  0.5793207E+03  0.7818608E-02  0.9949263E-01
         -2   -1    0    0    0  501 -0.00000000000E+00  0.00000000000E+00  0.13726558537E+04  0.13726558537E+04  0.25500000000E-02 0.  1.
          2   -1    0    0  501    0  0.00000000000E+00 -0.00000000000E+00 -0.53818374212E+03  0.53818374213E+03  0.25500000000E-02 0. -1.
    8880022    1    1    2    0    0 -0.53824248086E+03 -0.15005284376E+03  0.11230169768E+04  0.12636374509E+04  0.15294330000E+03 0.  0.
    8880022    1    1    2    0    0  0.53824248086E+03  0.15005284376E+03 -0.28854486524E+03  0.64720214492E+03  0.15294330000E+03 0.  0.
<mgrwt>
<rscale>  0 0.57932070E+03</rscale>
<asrwt>0</asrwt>
<pdfrwt beam="1">  1        2 0.82797501E-01 0.57932070E+03</pdfrwt>
<pdfrwt beam="2">  1       -2 0.21117782E+00 0.57932070E+03</pdfrwt>
<totfact> 0.66448682E+00</totfact>
</mgrwt>
</event>
<event>
 4    1  0.4880711E-008  0.6066098E+03  0.7818608E-02  0.9891787E-01
          2   -1    0    0  501    0  0.00000000000E+00  0.00000000000E+00  0.25182537255E+04  0.25182537255E+04  0.25500000000E-02 0. -1.
         -2   -1    0    0    0  501 -0.00000000000E+00 -0.00000000000E+00 -0.23513910828E+03  0.23513910829E+03  0.25500000000E-02 0.  1.
    8880022    1    1    2    0    0 -0.58598343252E+03  0.34744288054E+02  0.29450650880E+03  0.67432150009E+03  0.15294330000E+03 0.  0.
    8880022    1    1    2    0    0  0.58598343252E+03 -0.34744288054E+02  0.19886081084E+04  0.20790713337E+04  0.15294330000E+03 0.  0.
<mgrwt>
<rscale>  0 0.60660976E+03</rscale>
<asrwt>0</asrwt>
<pdfrwt beam="1">  1        2 0.38742365E+00 0.60660976E+03</pdfrwt>
<pdfrwt beam="2">  1       -2 0.36175248E-01 0.60660976E+03</pdfrwt>
<totfact> 0.26130186E+01</totfact>
</mgrwt>
</event>
<event>
 4    1  0.4880711E-008  0.4861803E+03  0.7818608E-02  0.1017450E+00
          2   -1    0    0  501    0  0.00000000000E+00  0.00000000000E+00  0.66045239387E+03  0.66045239388E+03  0.25500000000E-02 0. -1.
         -2   -1    0    0    0  501 -0.00000000000E+00 -0.00000000000E+00 -0.50400694663E+03  0.50400694664E+03  0.25500000000E-02 0.  1.
    8880022    1    1    2    0    0  0.11382993275E+03 -0.44723860032E+03  0.39171146244E+03  0.62434697246E+03  0.15294330000E+03 0.  0.
    8880022    1    1    2    0    0 -0.11382993275E+03  0.44723860032E+03 -0.23526601520E+03  0.54011236805E+03  0.15294330000E+03 0.  0.
<mgrwt>
<rscale>  0 0.48618029E+03</rscale>
<asrwt>0</asrwt>
<pdfrwt beam="1">  1        2 0.10160806E+00 0.48618029E+03</pdfrwt>
<pdfrwt beam="2">  1       -2 0.77539530E-01 0.48618029E+03</pdfrwt>
<totfact> 0.67631477E+01</totfact>
</mgrwt>
</event>
<event>
 4    1  0.4880711E-008  0.7245790E+03  0.7818608E-02  0.9676098E-01
          2   -1    0    0  501    0  0.00000000000E+00  0.00000000000E+00  0.45988380304E+03  0.45988380304E+03  0.25500000000E-02 0. -1.
         -2   -1    0    0    0  501 -0.00000000000E+00 -0.00000000000E+00 -0.15223816723E+04  0.15223816723E+04  0.25500000000E-02 0.  1.
    8880022    1    1    2    0    0  0.62779044879E+03  0.32787535233E+03 -0.35577453152E+02  0.72545192979E+03  0.15294330000E+03 0.  0.
    8880022    1    1    2    0    0 -0.62779044879E+03 -0.32787535233E+03 -0.10269204161E+04  0.12568135456E+04  0.15294330000E+03 0.  0.
<mgrwt>
<rscale>  0 0.72457901E+03</rscale>
<asrwt>0</asrwt>
<pdfrwt beam="1">  1        2 0.70751355E-01 0.72457901E+03</pdfrwt>
<pdfrwt beam="2">  1       -2 0.23421256E+00 0.72457901E+03</pdfrwt>
<totfact> 0.56151748E+00</totfact>
</mgrwt>
</event>
<event>
 4    1  0.4880711E-008  0.5957918E+03  0.7818608E-02  0.9914175E-01
          2   -1    0    0  501    0  0.00000000000E+00  0.00000000000E+00  0.52364746363E+03  0.52364746364E+03  0.25500000000E-02 0. -1.
         -2   -1    0    0    0  501 -0.00000000000E+00 -0.00000000000E+00 -0.75175913261E+03  0.75175913261E+03  0.25500000000E-02 0.  1.
    8880022    1    1    2    0    0  0.54277520017E+03 -0.19227909652E+03 -0.31397444593E+03  0.67345955676E+03  0.15294330000E+03 0.  0.
    8880022    1    1    2    0    0 -0.54277520017E+03  0.19227909652E+03  0.85862776947E+02  0.60194703949E+03  0.15294330000E+03 0.  0.
<mgrwt>
<rscale>  0 0.59579176E+03</rscale>
<asrwt>0</asrwt>
<pdfrwt beam="1">  1        2 0.80561148E-01 0.59579176E+03</pdfrwt>
<pdfrwt beam="2">  1       -2 0.11565525E+00 0.59579176E+03</pdfrwt>
<totfact> 0.34788472E+01</totfact>
</mgrwt>
</event>
<event>
 4    1  0.4880711E-008  0.1062676E+04  0.7818608E-02  0.9242354E-01
         -2   -1    0    0    0  501 -0.00000000000E+00  0.00000000000E+00  0.50719996172E+03  0.50719996173E+03  0.25500000000E-02 0.  1.
          2   -1    0    0  501    0  0.00000000000E+00 -0.00000000000E+00 -0.33231867161E+04  0.33231867161E+04  0.25500000000E-02 0. -1.
    8880022    1    1    2    0    0  0.84351778278E+03  0.62798564057E+03 -0.25082066330E+04  0.27240375147E+04  0.15294330000E+03 0.  0.
    8880022    1    1    2    0    0 -0.84351778278E+03 -0.62798564057E+03 -0.30778012139E+03  0.11063491631E+04  0.15294330000E+03 0.  0.
<mgrwt>
<rscale>  0 0.10626758E+04</rscale>
<asrwt>0</asrwt>
<pdfrwt beam="1">  1        2 0.51125948E+00 0.10626758E+04</pdfrwt>
<pdfrwt beam="2">  1       -2 0.78030765E-01 0.10626758E+04</pdfrwt>
<totfact> 0.16022220E+00</totfact>
</mgrwt>
</event>
<event>
 4    1  0.4880711E-008  0.1388227E+04  0.7818608E-02  0.8962385E-01
          2   -1    0    0  501    0  0.00000000000E+00  0.00000000000E+00  0.32311156777E+04  0.32311156777E+04  0.25500000000E-02 0. -1.
         -2   -1    0    0    0  501 -0.00000000000E+00 -0.00000000000E+00 -0.12032249907E+04  0.12032249907E+04  0.25500000000E-02 0.  1.
    8880022    1    1    2    0    0 -0.96130357267E+03 -0.98978615738E+03 -0.56055356488E+03  0.14971283005E+04  0.15294330000E+03 0.  0.
    8880022    1    1    2    0    0  0.96130357267E+03  0.98978615738E+03  0.25884442519E+04  0.29372123679E+04  0.15294330000E+03 0.  0.
<mgrwt>
<rscale>  0 0.13882265E+04</rscale>
<asrwt>0</asrwt>
<pdfrwt beam="1">  1        2 0.49709471E+00 0.13882265E+04</pdfrwt>
<pdfrwt beam="2">  1       -2 0.18511154E+00 0.13882265E+04</pdfrwt>
<totfact> 0.19868090E-01</totfact>
</mgrwt>
</event>
<event>
 4    1  0.4880711E-008  0.3464142E+03  0.7818608E-02  0.1064096E+00
         -2   -1    0    0    0  501 -0.00000000000E+00  0.00000000000E+00  0.66505561827E+02  0.66505561876E+02  0.25500000000E-02 0.  1.
          2   -1    0    0  501    0  0.00000000000E+00 -0.00000000000E+00 -0.29249309621E+04  0.29249309621E+04  0.25500000000E-02 0. -1.
    8880022    1    1    2    0    0 -0.24715183361E+03  0.18848637203E+03 -0.50344194993E+03  0.61111094841E+03  0.15294330000E+03 0.  0.
    8880022    1    1    2    0    0  0.24715183361E+03 -0.18848637203E+03 -0.23549834503E+04  0.23803255756E+04  0.15294330000E+03 0.  0.
<mgrwt>
<rscale>  0 0.34641419E+03</rscale>
<asrwt>0</asrwt>
<pdfrwt beam="1">  1        2 0.44998928E+00 0.34641419E+03</pdfrwt>
<pdfrwt beam="2">  1       -2 0.10231627E-01 0.34641419E+03</pdfrwt>
<totfact> 0.14466348E+02</totfact>
</mgrwt>
</event>
<event>
 4    1  0.4880711E-008  0.4548863E+03  0.7818608E-02  0.1026275E+00
          2   -1    0    0  501    0  0.00000000000E+00  0.00000000000E+00  0.16110639420E+04  0.16110639420E+04  0.25500000000E-02 0. -1.
         -2   -1    0    0    0  501 -0.00000000000E+00 -0.00000000000E+00 -0.18021950586E+03  0.18021950588E+03  0.25500000000E-02 0.  1.
    8880022    1    1    2    0    0  0.97364726439E+02  0.41719298254E+03  0.23533344895E+03  0.51215560121E+03  0.15294330000E+03 0.  0.
    8880022    1    1    2    0    0 -0.97364726439E+02 -0.41719298254E+03  0.11955109871E+04  0.12791278466E+04  0.15294330000E+03 0.  0.
<mgrwt>
<rscale>  0 0.45488628E+03</rscale>
<asrwt>0</asrwt>
<pdfrwt beam="1">  1        2 0.24785599E+00 0.45488628E+03</pdfrwt>
<pdfrwt beam="2">  1       -2 0.27726078E-01 0.45488628E+03</pdfrwt>
<totfact> 0.13724503E+02</totfact>
</mgrwt>
</event>
<event>
 4    1  0.4880711E-008  0.6646556E+03  0.7818608E-02  0.9779661E-01
         -2   -1    0    0    0  501 -0.00000000000E+00  0.00000000000E+00  0.10750969787E+04  0.10750969787E+04  0.25500000000E-02 0.  1.
          2   -1    0    0  501    0  0.00000000000E+00 -0.00000000000E+00 -0.75733670640E+03  0.75733670640E+03  0.25500000000E-02 0. -1.
    8880022    1    1    2    0    0  0.63376235589E+03 -0.12930875611E+03  0.77854948479E+03  0.10236730100E+04  0.15294330000E+03 0.  0.
    8880022    1    1    2    0    0 -0.63376235589E+03  0.12930875611E+03 -0.46078921251E+03  0.80876067506E+03  0.15294330000E+03 0.  0.
<mgrwt>
<rscale>  0 0.66465565E+03</rscale>
<asrwt>0</asrwt>
<pdfrwt beam="1">  1        2 0.11651334E+00 0.66465565E+03</pdfrwt>
<pdfrwt beam="2">  1       -2 0.16539954E+00 0.66465565E+03</pdfrwt>
<totfact> 0.87524810E+00</totfact>
</mgrwt>
</event>
<event>
 4    1  0.4880711E-008  0.1049708E+04  0.7818608E-02  0.9255645E-01
         -2   -1    0    0    0  501 -0.00000000000E+00  0.00000000000E+00  0.12506113209E+04  0.12506113209E+04  0.25500000000E-02 0.  1.
          2   -1    0    0  501    0  0.00000000000E+00 -0.00000000000E+00 -0.10694515742E+04  0.10694515742E+04  0.25500000000E-02 0. -1.
    8880022    1    1    2    0    0 -0.11629080051E+03 -0.10319749889E+04 -0.39627311982E+03  0.11220160277E+04  0.15294330000E+03 0.  0.
    8880022    1    1    2    0    0  0.11629080051E+03  0.10319749889E+04  0.57743286651E+03  0.11980468673E+04  0.15294330000E+03 0.  0.
<mgrwt>
<rscale>  0 0.10497083E+04</rscale>
<asrwt>0</asrwt>
<pdfrwt beam="1">  1        2 0.16453101E+00 0.10497083E+04</pdfrwt>
<pdfrwt beam="2">  1       -2 0.19240174E+00 0.10497083E+04</pdfrwt>
<totfact> 0.33532673E+00</totfact>
</mgrwt>
</event>
<event>
 4    1  0.7724442E-008  0.6960988E+03  0.7818608E-02  0.9723927E-01
         -2   -1    0    0    0  501 -0.00000000000E+00  0.00000000000E+00  0.18066868427E+04  0.18066868427E+04  0.25500000000E-02 0.  1.
          2   -1    0    0  501    0  0.00000000000E+00 -0.00000000000E+00 -0.16747905387E+04  0.16747905387E+04  0.25500000000E-02 0. -1.
    8880022    1    1    2    0    0  0.55653056967E+03 -0.38914726833E+03 -0.15293327614E+04  0.16803012288E+04  0.15294330000E+03 0.  0.
    8880022    1    1    2    0    0 -0.55653056967E+03  0.38914726833E+03  0.16612290654E+04  0.18011761525E+04  0.15294330000E+03 0.  0.
<mgrwt>
<rscale>  0 0.69609879E+03</rscale>
<asrwt>0</asrwt>
<pdfrwt beam="1">  1        2 0.25766008E+00 0.69609879E+03</pdfrwt>
<pdfrwt beam="2">  1       -2 0.27795182E+00 0.69609879E+03</pdfrwt>
<totfact> 0.46806714E-01</totfact>
</mgrwt>
</event>
<event>
 4    1  0.4880711E-008  0.4338149E+03  0.7818608E-02  0.1032662E+00
          2   -1    0    0  501    0  0.00000000000E+00  0.00000000000E+00  0.24682524044E+04  0.24682524044E+04  0.25500000000E-02 0. -1.
         -2   -1    0    0    0  501 -0.00000000000E+00 -0.00000000000E+00 -0.10232788644E+03  0.10232788647E+03  0.25500000000E-02 0.  1.
    8880022    1    1    2    0    0  0.17075639668E+03 -0.36830150566E+03  0.53407355492E+03  0.68806246894E+03  0.15294330000E+03 0.  0.
    8880022    1    1    2    0    0 -0.17075639668E+03  0.36830150566E+03  0.18318509630E+04  0.18825178219E+04  0.15294330000E+03 0.  0.
<mgrwt>
<rscale>  0 0.43381494E+03</rscale>
<asrwt>0</asrwt>
<pdfrwt beam="1">  1        2 0.37973113E+00 0.43381494E+03</pdfrwt>
<pdfrwt beam="2">  1       -2 0.15742752E-01 0.43381494E+03</pdfrwt>
<totfact> 0.12730230E+02</totfact>
</mgrwt>
</event>
<event>
 4    1  0.4880711E-008  0.1840279E+03  0.7818608E-02  0.1163961E+00
         -2   -1    0    0    0  501 -0.00000000000E+00  0.00000000000E+00  0.85007003898E+02  0.85007003936E+02  0.25500000000E-02 0.  1.
          2   -1    0    0  501    0  0.00000000000E+00 -0.00000000000E+00 -0.13967142279E+04  0.13967142279E+04  0.25500000000E-02 0. -1.
    8880022    1    1    2    0    0 -0.51117701597E+02 -0.88665727970E+02 -0.29502783245E+02  0.18637783658E+03  0.15294330000E+03 0.  0.
    8880022    1    1    2    0    0  0.51117701597E+02  0.88665727970E+02 -0.12822044407E+04  0.12953433952E+04  0.15294330000E+03 0. -1.
<mgrwt>
<rscale>  0 0.18402794E+03</rscale>
<asrwt>0</asrwt>
<pdfrwt beam="1">  1        2 0.21487910E+00 0.18402794E+03</pdfrwt>
<pdfrwt beam="2">  1       -2 0.13078002E-01 0.18402794E+03</pdfrwt>
<totfact> 0.67568252E+02</totfact>
</mgrwt>
</event>
<event>
 4    1  0.4880711E-008  0.2581733E+03  0.7818608E-02  0.1108246E+00
         -2   -1    0    0    0  501 -0.00000000000E+00  0.00000000000E+00  0.13818532997E+04  0.13818532997E+04  0.25500000000E-02 0.  1.
          2   -1    0    0  501    0  0.00000000000E+00 -0.00000000000E+00 -0.81232593251E+02  0.81232593291E+02  0.25500000000E-02 0. -1.
    8880022    1    1    2    0    0  0.11631600787E+03  0.17243082637E+03  0.18406240781E+03  0.31706848875E+03  0.15294330000E+03 0. -1.
    8880022    1    1    2    0    0 -0.11631600787E+03 -0.17243082637E+03  0.11165582986E+04  0.11460174042E+04  0.15294330000E+03 0.  0.
<mgrwt>
<rscale>  0 0.25817331E+03</rscale>
<asrwt>0</asrwt>
<pdfrwt beam="1">  1        2 0.12497322E-01 0.25817331E+03</pdfrwt>
<pdfrwt beam="2">  1       -2 0.21259281E+00 0.25817331E+03</pdfrwt>
<totfact> 0.58625199E+01</totfact>
</mgrwt>
</event>
<event>
 4    1  0.4880711E-008  0.9676320E+03  0.7818608E-02  0.9344776E-01
         -2   -1    0    0    0  501 -0.00000000000E+00  0.00000000000E+00  0.82173492511E+03  0.82173492512E+03  0.25500000000E-02 0.  1.
          2   -1    0    0  501    0  0.00000000000E+00 -0.00000000000E+00 -0.26158323655E+04  0.26158323655E+04  0.25500000000E-02 0. -1.
    8880022    1    1    2    0    0 -0.17672692342E+03  0.93898226580E+03 -0.21883221287E+04  0.23927109088E+04  0.15294330000E+03 0.  0.
    8880022    1    1    2    0    0  0.17672692342E+03 -0.93898226580E+03  0.39422468827E+03  0.10448563819E+04  0.15294330000E+03 0.  0.
<mgrwt>
<rscale>  0 0.96763203E+03</rscale>
<asrwt>0</asrwt>
<pdfrwt beam="1">  1        2 0.40243574E+00 0.96763203E+03</pdfrwt>
<pdfrwt beam="2">  1       -2 0.12642076E+00 0.96763203E+03</pdfrwt>
<totfact> 0.14078297E+00</totfact>
</mgrwt>
</event>
<event>
 4    1  0.4880711E-008  0.2379976E+03  0.7818608E-02  0.1121134E+00
         -2   -1    0    0    0  501 -0.00000000000E+00  0.00000000000E+00  0.12272336496E+03  0.12272336499E+03  0.25500000000E-02 0.  1.
          2   -1    0    0  501    0  0.00000000000E+00 -0.00000000000E+00 -0.15424459202E+04  0.15424459202E+04  0.25500000000E-02 0. -1.
    8880022    1    1    2    0    0 -0.15869758374E+03  0.89812513417E+02 -0.14068336034E+04  0.14268229222E+04  0.15294330000E+03 0. -1.
    8880022    1    1    2    0    0  0.15869758374E+03 -0.89812513417E+02 -0.12888951836E+02  0.23834636298E+03  0.15294330000E+03 0.  0.
<mgrwt>
<rscale>  0 0.23799761E+03</rscale>
<asrwt>0</asrwt>
<pdfrwt beam="1">  1        2 0.23729936E+00 0.23799761E+03</pdfrwt>
<pdfrwt beam="2">  1       -2 0.18880519E-01 0.23799761E+03</pdfrwt>
<totfact> 0.30436201E+02</totfact>
</mgrwt>
</event>
<event>
 4    1  0.4880711E-008  0.3163500E+03  0.7818608E-02  0.1077342E+00
          2   -1    0    0  501    0  0.00000000000E+00  0.00000000000E+00  0.19104113790E+04  0.19104113790E+04  0.25500000000E-02 0. -1.
         -2   -1    0    0    0  501 -0.00000000000E+00 -0.00000000000E+00 -0.15547819578E+03  0.15547819580E+03  0.25500000000E-02 0.  1.
    8880022    1    1    2    0    0  0.24897608181E+03 -0.12122936317E+03  0.17185845812E+04  0.17474582294E+04  0.15294330000E+03 0.  0.
    8880022    1    1    2    0    0 -0.24897608181E+03  0.12122936317E+03  0.36348601967E+02  0.31843134533E+03  0.15294330000E+03 0.  0.
<mgrwt>
<rscale>  0 0.31634997E+03</rscale>
<asrwt>0</asrwt>
<pdfrwt beam="1">  1        2 0.29390945E+00 0.31634997E+03</pdfrwt>
<pdfrwt beam="2">  1       -2 0.23919722E-01 0.31634997E+03</pdfrwt>
<totfact> 0.12694715E+02</totfact>
</mgrwt>
</event>
<event>
 4    1  0.4880711E-008  0.5363340E+03  0.7818608E-02  0.1004707E+00
          2   -1    0    0  501    0  0.00000000000E+00  0.00000000000E+00  0.41109709035E+04  0.41109709035E+04  0.25500000000E-02 0. -1.
         -2   -1    0    0    0  501 -0.00000000000E+00 -0.00000000000E+00 -0.42319879773E+03  0.42319879774E+03  0.25500000000E-02 0.  1.
    8880022    1    1    2    0    0  0.49940525495E+03  0.12188882654E+03  0.39150867860E+04  0.39516526529E+04  0.15294330000E+03 0.  0.
    8880022    1    1    2    0    0 -0.49940525495E+03 -0.12188882654E+03 -0.22731468021E+03  0.58251704830E+03  0.15294330000E+03 0.  0.
<mgrwt>
<rscale>  0 0.53633399E+03</rscale>
<asrwt>0</asrwt>
<pdfrwt beam="1">  1        2 0.63245703E+00 0.53633399E+03</pdfrwt>
<pdfrwt beam="2">  1       -2 0.65107511E-01 0.53633399E+03</pdfrwt>
<totfact> 0.72120051E-01</totfact>
</mgrwt>
</event>
<event>
 4    1  0.4880711E-008  0.9709414E+03  0.7818608E-02  0.9341003E-01
          2   -1    0    0  501    0  0.00000000000E+00  0.00000000000E+00  0.26347315880E+04  0.26347315880E+04  0.25500000000E-02 0. -1.
         -2   -1    0    0    0  501 -0.00000000000E+00 -0.00000000000E+00 -0.40944504392E+03  0.40944504393E+03  0.25500000000E-02 0.  1.
    8880022    1    1    2    0    0  0.46849712687E+03  0.83656797090E+03  0.57210792321E+03  0.11269581432E+04  0.15294330000E+03 0.  0.
    8880022    1    1    2    0    0 -0.46849712687E+03 -0.83656797090E+03  0.16531786209E+04  0.19172184887E+04  0.15294330000E+03 0.  0.
<mgrwt>
<rscale>  0 0.97094139E+03</rscale>
<asrwt>0</asrwt>
<pdfrwt beam="1">  1        2 0.40534331E+00 0.97094139E+03</pdfrwt>
<pdfrwt beam="2">  1       -2 0.62991547E-01 0.97094139E+03</pdfrwt>
<totfact> 0.69029106E+00</totfact>
</mgrwt>
</event>
<event>
 4    1  0.4880711E-008  0.7667899E+03  0.7818608E-02  0.9609372E-01
         -2   -1    0    0    0  501 -0.00000000000E+00  0.00000000000E+00  0.49549948584E+03  0.49549948585E+03  0.25500000000E-02 0.  1.
          2   -1    0    0  501    0  0.00000000000E+00 -0.00000000000E+00 -0.12112169112E+04  0.12112169112E+04  0.25500000000E-02 0. -1.
    8880022    1    1    2    0    0  0.34685881197E+03 -0.66653131764E+03 -0.47948084180E+03  0.90436085911E+03  0.15294330000E+03 0.  0.
    8880022    1    1    2    0    0 -0.34685881197E+03  0.66653131764E+03 -0.23623658356E+03  0.80235553793E+03  0.15294330000E+03 0.  0.
<mgrwt>
<rscale>  0 0.76678986E+03</rscale>
<asrwt>0</asrwt>
<pdfrwt beam="1">  1        2 0.18634106E+00 0.76678986E+03</pdfrwt>
<pdfrwt beam="2">  1       -2 0.76230690E-01 0.76678986E+03</pdfrwt>
<totfact> 0.29214046E+01</totfact>
</mgrwt>
</event>
<event>
 4    1  0.4880711E-008  0.6238906E+03  0.7818608E-02  0.9857044E-01
         -2   -1    0    0    0  501 -0.00000000000E+00  0.00000000000E+00  0.17150068522E+04  0.17150068522E+04  0.25500000000E-02 0.  1.
          2   -1    0    0  501    0  0.00000000000E+00 -0.00000000000E+00 -0.76241987429E+03  0.76241987430E+03  0.25500000000E-02 0. -1.
    8880022    1    1    2    0    0  0.54098520151E+03  0.27052334058E+03  0.15143878082E+04  0.16378675016E+04  0.15294330000E+03 0.  0.
    8880022    1    1    2    0    0 -0.54098520151E+03 -0.27052334058E+03 -0.56180083036E+03  0.83955922487E+03  0.15294330000E+03 0.  0.
<mgrwt>
<rscale>  0 0.62389063E+03</rscale>
<asrwt>0</asrwt>
<pdfrwt beam="1">  1        2 0.11729537E+00 0.62389063E+03</pdfrwt>
<pdfrwt beam="2">  1       -2 0.26384721E+00 0.62389063E+03</pdfrwt>
<totfact> 0.20524007E+00</totfact>
</mgrwt>
</event>
<event>
 4    1  0.4880711E-008  0.1884181E+03  0.7818608E-02  0.1159896E+00
         -2   -1    0    0    0  501 -0.00000000000E+00  0.00000000000E+00  0.11879980709E+03  0.11879980711E+03  0.25500000000E-02 0.  1.
          2   -1    0    0  501    0  0.00000000000E+00 -0.00000000000E+00 -0.23262303656E+04  0.23262303656E+04  0.25500000000E-02 0. -1.
    8880022    1    1    2    0    0  0.11401326134E+02 -0.10945203273E+03 -0.22450084711E+04  0.22529013352E+04  0.15294330000E+03 0. -1.
    8880022    1    1    2    0    0 -0.11401326134E+02  0.10945203273E+03  0.37577912540E+02  0.19212883759E+03  0.15294330000E+03 0.  0.
<mgrwt>
<rscale>  0 0.18841813E+03</rscale>
<asrwt>0</asrwt>
<pdfrwt beam="1">  1        2 0.35788156E+00 0.18841813E+03</pdfrwt>
<pdfrwt beam="2">  1       -2 0.18276895E-01 0.18841813E+03</pdfrwt>
<totfact> 0.12684670E+02</totfact>
</mgrwt>
</event>
<event>
 4    1  0.4880711E-008  0.3314234E+03  0.7818608E-02  0.1070509E+00
          2   -1    0    0  501    0  0.00000000000E+00  0.00000000000E+00  0.86244268979E+03  0.86244268979E+03  0.25500000000E-02 0. -1.
         -2   -1    0    0    0  501 -0.00000000000E+00 -0.00000000000E+00 -0.57286843864E+03  0.57286843865E+03  0.25500000000E-02 0.  1.
    8880022    1    1    2    0    0 -0.94222384108E+02  0.27851744919E+03  0.77765949518E+03  0.84533766664E+03  0.15294330000E+03 0.  0.
    8880022    1    1    2    0    0  0.94222384108E+02 -0.27851744919E+03 -0.48808524404E+03  0.58997346180E+03  0.15294330000E+03 0.  0.
<mgrwt>
<rscale>  0 0.33142342E+03</rscale>
<asrwt>0</asrwt>
<pdfrwt beam="1">  1        2 0.13268349E+00 0.33142342E+03</pdfrwt>
<pdfrwt beam="2">  1       -2 0.88133606E-01 0.33142342E+03</pdfrwt>
<totfact> 0.36952811E+01</totfact>
</mgrwt>
</event>
<event>
 4    1  0.4880711E-008  0.5446172E+03  0.7818608E-02  0.1002748E+00
          2   -1    0    0  501    0  0.00000000000E+00  0.00000000000E+00  0.11998291290E+04  0.11998291291E+04  0.25500000000E-02 0. -1.
         -2   -1    0    0    0  501 -0.00000000000E+00 -0.00000000000E+00 -0.47769307886E+03  0.47769307887E+03  0.25500000000E-02 0.  1.
    8880022    1    1    2    0    0  0.49698568911E+03  0.16193053102E+03  0.94368719695E+03  0.10895657166E+04  0.15294330000E+03 0.  0.
    8880022    1    1    2    0    0 -0.49698568911E+03 -0.16193053102E+03 -0.22155114676E+03  0.58795649134E+03  0.15294330000E+03 0.  1.
<mgrwt>
<rscale>  0 0.54461723E+03</rscale>
<asrwt>0</asrwt>
<pdfrwt beam="1">  1        2 0.18458909E+00 0.54461723E+03</pdfrwt>
<pdfrwt beam="2">  1       -2 0.73491244E-01 0.54461723E+03</pdfrwt>
<totfact> 0.33038480E+01</totfact>
</mgrwt>
</event>
<event>
 4    1  0.4880711E-008  0.3083932E+03  0.7818608E-02  0.1081119E+00
          2   -1    0    0  501    0  0.00000000000E+00  0.00000000000E+00  0.28473175991E+04  0.28473175991E+04  0.25500000000E-02 0. -1.
         -2   -1    0    0    0  501 -0.00000000000E+00 -0.00000000000E+00 -0.13302617833E+03  0.13302617836E+03  0.25500000000E-02 0.  1.
    8880022    1    1    2    0    0  0.58709738012E+02  0.26128124865E+03  0.67560704150E+02  0.31570686720E+03  0.15294330000E+03 0.  1.
    8880022    1    1    2    0    0 -0.58709738012E+02 -0.26128124865E+03  0.26467307167E+04  0.26646369103E+04  0.15294330000E+03 0.  0.
<mgrwt>
<rscale>  0 0.30839322E+03</rscale>
<asrwt>0</asrwt>
<pdfrwt beam="1">  1        2 0.43804886E+00 0.30839322E+03</pdfrwt>
<pdfrwt beam="2">  1       -2 0.20465566E-01 0.30839322E+03</pdfrwt>
<totfact> 0.51345078E+01</totfact>
</mgrwt>
</event>
<event>
 4    1  0.4880711E-008  0.3113432E+03  0.7818608E-02  0.1079704E+00
          2   -1    0    0  501    0  0.00000000000E+00  0.00000000000E+00  0.73002315464E+03  0.73002315465E+03  0.25500000000E-02 0. -1.
         -2   -1    0    0    0  501 -0.00000000000E+00 -0.00000000000E+00 -0.12769983265E+04  0.12769983265E+04  0.25500000000E-02 0.  1.
    8880022    1    1    2    0    0 -0.14802303424E+03  0.22722699650E+03  0.67641870415E+03  0.74463201848E+03  0.15294330000E+03 0.  0.
    8880022    1    1    2    0    0  0.14802303424E+03 -0.22722699650E+03 -0.12233938760E+04  0.12623894627E+04  0.15294330000E+03 0.  1.
<mgrwt>
<rscale>  0 0.31134319E+03</rscale>
<asrwt>0</asrwt>
<pdfrwt beam="1">  1        2 0.11231125E+00 0.31134319E+03</pdfrwt>
<pdfrwt beam="2">  1       -2 0.19646128E+00 0.31134319E+03</pdfrwt>
<totfact> 0.60567539E+00</totfact>
</mgrwt>
</event>
<event>
 4    1  0.4880711E-008  0.4660230E+03  0.7818608E-02  0.1023049E+00
         -2   -1    0    0    0  501 -0.00000000000E+00  0.00000000000E+00  0.71181467317E+03  0.71181467318E+03  0.25500000000E-02 0.  1.
          2   -1    0    0  501    0  0.00000000000E+00 -0.00000000000E+00 -0.81600843453E+03  0.81600843453E+03  0.25500000000E-02 0. -1.
    8880022    1    1    2    0    0  0.42131715696E+03  0.12758382353E+03 -0.65655419055E+03  0.80513404904E+03  0.15294330000E+03 0.  0.
    8880022    1    1    2    0    0 -0.42131715696E+03 -0.12758382353E+03  0.55236042919E+03  0.72268905867E+03  0.15294330000E+03 0.  0.
<mgrwt>
<rscale>  0 0.46602299E+03</rscale>
<asrwt>0</asrwt>
<pdfrwt beam="1">  1        2 0.12553976E+00 0.46602299E+03</pdfrwt>
<pdfrwt beam="2">  1       -2 0.10950995E+00 0.46602299E+03</pdfrwt>
<totfact> 0.23387889E+01</totfact>
</mgrwt>
</event>
<event>
 4    1  0.4880711E-008  0.3895467E+03  0.7818608E-02  0.1047461E+00
          2   -1    0    0  501    0  0.00000000000E+00  0.00000000000E+00  0.50459045666E+03  0.50459045666E+03  0.25500000000E-02 0. -1.
         -2   -1    0    0    0  501 -0.00000000000E+00 -0.00000000000E+00 -0.11990802635E+04  0.11990802635E+04  0.25500000000E-02 0.  1.
    8880022    1    1    2    0    0  0.30036410489E+03 -0.19528544715E+03  0.39007138389E+03  0.55127337948E+03  0.15294330000E+03 0. -1.
    8880022    1    1    2    0    0 -0.30036410489E+03  0.19528544715E+03 -0.10845611908E+04  0.11523973407E+04  0.15294330000E+03 0.  0.
<mgrwt>
<rscale>  0 0.38954673E+03</rscale>
<asrwt>0</asrwt>
<pdfrwt beam="1">  1        2 0.77629301E-01 0.38954673E+03</pdfrwt>
<pdfrwt beam="2">  1       -2 0.18447389E+00 0.38954673E+03</pdfrwt>
<totfact> 0.11020158E+01</totfact>
</mgrwt>
</event>
<event>
 4    1  0.4880711E-008  0.6796351E+03  0.7818608E-02  0.9752707E-01
         -2   -1    0    0    0  501 -0.00000000000E+00  0.00000000000E+00  0.58319827359E+03  0.58319827359E+03  0.25500000000E-02 0.  1.
          2   -1    0    0  501    0  0.00000000000E+00 -0.00000000000E+00 -0.11543596152E+04  0.11543596152E+04  0.25500000000E-02 0. -1.
    8880022    1    1    2    0    0 -0.17937316341E+03  0.63744603252E+03  0.20115987564E+03  0.70878002562E+03  0.15294330000E+03 0.  0.
    8880022    1    1    2    0    0  0.17937316341E+03 -0.63744603252E+03 -0.77232121728E+03  0.10287778632E+04  0.15294330000E+03 0.  0.
<mgrwt>
<rscale>  0 0.67963507E+03</rscale>
<asrwt>0</asrwt>
<pdfrwt beam="1">  1        2 0.17759379E+00 0.67963507E+03</pdfrwt>
<pdfrwt beam="2">  1       -2 0.89722812E-01 0.67963507E+03</pdfrwt>
<totfact> 0.22049014E+01</totfact>
</mgrwt>
</event>
<event>
 4    1  0.4880711E-008  0.6237429E+03  0.7818608E-02  0.9857336E-01
         -2   -1    0    0    0  501 -0.00000000000E+00  0.00000000000E+00  0.67485107386E+03  0.67485107386E+03  0.25500000000E-02 0.  1.
          2   -1    0    0  501    0  0.00000000000E+00 -0.00000000000E+00 -0.14128168958E+04  0.14128168958E+04  0.25500000000E-02 0. -1.
    8880022    1    1    2    0    0 -0.36248065233E+03  0.48401588711E+03  0.43412247478E+03  0.75994577334E+03  0.15294330000E+03 0.  0.
    8880022    1    1    2    0    0  0.36248065233E+03 -0.48401588711E+03 -0.11720882967E+04  0.13277221963E+04  0.15294330000E+03 0.  0.
<mgrwt>
<rscale>  0 0.62374294E+03</rscale>
<asrwt>0</asrwt>
<pdfrwt beam="1">  1        2 0.21735645E+00 0.62374294E+03</pdfrwt>
<pdfrwt beam="2">  1       -2 0.10382324E+00 0.62374294E+03</pdfrwt>
<totfact> 0.11194967E+01</totfact>
</mgrwt>
</event>
<event>
 4    1  0.4880711E-008  0.8070308E+03  0.7818608E-02  0.9549896E-01
          2   -1    0    0  501    0  0.00000000000E+00  0.00000000000E+00  0.17035391815E+04  0.17035391815E+04  0.25500000000E-02 0. -1.
         -2   -1    0    0    0  501 -0.00000000000E+00 -0.00000000000E+00 -0.10275882981E+04  0.10275882981E+04  0.25500000000E-02 0.  1.
    8880022    1    1    2    0    0 -0.70131564353E+03  0.36886767288E+03  0.14200875598E+04  0.16333852339E+04  0.15294330000E+03 0.  0.
    8880022    1    1    2    0    0  0.70131564353E+03 -0.36886767288E+03 -0.74413667635E+03  0.10977422457E+04  0.15294330000E+03 0.  0.
<mgrwt>
<rscale>  0 0.80703076E+03</rscale>
<asrwt>0</asrwt>
<pdfrwt beam="1">  1        2 0.26208295E+00 0.80703076E+03</pdfrwt>
<pdfrwt beam="2">  1       -2 0.15809051E+00 0.80703076E+03</pdfrwt>
<totfact> 0.25962265E+00</totfact>
</mgrwt>
</event>
<event>
 4    1  0.4880711E-008  0.4788825E+03  0.7818608E-02  0.1019443E+00
          2   -1    0    0  501    0  0.00000000000E+00  0.00000000000E+00  0.19881200183E+04  0.19881200183E+04  0.25500000000E-02 0. -1.
         -2   -1    0    0    0  501 -0.00000000000E+00 -0.00000000000E+00 -0.17442287824E+03  0.17442287826E+03  0.25500000000E-02 0.  1.
    8880022    1    1    2    0    0  0.16814949682E+03 -0.42150034879E+03  0.15361073503E+04  0.16090227599E+04  0.15294330000E+03 0.  0.
    8880022    1    1    2    0    0 -0.16814949682E+03  0.42150034879E+03  0.27758978983E+03  0.55352013671E+03  0.15294330000E+03 0.  0.
<mgrwt>
<rscale>  0 0.47888250E+03</rscale>
<asrwt>0</asrwt>
<pdfrwt beam="1">  1        2 0.30586460E+00 0.47888250E+03</pdfrwt>
<pdfrwt beam="2">  1       -2 0.26834291E-01 0.47888250E+03</pdfrwt>
<totfact> 0.90986232E+01</totfact>
</mgrwt>
</event>
<event>
 4    1  0.4880711E-008  0.7062634E+03  0.7818608E-02  0.9706581E-01
         -2   -1    0    0    0  501 -0.00000000000E+00  0.00000000000E+00  0.70305566790E+03  0.70305566790E+03  0.25500000000E-02 0.  1.
          2   -1    0    0  501    0  0.00000000000E+00 -0.00000000000E+00 -0.24421192027E+04  0.24421192027E+04  0.25500000000E-02 0. -1.
    8880022    1    1    2    0    0  0.66691511528E+03 -0.17504434883E+03  0.45506815438E+03  0.84017556094E+03  0.15294330000E+03 0.  0.
    8880022    1    1    2    0    0 -0.66691511528E+03  0.17504434883E+03 -0.21941316892E+04  0.23049993097E+04  0.15294330000E+03 0.  0.
<mgrwt>
<rscale>  0 0.70626337E+03</rscale>
<asrwt>0</asrwt>
<pdfrwt beam="1">  1        2 0.37571064E+00 0.70626337E+03</pdfrwt>
<pdfrwt beam="2">  1       -2 0.10816241E+00 0.70626337E+03</pdfrwt>
<totfact> 0.27217422E+00</totfact>
</mgrwt>
</event>
<event>
 4    1  0.4880711E-008  0.3419505E+03  0.7818608E-02  0.1065968E+00
          2   -1    0    0  501    0  0.00000000000E+00  0.00000000000E+00  0.25929525041E+04  0.25929525041E+04  0.25500000000E-02 0. -1.
         -2   -1    0    0    0  501 -0.00000000000E+00 -0.00000000000E+00 -0.14614809772E+03  0.14614809774E+03  0.25500000000E-02 0.  1.
    8880022    1    1    2    0    0 -0.94130344946E+02  0.29099480648E+03  0.84581313421E+02  0.35225580312E+03  0.15294330000E+03 0.  0.
    8880022    1    1    2    0    0  0.94130344946E+02 -0.29099480648E+03  0.23622230930E+04  0.23868447987E+04  0.15294330000E+03 0. -1.
<mgrwt>
<rscale>  0 0.34195051E+03</rscale>
<asrwt>0</asrwt>
<pdfrwt beam="1">  1        2 0.39891578E+00 0.34195051E+03</pdfrwt>
<pdfrwt beam="2">  1       -2 0.22484322E-01 0.34195051E+03</pdfrwt>
<totfact> 0.60157169E+01</totfact>
</mgrwt>
</event>
<event>
 4    1  0.4880711E-008  0.7331286E+03  0.7818608E-02  0.9662197E-01
         -2   -1    0    0    0  501 -0.00000000000E+00  0.00000000000E+00  0.37023464638E+03  0.37023464639E+03  0.25500000000E-02 0.  1.
          2   -1    0    0  501    0  0.00000000000E+00 -0.00000000000E+00 -0.20568136719E+04  0.20568136719E+04  0.25500000000E-02 0. -1.
    8880022    1    1    2    0    0  0.18125119422E+03  0.69371020189E+03 -0.18508353954E+03  0.75613055039E+03  0.15294330000E+03 0.  0.
    8880022    1    1    2    0    0 -0.18125119422E+03 -0.69371020189E+03 -0.15014954859E+04  0.16709177679E+04  0.15294330000E+03 0. -1.
<mgrwt>
<rscale>  0 0.73312856E+03</rscale>
<asrwt>0</asrwt>
<pdfrwt beam="1">  1        2 0.31643287E+00 0.73312856E+03</pdfrwt>
<pdfrwt beam="2">  1       -2 0.56959178E-01 0.73312856E+03</pdfrwt>
<totfact> 0.18631666E+01</totfact>
</mgrwt>
</event>
<event>
 4    1  0.4880711E-008  0.1039508E+04  0.7818608E-02  0.9266244E-01
          2   -1    0    0  501    0  0.00000000000E+00  0.00000000000E+00  0.22756601708E+04  0.22756601708E+04  0.25500000000E-02 0. -1.
         -2   -1    0    0    0  501 -0.00000000000E+00 -0.00000000000E+00 -0.69051218640E+03  0.69051218640E+03  0.25500000000E-02 0.  1.
    8880022    1    1    2    0    0  0.87942335088E+03 -0.53272779913E+03 -0.36278244529E+02  0.10401404242E+04  0.15294330000E+03 0.  0.
    8880022    1    1    2    0    0 -0.87942335088E+03  0.53272779913E+03  0.16214262289E+04  0.19260319330E+04  0.15294330000E+03 0.  0.
<mgrwt>
<rscale>  0 0.10395076E+04</rscale>
<asrwt>0</asrwt>
<pdfrwt beam="1">  1        2 0.35010157E+00 0.10395076E+04</pdfrwt>
<pdfrwt beam="2">  1       -2 0.10623264E+00 0.10395076E+04</pdfrwt>
<totfact> 0.33413590E+00</totfact>
</mgrwt>
</event>
<event>
 4    1  0.4880711E-008  0.4417893E+03  0.7818608E-02  0.1030199E+00
         -2   -1    0    0    0  501 -0.00000000000E+00  0.00000000000E+00  0.52993639640E+03  0.52993639641E+03  0.25500000000E-02 0.  1.
          2   -1    0    0  501    0  0.00000000000E+00 -0.00000000000E+00 -0.24048725570E+04  0.24048725570E+04  0.25500000000E-02 0. -1.
    8880022    1    1    2    0    0  0.12613952918E+03  0.39481001816E+03 -0.22878397111E+04  0.23301047891E+04  0.15294330000E+03 0.  0.
    8880022    1    1    2    0    0 -0.12613952918E+03 -0.39481001816E+03  0.41290355056E+03  0.60470416431E+03  0.15294330000E+03 0.  0.
<mgrwt>
<rscale>  0 0.44178930E+03</rscale>
<asrwt>0</asrwt>
<pdfrwt beam="1">  1        2 0.36998039E+00 0.44178930E+03</pdfrwt>
<pdfrwt beam="2">  1       -2 0.81528678E-01 0.44178930E+03</pdfrwt>
<totfact> 0.58781076E+00</totfact>
</mgrwt>
</event>
<event>
 4    1  0.4880711E-008  0.3413981E+03  0.7818608E-02  0.1066202E+00
         -2   -1    0    0    0  501 -0.00000000000E+00  0.00000000000E+00  0.18011636150E+03  0.18011636151E+03  0.25500000000E-02 0.  1.
          2   -1    0    0  501    0  0.00000000000E+00 -0.00000000000E+00 -0.34406283858E+04  0.34406283858E+04  0.25500000000E-02 0. -1.
    8880022    1    1    2    0    0  0.29274088395E+03 -0.86393127591E+02  0.10140022257E+01  0.34139958824E+03  0.15294330000E+03 0.  0.
    8880022    1    1    2    0    0 -0.29274088395E+03  0.86393127591E+02 -0.32615260265E+04  0.32793451591E+04  0.15294330000E+03 0.  0.
<mgrwt>
<rscale>  0 0.34139808E+03</rscale>
<asrwt>0</asrwt>
<pdfrwt beam="1">  1        2 0.52932739E+00 0.34139808E+03</pdfrwt>
<pdfrwt beam="2">  1       -2 0.27710212E-01 0.34139808E+03</pdfrwt>
<totfact> 0.12804998E+01</totfact>
</mgrwt>
</event>
<event>
 4    1  0.4880711E-008  0.5791178E+03  0.7818608E-02  0.9949703E-01
         -2   -1    0    0    0  501 -0.00000000000E+00  0.00000000000E+00  0.31711146699E+03  0.31711146700E+03  0.25500000000E-02 0.  1.
          2   -1    0    0  501    0  0.00000000000E+00 -0.00000000000E+00 -0.19443430568E+04  0.19443430568E+04  0.25500000000E-02 0. -1.
    8880022    1    1    2    0    0  0.93098294014E+02  0.55074357414E+03 -0.50008532214E+02  0.58127298502E+03  0.15294330000E+03 0.  1.
    8880022    1    1    2    0    0 -0.93098294014E+02 -0.55074357414E+03 -0.15772230576E+04  0.16801815387E+04  0.15294330000E+03 0.  0.
<mgrwt>
<rscale>  0 0.57911780E+03</rscale>
<asrwt>0</asrwt>
<pdfrwt beam="1">  1        2 0.29912969E+00 0.57911780E+03</pdfrwt>
<pdfrwt beam="2">  1       -2 0.48786381E-01 0.57911780E+03</pdfrwt>
<totfact> 0.30194297E+01</totfact>
</mgrwt>
</event>
<event>
 4    1  0.4880711E-008  0.8901152E+03  0.7818608E-02  0.9438023E-01
          2   -1    0    0  501    0  0.00000000000E+00  0.00000000000E+00  0.33462080429E+04  0.33462080429E+04  0.25500000000E-02 0. -1.
         -2   -1    0    0    0  501 -0.00000000000E+00 -0.00000000000E+00 -0.69133095226E+03  0.69133095227E+03  0.25500000000E-02 0.  1.
    8880022    1    1    2    0    0  0.76933696691E+03  0.42075420534E+03 -0.30951535670E+03  0.94239316584E+03  0.15294330000E+03 0.  0.
    8880022    1    1    2    0    0 -0.76933696691E+03 -0.42075420534E+03  0.29643924474E+04  0.30951458294E+04  0.15294330000E+03 0.  0.
<mgrwt>
<rscale>  0 0.89011523E+03</rscale>
<asrwt>0</asrwt>
<pdfrwt beam="1">  1        2 0.51480124E+00 0.89011523E+03</pdfrwt>
<pdfrwt beam="2">  1       -2 0.10635861E+00 0.89011523E+03</pdfrwt>
<totfact> 0.77577849E-01</totfact>
</mgrwt>
</event>
<event>
 4    1  0.4880711E-008  0.3839710E+03  0.7818608E-02  0.1049476E+00
          2   -1    0    0  501    0  0.00000000000E+00  0.00000000000E+00  0.19029659194E+04  0.19029659194E+04  0.25500000000E-02 0. -1.
         -2   -1    0    0    0  501 -0.00000000000E+00 -0.00000000000E+00 -0.11056808593E+03  0.11056808596E+03  0.25500000000E-02 0.  1.
    8880022    1    1    2    0    0 -0.29961763017E+03 -0.18512527251E+03  0.34541952896E+03  0.51647690638E+03  0.15294330000E+03 0.  1.
    8880022    1    1    2    0    0  0.29961763017E+03  0.18512527251E+03  0.14469783045E+04  0.14970570989E+04  0.15294330000E+03 0.  0.
<mgrwt>
<rscale>  0 0.38397102E+03</rscale>
<asrwt>0</asrwt>
<pdfrwt beam="1">  1        2 0.29276400E+00 0.38397102E+03</pdfrwt>
<pdfrwt beam="2">  1       -2 0.17010474E-01 0.38397102E+03</pdfrwt>
<totfact> 0.22789374E+02</totfact>
</mgrwt>
</event>
<event>
 4    1  0.5607854E-008  0.5181714E+03  0.7818608E-02  0.1009142E+00
          2   -1    0    0  501    0  0.00000000000E+00  0.00000000000E+00  0.20071724488E+04  0.20071724488E+04  0.25500000000E-02 0. -1.
         -2   -1    0    0    0  501 -0.00000000000E+00 -0.00000000000E+00 -0.74616725996E+03  0.74616725997E+03  0.25500000000E-02 0.  1.
    8880022    1    1    2    0    0 -0.43512680199E+03 -0.23616646836E+03 -0.61667399797E+03  0.80547402650E+03  0.15294330000E+03 0.  0.
    8880022    1    1    2    0    0  0.43512680199E+03  0.23616646836E+03  0.18776791868E+04  0.19478656823E+04  0.15294330000E+03 0.  0.
<mgrwt>
<rscale>  0 0.51817139E+03</rscale>
<asrwt>0</asrwt>
<pdfrwt beam="1">  1        2 0.30879576E+00 0.51817139E+03</pdfrwt>
<pdfrwt beam="2">  1       -2 0.11479496E+00 0.51817139E+03</pdfrwt>
<totfact> 0.42615694E+00</totfact>
</mgrwt>
</event>
<event>
 4    1  0.4880711E-008  0.2626043E+03  0.7818608E-02  0.1105589E+00
         -2   -1    0    0    0  501 -0.00000000000E+00  0.00000000000E+00  0.49425827732E+02  0.49425827798E+02  0.25500000000E-02 0.  1.
          2   -1    0    0  501    0  0.00000000000E+00 -0.00000000000E+00 -0.17547021521E+04  0.17547021521E+04  0.25500000000E-02 0. -1.
    8880022    1    1    2    0    0 -0.14714649453E+03  0.15465215233E+03 -0.44435589853E+03  0.51615229986E+03  0.15294330000E+03 0.  0.
    8880022    1    1    2    0    0  0.14714649453E+03 -0.15465215233E+03 -0.12609204258E+04  0.12879756800E+04  0.15294330000E+03 0.  0.
<mgrwt>
<rscale>  0 0.26260433E+03</rscale>
<asrwt>0</asrwt>
<pdfrwt beam="1">  1        2 0.26995413E+00 0.26260433E+03</pdfrwt>
<pdfrwt beam="2">  1       -2 0.76039749E-02 0.26260433E+03</pdfrwt>
<totfact> 0.10254292E+03</totfact>
</mgrwt>
</event>
<event>
 4    1  0.4880711E-008  0.6213147E+03  0.7818608E-02  0.9862146E-01
          2   -1    0    0  501    0  0.00000000000E+00  0.00000000000E+00  0.25245724821E+04  0.25245724821E+04  0.25500000000E-02 0. -1.
         -2   -1    0    0    0  501 -0.00000000000E+00 -0.00000000000E+00 -0.48539006568E+03  0.48539006569E+03  0.25500000000E-02 0.  1.
    8880022    1    1    2    0    0  0.33919587906E+03  0.49758064436E+03  0.22651624122E+04  0.23488279521E+04  0.15294330000E+03 0.  0.
    8880022    1    1    2    0    0 -0.33919587906E+03 -0.49758064436E+03 -0.22597999581E+03  0.66113459563E+03  0.15294330000E+03 0.  0.
<mgrwt>
<rscale>  0 0.62131473E+03</rscale>
<asrwt>0</asrwt>
<pdfrwt beam="1">  1        2 0.38839576E+00 0.62131473E+03</pdfrwt>
<pdfrwt beam="2">  1       -2 0.74675395E-01 0.62131473E+03</pdfrwt>
<totfact> 0.58506129E+00</totfact>
</mgrwt>
</event>
<event>
 4    1  0.4880711E-008  0.2481191E+03  0.7818608E-02  0.1114499E+00
          2   -1    0    0  501    0  0.00000000000E+00  0.00000000000E+00  0.20053674732E+04  0.20053674732E+04  0.25500000000E-02 0. -1.
         -2   -1    0    0    0  501 -0.00000000000E+00 -0.00000000000E+00 -0.15494898854E+03  0.15494898856E+03  0.25500000000E-02 0.  1.
    8880022    1    1    2    0    0  0.50688860705E+02 -0.18868516734E+03  0.18924640514E+04  0.19086600776E+04  0.15294330000E+03 0.  0.
    8880022    1    1    2    0    0 -0.50688860705E+02  0.18868516734E+03 -0.42045566765E+02  0.25165638413E+03  0.15294330000E+03 0.  1.
<mgrwt>
<rscale>  0 0.24811914E+03</rscale>
<asrwt>0</asrwt>
<pdfrwt beam="1">  1        2 0.30851806E+00 0.24811914E+03</pdfrwt>
<pdfrwt beam="2">  1       -2 0.23838307E-01 0.24811914E+03</pdfrwt>
<totfact> 0.11594284E+02</totfact>
</mgrwt>
</event>
<event>
 4    1  0.4880711E-008  0.2466100E+03  0.7818608E-02  0.1115466E+00
         -2   -1    0    0    0  501 -0.00000000000E+00  0.00000000000E+00  0.14408563688E+03  0.14408563690E+03  0.25500000000E-02 0.  1.
          2   -1    0    0  501    0  0.00000000000E+00 -0.00000000000E+00 -0.68511419608E+03  0.68511419609E+03  0.25500000000E-02 0. -1.
    8880022    1    1    2    0    0 -0.16686416343E+03 -0.97883653767E+02 -0.13623222584E+02  0.24698603993E+03  0.15294330000E+03 0.  0.
    8880022    1    1    2    0    0  0.16686416343E+03  0.97883653767E+02 -0.52740533662E+03  0.58221379306E+03  0.15294330000E+03 0. -1.
<mgrwt>
<rscale>  0 0.24661004E+03</rscale>
<asrwt>0</asrwt>
<pdfrwt beam="1">  1        2 0.10540218E+00 0.24661004E+03</pdfrwt>
<pdfrwt beam="2">  1       -2 0.22167022E-01 0.24661004E+03</pdfrwt>
<totfact> 0.75985124E+02</totfact>
</mgrwt>
</event>
<event>
 4    1  0.4880711E-008  0.3086266E+03  0.7818608E-02  0.1081006E+00
          2   -1    0    0  501    0  0.00000000000E+00  0.00000000000E+00  0.25629313464E+03  0.25629313466E+03  0.25500000000E-02 0. -1.
         -2   -1    0    0    0  501 -0.00000000000E+00 -0.00000000000E+00 -0.10977995480E+04  0.10977995480E+04  0.25500000000E-02 0.  1.
    8880022    1    1    2    0    0 -0.18728597559E+03 -0.19178818798E+03 -0.97139733140E+03  0.10192463756E+04  0.15294330000E+03 0.  0.
    8880022    1    1    2    0    0  0.18728597559E+03  0.19178818798E+03  0.12989091809E+03  0.33484630701E+03  0.15294330000E+03 0.  0.
<mgrwt>
<rscale>  0 0.30862663E+03</rscale>
<asrwt>0</asrwt>
<pdfrwt beam="1">  1        2 0.39429714E-01 0.30862663E+03</pdfrwt>
<pdfrwt beam="2">  1       -2 0.16889224E+00 0.30862663E+03</pdfrwt>
<totfact> 0.30127085E+01</totfact>
</mgrwt>
</event>
<event>
 4    1  0.4880711E-008  0.7028040E+03  0.7818608E-02  0.9712449E-01
         -2   -1    0    0    0  501 -0.00000000000E+00  0.00000000000E+00  0.42063880798E+03  0.42063880799E+03  0.25500000000E-02 0.  1.
          2   -1    0    0  501    0  0.00000000000E+00 -0.00000000000E+00 -0.25922263124E+04  0.25922263124E+04  0.25500000000E-02 0. -1.
    8880022    1    1    2    0    0  0.49303738344E+03  0.47692343130E+03 -0.21999557058E+04  0.23094888138E+04  0.15294330000E+03 0.  0.
    8880022    1    1    2    0    0 -0.49303738344E+03 -0.47692343130E+03  0.28368201348E+02  0.70337630658E+03  0.15294330000E+03 0.  0.
<mgrwt>
<rscale>  0 0.70280401E+03</rscale>
<asrwt>0</asrwt>
<pdfrwt beam="1">  1        2 0.39880404E+00 0.70280401E+03</pdfrwt>
<pdfrwt beam="2">  1       -2 0.64713664E-01 0.70280401E+03</pdfrwt>
<totfact> 0.71922477E+00</totfact>
</mgrwt>
</event>
<event>
 4    1  0.4880711E-008  0.1379191E+04  0.7818608E-02  0.8969020E-01
          2   -1    0    0  501    0  0.00000000000E+00  0.00000000000E+00  0.43697748998E+04  0.43697748998E+04  0.25500000000E-02 0. -1.
         -2   -1    0    0    0  501 -0.00000000000E+00 -0.00000000000E+00 -0.45752813566E+03  0.45752813566E+03  0.25500000000E-02 0.  1.
    8880022    1    1    2    0    0 -0.85827874199E+02 -0.13679949801E+04  0.14241311753E+04  0.19825029501E+04  0.15294330000E+03 0.  0.
    8880022    1    1    2    0    0  0.85827874199E+02  0.13679949801E+04  0.24881155888E+04  0.28448000854E+04  0.15294330000E+03 0.  0.
<mgrwt>
<rscale>  0 0.13791912E+04</rscale>
<asrwt>0</asrwt>
<pdfrwt beam="1">  1        2 0.67227308E+00 0.13791912E+04</pdfrwt>
<pdfrwt beam="2">  1       -2 0.70388942E-01 0.13791912E+04</pdfrwt>
<totfact> 0.30111011E-01</totfact>
</mgrwt>
</event>
<event>
 4    1  0.4880711E-008  0.2410528E+03  0.7818608E-02  0.1119093E+00
          2   -1    0    0  501    0  0.00000000000E+00  0.00000000000E+00  0.16285534359E+03  0.16285534361E+03  0.25500000000E-02 0. -1.
         -2   -1    0    0    0  501 -0.00000000000E+00 -0.00000000000E+00 -0.55170528339E+03  0.55170528339E+03  0.25500000000E-02 0.  1.
    8880022    1    1    2    0    0 -0.18326901932E+03  0.33575124398E+02  0.17933432765E+02  0.24171901755E+03  0.15294330000E+03 0.  0.
    8880022    1    1    2    0    0  0.18326901932E+03 -0.33575124398E+02 -0.40678337256E+03  0.47284160945E+03  0.15294330000E+03 0.  0.
<mgrwt>
<rscale>  0 0.24105285E+03</rscale>
<asrwt>0</asrwt>
<pdfrwt beam="1">  1        2 0.25054669E-01 0.24105285E+03</pdfrwt>
<pdfrwt beam="2">  1       -2 0.84877735E-01 0.24105285E+03</pdfrwt>
<totfact> 0.26911547E+02</totfact>
</mgrwt>
</event>
<event>
 4    1  0.4880711E-008  0.1131614E+04  0.7818608E-02  0.9174915E-01
         -2   -1    0    0    0  501 -0.00000000000E+00  0.00000000000E+00  0.96510118106E+03  0.96510118107E+03  0.25500000000E-02 0.  1.
          2   -1    0    0  501    0  0.00000000000E+00 -0.00000000000E+00 -0.16327402867E+04  0.16327402867E+04  0.25500000000E-02 0. -1.
    8880022    1    1    2    0    0  0.36588447317E+03 -0.10598528082E+04  0.22839502548E+03  0.11544329186E+04  0.15294330000E+03 0.  0.
    8880022    1    1    2    0    0 -0.36588447317E+03  0.10598528082E+04 -0.89603413116E+03  0.14434085492E+04  0.15294330000E+03 0.  0.
<mgrwt>
<rscale>  0 0.11316144E+04</rscale>
<asrwt>0</asrwt>
<pdfrwt beam="1">  1        2 0.25119081E+00 0.11316144E+04</pdfrwt>
<pdfrwt beam="2">  1       -2 0.14847710E+00 0.11316144E+04</pdfrwt>
<totfact> 0.32222399E+00</totfact>
</mgrwt>
</event>
<event>
 4    1  0.4880711E-008  0.7150633E+03  0.7818608E-02  0.9691813E-01
          2   -1    0    0  501    0  0.00000000000E+00  0.00000000000E+00  0.16472104334E+04  0.16472104334E+04  0.25500000000E-02 0. -1.
         -2   -1    0    0    0  501 -0.00000000000E+00 -0.00000000000E+00 -0.40424984520E+03  0.40424984521E+03  0.25500000000E-02 0.  1.
    8880022    1    1    2    0    0 -0.67918587987E+03  0.16318835928E+03  0.12728926723E+03  0.72630442005E+03  0.15294330000E+03 0.  0.
    8880022    1    1    2    0    0  0.67918587987E+03 -0.16318835928E+03  0.11156713209E+04  0.13251558585E+04  0.15294330000E+03 0.  0.
<mgrwt>
<rscale>  0 0.71506332E+03</rscale>
<asrwt>0</asrwt>
<pdfrwt beam="1">  1        2 0.25341699E+00 0.71506332E+03</pdfrwt>
<pdfrwt beam="2">  1       -2 0.62192284E-01 0.71506332E+03</pdfrwt>
<totfact> 0.25956907E+01</totfact>
</mgrwt>
</event>
<event>
 4    1  0.4880711E-008  0.7408689E+03  0.7818608E-02  0.9649786E-01
          2   -1    0    0  501    0  0.00000000000E+00  0.00000000000E+00  0.14865298323E+04  0.14865298323E+04  0.25500000000E-02 0. -1.
         -2   -1    0    0    0  501 -0.00000000000E+00 -0.00000000000E+00 -0.56016031818E+03  0.56016031819E+03  0.25500000000E-02 0.  1.
    8880022    1    1    2    0    0  0.94340668357E+02 -0.71874533708E+03  0.10606211900E+04  0.12937557663E+04  0.15294330000E+03 0.  0.
    8880022    1    1    2    0    0 -0.94340668357E+02  0.71874533708E+03 -0.13425167591E+03  0.75293438411E+03  0.15294330000E+03 0.  0.
<mgrwt>
<rscale>  0 0.74086886E+03</rscale>
<asrwt>0</asrwt>
<pdfrwt beam="1">  1        2 0.22869689E+00 0.74086886E+03</pdfrwt>
<pdfrwt beam="2">  1       -2 0.86178513E-01 0.74086886E+03</pdfrwt>
<totfact> 0.15464066E+01</totfact>
</mgrwt>
</event>
<event>
 4    1  0.4880711E-008  0.5633455E+03  0.7818608E-02  0.9984513E-01
         -2   -1    0    0    0  501 -0.00000000000E+00  0.00000000000E+00  0.58816298561E+03  0.58816298562E+03  0.25500000000E-02 0.  1.
          2   -1    0    0  501    0  0.00000000000E+00 -0.00000000000E+00 -0.66796924629E+03  0.66796924629E+03  0.25500000000E-02 0. -1.
    8880022    1    1    2    0    0  0.25313840963E+03 -0.47946577949E+03  0.23545609350E+03  0.61057162816E+03  0.15294330000E+03 0.  1.
    8880022    1    1    2    0    0 -0.25313840963E+03  0.47946577949E+03 -0.31526235417E+03  0.64556060375E+03  0.15294330000E+03 0.  0.
<mgrwt>
<rscale>  0 0.56334549E+03</rscale>
<asrwt>0</asrwt>
<pdfrwt beam="1">  1        2 0.10276450E+00 0.56334549E+03</pdfrwt>
<pdfrwt beam="2">  1       -2 0.90486612E-01 0.56334549E+03</pdfrwt>
<totfact> 0.46690015E+01</totfact>
</mgrwt>
</event>
<event>
 4    1  0.4880711E-008  0.8308509E+03  0.7818608E-02  0.9516405E-01
         -2   -1    0    0    0  501 -0.00000000000E+00  0.00000000000E+00  0.86262678674E+03  0.86262678674E+03  0.25500000000E-02 0.  1.
          2   -1    0    0  501    0  0.00000000000E+00 -0.00000000000E+00 -0.15360937439E+04  0.15360937439E+04  0.25500000000E-02 0. -1.
    8880022    1    1    2    0    0 -0.75509862690E+03  0.31104277633E+03 -0.11668421057E+04  0.14324223182E+04  0.15294330000E+03 0.  0.
    8880022    1    1    2    0    0  0.75509862690E+03 -0.31104277633E+03  0.49337514856E+03  0.96629821240E+03  0.15294330000E+03 0.  0.
<mgrwt>
<rscale>  0 0.83085089E+03</rscale>
<asrwt>0</asrwt>
<pdfrwt beam="1">  1        2 0.23632211E+00 0.83085089E+03</pdfrwt>
<pdfrwt beam="2">  1       -2 0.13271181E+00 0.83085089E+03</pdfrwt>
<totfact> 0.50638899E+00</totfact>
</mgrwt>
</event>
<event>
 4    1  0.4880711E-008  0.8083257E+03  0.7818608E-02  0.9548044E-01
         -2   -1    0    0    0  501 -0.00000000000E+00  0.00000000000E+00  0.10567452902E+04  0.10567452902E+04  0.25500000000E-02 0.  1.
          2   -1    0    0  501    0  0.00000000000E+00 -0.00000000000E+00 -0.23150988696E+04  0.23150988696E+04  0.25500000000E-02 0. -1.
    8880022    1    1    2    0    0 -0.79370113519E+03 -0.61122784682E+01 -0.20725123699E+04  0.22245669305E+04  0.15294330000E+03 0.  0.
    8880022    1    1    2    0    0  0.79370113519E+03  0.61122784682E+01  0.81415879040E+03  0.11472772293E+04  0.15294330000E+03 0.  0.
<mgrwt>
<rscale>  0 0.80832574E+03</rscale>
<asrwt>0</asrwt>
<pdfrwt beam="1">  1        2 0.35616906E+00 0.80832574E+03</pdfrwt>
<pdfrwt beam="2">  1       -2 0.16257620E+00 0.80832574E+03</pdfrwt>
<totfact> 0.11100686E+00</totfact>
</mgrwt>
</event>
<event>
 4    1  0.4880711E-008  0.1143097E+04  0.7818608E-02  0.9164176E-01
          2   -1    0    0  501    0  0.00000000000E+00  0.00000000000E+00  0.20239899924E+04  0.20239899924E+04  0.25500000000E-02 0. -1.
         -2   -1    0    0    0  501 -0.00000000000E+00 -0.00000000000E+00 -0.14199786412E+04  0.14199786412E+04  0.25500000000E-02 0.  1.
    8880022    1    1    2    0    0 -0.86626326886E+03  0.72997713427E+03  0.15736551311E+04  0.19450092010E+04  0.15294330000E+03 0.  0.
    8880022    1    1    2    0    0  0.86626326886E+03 -0.72997713427E+03 -0.96964377990E+03  0.14989594326E+04  0.15294330000E+03 0.  0.
<mgrwt>
<rscale>  0 0.11430968E+04</rscale>
<asrwt>0</asrwt>
<pdfrwt beam="1">  1        2 0.31138307E+00 0.11430968E+04</pdfrwt>
<pdfrwt beam="2">  1       -2 0.21845825E+00 0.11430968E+04</pdfrwt>
<totfact> 0.64134795E-01</totfact>
</mgrwt>
</event>
<event>
 4    1  0.4880711E-008  0.5654297E+03  0.7818608E-02  0.9979843E-01
         -2   -1    0    0    0  501 -0.00000000000E+00  0.00000000000E+00  0.53912641606E+03  0.53912641607E+03  0.25500000000E-02 0.  1.
          2   -1    0    0  501    0  0.00000000000E+00 -0.00000000000E+00 -0.69703861898E+03  0.69703861898E+03  0.25500000000E-02 0. -1.
    8880022    1    1    2    0    0  0.15263087626E+03 -0.52251588694E+03 -0.31772708533E+03  0.64858398860E+03  0.15294330000E+03 0.  0.
    8880022    1    1    2    0    0 -0.15263087626E+03  0.52251588694E+03  0.15981488242E+03  0.58758104645E+03  0.15294330000E+03 0.  0.
<mgrwt>
<rscale>  0 0.56542965E+03</rscale>
<asrwt>0</asrwt>
<pdfrwt beam="1">  1        2 0.10723671E+00 0.56542965E+03</pdfrwt>
<pdfrwt beam="2">  1       -2 0.82942525E-01 0.56542965E+03</pdfrwt>
<totfact> 0.53986274E+01</totfact>
</mgrwt>
</event>
<event>
 4    1  0.4880711E-008  0.5477140E+03  0.7818608E-02  0.1002024E+00
         -2   -1    0    0    0  501 -0.00000000000E+00  0.00000000000E+00  0.84941747534E+03  0.84941747534E+03  0.25500000000E-02 0.  1.
          2   -1    0    0  501    0  0.00000000000E+00 -0.00000000000E+00 -0.10244939563E+04  0.10244939563E+04  0.25500000000E-02 0. -1.
    8880022    1    1    2    0    0  0.51021670868E+03  0.12758470488E+03 -0.84599310367E+03  0.10078169135E+04  0.15294330000E+03 0.  0.
    8880022    1    1    2    0    0 -0.51021670868E+03 -0.12758470488E+03  0.67091662268E+03  0.86609451813E+03  0.15294330000E+03 0.  0.
<mgrwt>
<rscale>  0 0.54771398E+03</rscale>
<asrwt>0</asrwt>
<pdfrwt beam="1">  1        2 0.15761445E+00 0.54771398E+03</pdfrwt>
<pdfrwt beam="2">  1       -2 0.13067961E+00 0.54771398E+03</pdfrwt>
<totfact> 0.10899549E+01</totfact>
</mgrwt>
</event>
<event>
 4    1  0.4880711E-008  0.6469765E+03  0.7818608E-02  0.9812469E-01
         -2   -1    0    0    0  501 -0.00000000000E+00  0.00000000000E+00  0.29372090597E+03  0.29372090598E+03  0.25500000000E-02 0.  1.
          2   -1    0    0  501    0  0.00000000000E+00 -0.00000000000E+00 -0.25766761819E+04  0.25766761819E+04  0.25500000000E-02 0. -1.
    8880022    1    1    2    0    0 -0.60926186242E+03  0.15487696380E+03 -0.18200984087E+03  0.67209086149E+03  0.15294330000E+03 0.  0.
    8880022    1    1    2    0    0  0.60926186242E+03 -0.15487696380E+03 -0.21009454350E+04  0.21983062264E+04  0.15294330000E+03 0.  0.
<mgrwt>
<rscale>  0 0.64697646E+03</rscale>
<asrwt>0</asrwt>
<pdfrwt beam="1">  1        2 0.39641171E+00 0.64697646E+03</pdfrwt>
<pdfrwt beam="2">  1       -2 0.45187833E-01 0.64697646E+03</pdfrwt>
<totfact> 0.15576654E+01</totfact>
</mgrwt>
</event>
<event>
 4    1  0.4880711E-008  0.8132568E+03  0.7818608E-02  0.9541024E-01
          2   -1    0    0  501    0  0.00000000000E+00  0.00000000000E+00  0.41324148825E+03  0.41324148826E+03  0.25500000000E-02 0. -1.
         -2   -1    0    0    0  501 -0.00000000000E+00 -0.00000000000E+00 -0.25277752939E+04  0.25277752939E+04  0.25500000000E-02 0.  1.
    8880022    1    1    2    0    0  0.31231755587E+03  0.73515488524E+03 -0.19479151938E+04  0.21108671716E+04  0.15294330000E+03 0.  0.
    8880022    1    1    2    0    0 -0.31231755587E+03 -0.73515488524E+03 -0.16661861182E+03  0.83014961050E+03  0.15294330000E+03 0.  0.
<mgrwt>
<rscale>  0 0.81325679E+03</rscale>
<asrwt>0</asrwt>
<pdfrwt beam="1">  1        2 0.63575615E-01 0.81325679E+03</pdfrwt>
<pdfrwt beam="2">  1       -2 0.38888850E+00 0.81325679E+03</pdfrwt>
<totfact> 0.70542918E-01</totfact>
</mgrwt>
</event>
<event>
 4    1  0.4880711E-008  0.7751769E+03  0.7818608E-02  0.9596659E-01
         -2   -1    0    0    0  501 -0.00000000000E+00  0.00000000000E+00  0.26544833145E+03  0.26544833146E+03  0.25500000000E-02 0.  1.
          2   -1    0    0  501    0  0.00000000000E+00 -0.00000000000E+00 -0.31389617067E+04  0.31389617067E+04  0.25500000000E-02 0. -1.
    8880022    1    1    2    0    0  0.74991069178E+03 -0.12305109000E+03 -0.53791295561E+03  0.94353040080E+03  0.15294330000E+03 0.  0.
    8880022    1    1    2    0    0 -0.74991069178E+03  0.12305109000E+03 -0.23356004197E+04  0.24608796374E+04  0.15294330000E+03 0.  0.
<mgrwt>
<rscale>  0 0.77517693E+03</rscale>
<asrwt>0</asrwt>
<pdfrwt beam="1">  1        2 0.48291716E+00 0.77517693E+03</pdfrwt>
<pdfrwt beam="2">  1       -2 0.40838207E-01 0.77517693E+03</pdfrwt>
<totfact> 0.85785215E+00</totfact>
</mgrwt>
</event>
<event>
 4    1  0.4880711E-008  0.5112158E+03  0.7818608E-02  0.1010892E+00
          2   -1    0    0  501    0  0.00000000000E+00  0.00000000000E+00  0.85501608373E+03  0.85501608374E+03  0.25500000000E-02 0. -1.
         -2   -1    0    0    0  501 -0.00000000000E+00 -0.00000000000E+00 -0.49247732218E+03  0.49247732219E+03  0.25500000000E-02 0.  1.
    8880022    1    1    2    0    0  0.44984188322E+03  0.18865910704E+03  0.59623834758E+03  0.78539276716E+03  0.15294330000E+03 0.  0.
    8880022    1    1    2    0    0 -0.44984188322E+03 -0.18865910704E+03 -0.23369958603E+03  0.56210063876E+03  0.15294330000E+03 0.  0.
<mgrwt>
<rscale>  0 0.51121584E+03</rscale>
<asrwt>0</asrwt>
<pdfrwt beam="1">  1        2 0.13154094E+00 0.51121584E+03</pdfrwt>
<pdfrwt beam="2">  1       -2 0.75765742E-01 0.51121584E+03</pdfrwt>
<totfact> 0.51022375E+01</totfact>
</mgrwt>
</event>
<event>
 4    1  0.4880711E-008  0.6499742E+03  0.7818608E-02  0.9806828E-01
          2   -1    0    0  501    0  0.00000000000E+00  0.00000000000E+00  0.75477549703E+03  0.75477549703E+03  0.25500000000E-02 0. -1.
         -2   -1    0    0    0  501 -0.00000000000E+00 -0.00000000000E+00 -0.75608840161E+03  0.75608840161E+03  0.25500000000E-02 0.  1.
    8880022    1    1    2    0    0  0.62353282537E+03  0.10139840795E+03  0.38432489347E+03  0.75509740974E+03  0.15294330000E+03 0.  0.
    8880022    1    1    2    0    0 -0.62353282537E+03 -0.10139840795E+03 -0.38563779805E+03  0.75576648890E+03  0.15294330000E+03 0.  0.
<mgrwt>
<rscale>  0 0.64997421E+03</rscale>
<asrwt>0</asrwt>
<pdfrwt beam="1">  1        2 0.11611931E+00 0.64997421E+03</pdfrwt>
<pdfrwt beam="2">  1       -2 0.11632129E+00 0.64997421E+03</pdfrwt>
<totfact> 0.21846578E+01</totfact>
</mgrwt>
</event>
<event>
 4    1  0.4880711E-008  0.4652346E+03  0.7818608E-02  0.1023274E+00
         -2   -1    0    0    0  501 -0.00000000000E+00  0.00000000000E+00  0.84435816316E+02  0.84435816354E+02  0.25500000000E-02 0.  1.
          2   -1    0    0  501    0  0.00000000000E+00 -0.00000000000E+00 -0.33582111164E+04  0.33582111164E+04  0.25500000000E-02 0. -1.
    8880022    1    1    2    0    0 -0.43300483275E+03 -0.74554549206E+02 -0.79947597662E+03  0.92498921950E+03  0.15294330000E+03 0.  0.
    8880022    1    1    2    0    0  0.43300483275E+03  0.74554549206E+02 -0.24742993234E+04  0.25176577132E+04  0.15294330000E+03 0.  0.
<mgrwt>
<rscale>  0 0.46523458E+03</rscale>
<asrwt>0</asrwt>
<pdfrwt beam="1">  1        2 0.51664776E+00 0.46523458E+03</pdfrwt>
<pdfrwt beam="2">  1       -2 0.12990128E-01 0.46523458E+03</pdfrwt>
<totfact> 0.51325181E+01</totfact>
</mgrwt>
</event>
<event>
 4    1  0.4880711E-008  0.1295283E+04  0.7818608E-02  0.9033315E-01
         -2   -1    0    0    0  501 -0.00000000000E+00  0.00000000000E+00  0.18242386724E+04  0.18242386724E+04  0.25500000000E-02 0.  1.
          2   -1    0    0  501    0  0.00000000000E+00 -0.00000000000E+00 -0.13778718452E+04  0.13778718452E+04  0.25500000000E-02 0. -1.
    8880022    1    1    2    0    0 -0.93566826954E+03  0.88254746170E+03 -0.70005729124E+03  0.14723576321E+04  0.15294330000E+03 0.  0.
    8880022    1    1    2    0    0  0.93566826954E+03 -0.88254746170E+03  0.11464241184E+04  0.17297528856E+04  0.15294330000E+03 0.  0.
<mgrwt>
<rscale>  0 0.12952825E+04</rscale>
<asrwt>0</asrwt>
<pdfrwt beam="1">  1        2 0.21198028E+00 0.12952825E+04</pdfrwt>
<pdfrwt beam="2">  1       -2 0.28065210E+00 0.12952825E+04</pdfrwt>
<totfact> 0.59869213E-01</totfact>
</mgrwt>
</event>
<event>
 4    1  0.4880711E-008  0.1172716E+04  0.7818608E-02  0.9137079E-01
          2   -1    0    0  501    0  0.00000000000E+00  0.00000000000E+00  0.43001765253E+04  0.43001765253E+04  0.25500000000E-02 0. -1.
         -2   -1    0    0    0  501 -0.00000000000E+00 -0.00000000000E+00 -0.88605639248E+03  0.88605639248E+03  0.25500000000E-02 0.  1.
    8880022    1    1    2    0    0 -0.84585195712E+03 -0.79775008658E+03 -0.36590517034E+03  0.12284742491E+04  0.15294330000E+03 0.  0.
    8880022    1    1    2    0    0  0.84585195712E+03  0.79775008658E+03  0.37800253032E+04  0.39577586687E+04  0.15294330000E+03 0.  0.
<mgrwt>
<rscale>  0 0.11727158E+04</rscale>
<asrwt>0</asrwt>
<pdfrwt beam="1">  1        2 0.66156564E+00 0.11727158E+04</pdfrwt>
<pdfrwt beam="2">  1       -2 0.13631636E+00 0.11727158E+04</pdfrwt>
<totfact> 0.74689429E-02</totfact>
</mgrwt>
</event>
<event>
 4    1  0.4880711E-008  0.6386723E+03  0.7818608E-02  0.9828270E-01
         -2   -1    0    0    0  501 -0.00000000000E+00  0.00000000000E+00  0.61964138159E+03  0.61964138159E+03  0.25500000000E-02 0.  1.
          2   -1    0    0  501    0  0.00000000000E+00 -0.00000000000E+00 -0.28976356463E+04  0.28976356463E+04  0.25500000000E-02 0. -1.
    8880022    1    1    2    0    0 -0.14424157159E+02 -0.61992144540E+03  0.40702419342E+03  0.75734470475E+03  0.15294330000E+03 0.  0.
    8880022    1    1    2    0    0  0.14424157159E+02  0.61992144540E+03 -0.26850184582E+04  0.27599323232E+04  0.15294330000E+03 0.  0.
<mgrwt>
<rscale>  0 0.63867230E+03</rscale>
<asrwt>0</asrwt>
<pdfrwt beam="1">  1        2 0.44579009E+00 0.63867230E+03</pdfrwt>
<pdfrwt beam="2">  1       -2 0.95329445E-01 0.63867230E+03</pdfrwt>
<totfact> 0.20333901E+00</totfact>
</mgrwt>
</event>
<event>
 4    1  0.4880711E-008  0.7970317E+03  0.7818608E-02  0.9564324E-01
          2   -1    0    0  501    0  0.00000000000E+00  0.00000000000E+00  0.20546861657E+04  0.20546861657E+04  0.25500000000E-02 0. -1.
         -2   -1    0    0    0  501 -0.00000000000E+00 -0.00000000000E+00 -0.46225610541E+03  0.46225610542E+03  0.25500000000E-02 0.  1.
    8880022    1    1    2    0    0  0.77909947275E+03 -0.69798988670E+02  0.72010256730E+02  0.80027808751E+03  0.15294330000E+03 0.  0.
    8880022    1    1    2    0    0 -0.77909947275E+03  0.69798988670E+02  0.15204198036E+04  0.17166641836E+04  0.15294330000E+03 0.  0.
<mgrwt>
<rscale>  0 0.79703171E+03</rscale>
<asrwt>0</asrwt>
<pdfrwt beam="1">  1        2 0.31610557E+00 0.79703171E+03</pdfrwt>
<pdfrwt beam="2">  1       -2 0.71116322E-01 0.79703171E+03</pdfrwt>
<totfact> 0.11513301E+01</totfact>
</mgrwt>
</event>
<event>
 4    1  0.4880711E-008  0.6460419E+03  0.7818608E-02  0.9814235E-01
         -2   -1    0    0    0  501 -0.00000000000E+00  0.00000000000E+00  0.69412864627E+03  0.69412864627E+03  0.25500000000E-02 0.  1.
          2   -1    0    0  501    0  0.00000000000E+00 -0.00000000000E+00 -0.85263849090E+03  0.85263849090E+03  0.25500000000E-02 0. -1.
    8880022    1    1    2    0    0 -0.55186175533E+03  0.29904371478E+03 -0.49916241788E+03  0.81641491460E+03  0.15294330000E+03 0.  0.
    8880022    1    1    2    0    0  0.55186175533E+03 -0.29904371478E+03  0.34065257325E+03  0.73035222257E+03  0.15294330000E+03 0.  0.
<mgrwt>
<rscale>  0 0.64604194E+03</rscale>
<asrwt>0</asrwt>
<pdfrwt beam="1">  1        2 0.13117515E+00 0.64604194E+03</pdfrwt>
<pdfrwt beam="2">  1       -2 0.10678902E+00 0.64604194E+03</pdfrwt>
<totfact> 0.22885374E+01</totfact>
</mgrwt>
</event>
<event>
 4    1  0.4880711E-008  0.5431431E+03  0.7818608E-02  0.1003094E+00
         -2   -1    0    0    0  501 -0.00000000000E+00  0.00000000000E+00  0.26726148038E+03  0.26726148040E+03  0.25500000000E-02 0.  1.
          2   -1    0    0  501    0  0.00000000000E+00 -0.00000000000E+00 -0.24732538933E+04  0.24732538933E+04  0.25500000000E-02 0. -1.
    8880022    1    1    2    0    0 -0.86773304892E+02  0.51389023776E+03 -0.21226221652E+04  0.21910110206E+04  0.15294330000E+03 0.  0.
    8880022    1    1    2    0    0  0.86773304892E+02 -0.51389023776E+03 -0.83370247696E+02  0.54950435314E+03  0.15294330000E+03 0.  0.
<mgrwt>
<rscale>  0 0.54314311E+03</rscale>
<asrwt>0</asrwt>
<pdfrwt beam="1">  1        2 0.38050058E+00 0.54314311E+03</pdfrwt>
<pdfrwt beam="2">  1       -2 0.41117152E-01 0.54314311E+03</pdfrwt>
<totfact> 0.21908281E+01</totfact>
</mgrwt>
</event>
<event>
 4    1  0.4880711E-008  0.2218157E+03  0.7818608E-02  0.1132537E+00
          2   -1    0    0  501    0  0.00000000000E+00  0.00000000000E+00  0.16515567322E+04  0.16515567322E+04  0.25500000000E-02 0. -1.
         -2   -1    0    0    0  501 -0.00000000000E+00 -0.00000000000E+00 -0.47216463542E+02  0.47216463611E+02  0.25500000000E-02 0.  1.
    8880022    1    1    2    0    0 -0.15903215030E+03  0.22789023896E+02  0.13181653011E+04  0.13366981628E+04  0.15294330000E+03 0. -1.
    8880022    1    1    2    0    0  0.15903215030E+03 -0.22789023896E+02  0.28617496750E+03  0.36207503294E+03  0.15294330000E+03 0.  0.
<mgrwt>
<rscale>  0 0.22181573E+03</rscale>
<asrwt>0</asrwt>
<pdfrwt beam="1">  1        2 0.25408558E+00 0.22181573E+03</pdfrwt>
<pdfrwt beam="2">  1       -2 0.72640733E-02 0.22181573E+03</pdfrwt>
<totfact> 0.12521364E+03</totfact>
</mgrwt>
</event>
<event>
 4    1  0.4880711E-008  0.9948894E+03  0.7818608E-02  0.9314168E-01
         -2   -1    0    0    0  501 -0.00000000000E+00  0.00000000000E+00  0.58154117670E+03  0.58154117671E+03  0.25500000000E-02 0.  1.
          2   -1    0    0  501    0  0.00000000000E+00 -0.00000000000E+00 -0.20626208630E+04  0.20626208630E+04  0.25500000000E-02 0. -1.
    8880022    1    1    2    0    0 -0.78119123246E+03  0.59678595072E+03 -0.12933184608E+04  0.16317099947E+04  0.15294330000E+03 0.  0.
    8880022    1    1    2    0    0  0.78119123246E+03 -0.59678595072E+03 -0.18776122546E+03  0.10124520450E+04  0.15294330000E+03 0.  0.
<mgrwt>
<rscale>  0 0.99488937E+03</rscale>
<asrwt>0</asrwt>
<pdfrwt beam="1">  1        2 0.31732628E+00 0.99488937E+03</pdfrwt>
<pdfrwt beam="2">  1       -2 0.89467874E-01 0.99488937E+03</pdfrwt>
<totfact> 0.66240632E+00</totfact>
</mgrwt>
</event>
<event>
 4    1  0.4880711E-008  0.1713025E+03  0.7818608E-02  0.1176496E+00
          2   -1    0    0  501    0  0.00000000000E+00  0.00000000000E+00  0.64900107531E+03  0.64900107532E+03  0.25500000000E-02 0. -1.
         -2   -1    0    0    0  501 -0.00000000000E+00 -0.00000000000E+00 -0.97324616354E+02  0.97324616387E+02  0.25500000000E-02 0.  1.
    8880022    1    1    2    0    0  0.75162793577E+02  0.17419319600E+02  0.54889083214E+03  0.57500058857E+03  0.15294330000E+03 0. -1.
    8880022    1    1    2    0    0 -0.75162793577E+02 -0.17419319600E+02  0.27856268222E+01  0.17132510314E+03  0.15294330000E+03 0.  0.
<mgrwt>
<rscale>  0 0.17130246E+03</rscale>
<asrwt>0</asrwt>
<pdfrwt beam="1">  1        2 0.99846323E-01 0.17130246E+03</pdfrwt>
<pdfrwt beam="2">  1       -2 0.14973017E-01 0.17130246E+03</pdfrwt>
<totfact> 0.15689751E+03</totfact>
</mgrwt>
</event>
<event>
 4    1  0.4880711E-008  0.6413965E+03  0.7818608E-02  0.9823058E-01
          2   -1    0    0  501    0  0.00000000000E+00  0.00000000000E+00  0.53500241279E+03  0.53500241279E+03  0.25500000000E-02 0. -1.
         -2   -1    0    0    0  501 -0.00000000000E+00 -0.00000000000E+00 -0.20867794514E+04  0.20867794514E+04  0.25500000000E-02 0.  1.
    8880022    1    1    2    0    0 -0.51937600531E+03 -0.34386967283E+03  0.26584848915E+03  0.69430890746E+03  0.15294330000E+03 0. -1.
    8880022    1    1    2    0    0  0.51937600531E+03  0.34386967283E+03 -0.18176255278E+04  0.19274729568E+04  0.15294330000E+03 0.  0.
<mgrwt>
<rscale>  0 0.64139648E+03</rscale>
<asrwt>0</asrwt>
<pdfrwt beam="1">  1        2 0.82308065E-01 0.64139648E+03</pdfrwt>
<pdfrwt beam="2">  1       -2 0.32104299E+00 0.64139648E+03</pdfrwt>
<totfact> 0.14335753E+00</totfact>
</mgrwt>
</event>
<event>
 4    1  0.4880711E-008  0.3407927E+03  0.7818608E-02  0.1066459E+00
          2   -1    0    0  501    0  0.00000000000E+00  0.00000000000E+00  0.90525027491E+03  0.90525027491E+03  0.25500000000E-02 0. -1.
         -2   -1    0    0    0  501 -0.00000000000E+00 -0.00000000000E+00 -0.23804078577E+03  0.23804078579E+03  0.25500000000E-02 0.  1.
    8880022    1    1    2    0    0  0.24138935280E+03 -0.18568577491E+03  0.72174952359E+03  0.79816167188E+03  0.15294330000E+03 0. -1.
    8880022    1    1    2    0    0 -0.24138935280E+03  0.18568577491E+03 -0.54540034453E+02  0.34512938881E+03  0.15294330000E+03 0.  0.
<mgrwt>
<rscale>  0 0.34079272E+03</rscale>
<asrwt>0</asrwt>
<pdfrwt beam="1">  1        2 0.13926927E+00 0.34079272E+03</pdfrwt>
<pdfrwt beam="2">  1       -2 0.36621659E-01 0.34079272E+03</pdfrwt>
<totfact> 0.21277586E+02</totfact>
</mgrwt>
</event>
<event>
 4    1  0.4880711E-008  0.5302355E+03  0.7818608E-02  0.1006175E+00
          2   -1    0    0  501    0  0.00000000000E+00  0.00000000000E+00  0.28817655194E+04  0.28817655194E+04  0.25500000000E-02 0. -1.
         -2   -1    0    0    0  501 -0.00000000000E+00 -0.00000000000E+00 -0.32676120536E+03  0.32676120537E+03  0.25500000000E-02 0.  1.
    8880022    1    1    2    0    0 -0.23875070754E+03 -0.44805820604E+03 -0.66089614609E+02  0.53433841947E+03  0.15294330000E+03 0.  0.
    8880022    1    1    2    0    0  0.23875070754E+03  0.44805820604E+03  0.26210939287E+04  0.26741883053E+04  0.15294330000E+03 0. -1.
<mgrwt>
<rscale>  0 0.53023552E+03</rscale>
<asrwt>0</asrwt>
<pdfrwt beam="1">  1        2 0.44334852E+00 0.53023552E+03</pdfrwt>
<pdfrwt beam="2">  1       -2 0.50270957E-01 0.53023552E+03</pdfrwt>
<totfact> 0.85808054E+00</totfact>
</mgrwt>
</event>
<event>
 4    1  0.4880711E-008  0.5447009E+03  0.7818608E-02  0.1002728E+00
         -2   -1    0    0    0  501 -0.00000000000E+00  0.00000000000E+00  0.17453304772E+04  0.17453304772E+04  0.25500000000E-02 0.  1.
          2   -1    0    0  501    0  0.00000000000E+00 -0.00000000000E+00 -0.41469697022E+03  0.41469697023E+03  0.25500000000E-02 0. -1.
    8880022    1    1    2    0    0 -0.15596049718E+03 -0.49898272343E+03 -0.16430808365E+03  0.56894308532E+03  0.15294330000E+03 0. -1.
    8880022    1    1    2    0    0  0.15596049718E+03  0.49898272343E+03  0.14949415906E+04  0.15910843621E+04  0.15294330000E+03 0.  0.
<mgrwt>
<rscale>  0 0.54470092E+03</rscale>
<asrwt>0</asrwt>
<pdfrwt beam="1">  1        2 0.63799534E-01 0.54470092E+03</pdfrwt>
<pdfrwt beam="2">  1       -2 0.26851238E+00 0.54470092E+03</pdfrwt>
<totfact> 0.40308463E+00</totfact>
</mgrwt>
</event>
<event>
 4    1  0.4880711E-008  0.4320950E+03  0.7818608E-02  0.1033200E+00
         -2   -1    0    0    0  501 -0.00000000000E+00  0.00000000000E+00  0.70685214790E+03  0.70685214790E+03  0.25500000000E-02 0.  1.
          2   -1    0    0  501    0  0.00000000000E+00 -0.00000000000E+00 -0.10221942169E+04  0.10221942169E+04  0.25500000000E-02 0. -1.
    8880022    1    1    2    0    0  0.24845005698E+03 -0.31872714241E+03 -0.90216437592E+03  0.10003032722E+04  0.15294330000E+03 0.  0.
    8880022    1    1    2    0    0 -0.24845005698E+03  0.31872714241E+03  0.58682230693E+03  0.72874309262E+03  0.15294330000E+03 0.  0.
<mgrwt>
<rscale>  0 0.43209498E+03</rscale>
<asrwt>0</asrwt>
<pdfrwt beam="1">  1        2 0.15726065E+00 0.43209498E+03</pdfrwt>
<pdfrwt beam="2">  1       -2 0.10874648E+00 0.43209498E+03</pdfrwt>
<totfact> 0.17523296E+01</totfact>
</mgrwt>
</event>
<event>
 4    1  0.4880711E-008  0.5582445E+03  0.7818608E-02  0.9996035E-01
         -2   -1    0    0    0  501 -0.00000000000E+00  0.00000000000E+00  0.74219342090E+03  0.74219342090E+03  0.25500000000E-02 0.  1.
          2   -1    0    0  501    0  0.00000000000E+00 -0.00000000000E+00 -0.13900081951E+04  0.13900081951E+04  0.25500000000E-02 0. -1.
    8880022    1    1    2    0    0  0.44040363391E+03  0.30706664364E+03  0.56673368497E+03  0.79550236146E+03  0.15294330000E+03 0.  0.
    8880022    1    1    2    0    0 -0.44040363391E+03 -0.30706664364E+03 -0.12145484592E+04  0.13366992545E+04  0.15294330000E+03 0.  0.
<mgrwt>
<rscale>  0 0.55824451E+03</rscale>
<asrwt>0</asrwt>
<pdfrwt beam="1">  1        2 0.21384741E+00 0.55824451E+03</pdfrwt>
<pdfrwt beam="2">  1       -2 0.11418360E+00 0.55824451E+03</pdfrwt>
<totfact> 0.92723118E+00</totfact>
</mgrwt>
</event>
<event>
 4    1  0.4880711E-008  0.9874862E+03  0.7818608E-02  0.9322377E-01
          2   -1    0    0  501    0  0.00000000000E+00  0.00000000000E+00  0.45019236730E+03  0.45019236731E+03  0.25500000000E-02 0. -1.
         -2   -1    0    0    0  501 -0.00000000000E+00 -0.00000000000E+00 -0.24900700559E+04  0.24900700559E+04  0.25500000000E-02 0.  1.
    8880022    1    1    2    0    0 -0.56908046934E+03 -0.79239177493E+03 -0.15502752886E+04  0.18380648598E+04  0.15294330000E+03 0.  0.
    8880022    1    1    2    0    0  0.56908046934E+03  0.79239177493E+03 -0.48960240000E+03  0.11021975634E+04  0.15294330000E+03 0.  0.
<mgrwt>
<rscale>  0 0.98748618E+03</rscale>
<asrwt>0</asrwt>
<pdfrwt beam="1">  1        2 0.69260366E-01 0.98748618E+03</pdfrwt>
<pdfrwt beam="2">  1       -2 0.38308769E+00 0.98748618E+03</pdfrwt>
<totfact> 0.67875728E-01</totfact>
</mgrwt>
</event>
<event>
 4    1  0.4880711E-008  0.6670607E+03  0.7818608E-02  0.9775282E-01
         -2   -1    0    0    0  501 -0.00000000000E+00  0.00000000000E+00  0.42995623581E+03  0.42995623581E+03  0.25500000000E-02 0.  1.
          2   -1    0    0  501    0  0.00000000000E+00 -0.00000000000E+00 -0.20355852436E+04  0.20355852436E+04  0.25500000000E-02 0. -1.
    8880022    1    1    2    0    0  0.46392017496E+03  0.45426468987E+03 -0.16671497809E+04  0.17956498496E+04  0.15294330000E+03 0.  0.
    8880022    1    1    2    0    0 -0.46392017496E+03 -0.45426468987E+03  0.61520773133E+02  0.66989162985E+03  0.15294330000E+03 0.  0.
<mgrwt>
<rscale>  0 0.66706071E+03</rscale>
<asrwt>0</asrwt>
<pdfrwt beam="1">  1        2 0.31316696E+00 0.66706071E+03</pdfrwt>
<pdfrwt beam="2">  1       -2 0.66147114E-01 0.66706071E+03</pdfrwt>
<totfact> 0.14079757E+01</totfact>
</mgrwt>
</event>
<event>
 4    1  0.4880711E-008  0.3074277E+03  0.7818608E-02  0.1081585E+00
          2   -1    0    0  501    0  0.00000000000E+00  0.00000000000E+00  0.15267288151E+04  0.15267288151E+04  0.25500000000E-02 0. -1.
         -2   -1    0    0    0  501 -0.00000000000E+00 -0.00000000000E+00 -0.15952283738E+03  0.15952283740E+03  0.25500000000E-02 0.  1.
    8880022    1    1    2    0    0 -0.15849454187E+03 -0.21447520768E+03  0.13431504836E+04  0.13778842510E+04  0.15294330000E+03 0.  0.
    8880022    1    1    2    0    0  0.15849454187E+03  0.21447520768E+03  0.24055494127E+02  0.30836740152E+03  0.15294330000E+03 0.  0.
<mgrwt>
<rscale>  0 0.30742769E+03</rscale>
<asrwt>0</asrwt>
<pdfrwt beam="1">  1        2 0.23488136E+00 0.30742769E+03</pdfrwt>
<pdfrwt beam="2">  1       -2 0.24541974E-01 0.30742769E+03</pdfrwt>
<totfact> 0.19427045E+02</totfact>
</mgrwt>
</event>
<event>
 4    1  0.4880711E-008  0.2948476E+03  0.7818608E-02  0.1087845E+00
          2   -1    0    0  501    0  0.00000000000E+00  0.00000000000E+00  0.24578098512E+03  0.24578098513E+03  0.25500000000E-02 0. -1.
         -2   -1    0    0    0  501 -0.00000000000E+00 -0.00000000000E+00 -0.14631016675E+04  0.14631016675E+04  0.25500000000E-02 0.  1.
    8880022    1    1    2    0    0 -0.22898498712E+03  0.10540093512E+03  0.13536459054E+03  0.32443598265E+03  0.15294330000E+03 0.  0.
    8880022    1    1    2    0    0  0.22898498712E+03 -0.10540093512E+03 -0.13526852729E+04  0.13844466700E+04  0.15294330000E+03 0.  1.
<mgrwt>
<rscale>  0 0.29484765E+03</rscale>
<asrwt>0</asrwt>
<pdfrwt beam="1">  1        2 0.37812460E-01 0.29484765E+03</pdfrwt>
<pdfrwt beam="2">  1       -2 0.22509256E+00 0.29484765E+03</pdfrwt>
<totfact> 0.13733003E+01</totfact>
</mgrwt>
</event>
<event>
 4    1  0.4880711E-008  0.4426032E+03  0.7818608E-02  0.1029951E+00
          2   -1    0    0  501    0  0.00000000000E+00  0.00000000000E+00  0.16134519559E+04  0.16134519559E+04  0.25500000000E-02 0. -1.
         -2   -1    0    0    0  501 -0.00000000000E+00 -0.00000000000E+00 -0.27810349104E+03  0.27810349105E+03  0.25500000000E-02 0.  1.
    8880022    1    1    2    0    0  0.32146507221E+03 -0.26299457318E+03 -0.42237139034E+02  0.44461395289E+03  0.15294330000E+03 0.  0.
    8880022    1    1    2    0    0 -0.32146507221E+03  0.26299457318E+03  0.13775856039E+04  0.14469414941E+04  0.15294330000E+03 0.  0.
<mgrwt>
<rscale>  0 0.44260320E+03</rscale>
<asrwt>0</asrwt>
<pdfrwt beam="1">  1        2 0.24822337E+00 0.44260320E+03</pdfrwt>
<pdfrwt beam="2">  1       -2 0.42785153E-01 0.44260320E+03</pdfrwt>
<totfact> 0.60528429E+01</totfact>
</mgrwt>
</event>
<event>
 4    1  0.4880711E-008  0.5221565E+03  0.7818608E-02  0.1008152E+00
          2   -1    0    0  501    0  0.00000000000E+00  0.00000000000E+00  0.41521528491E+03  0.41521528492E+03  0.25500000000E-02 0. -1.
         -2   -1    0    0    0  501 -0.00000000000E+00 -0.00000000000E+00 -0.70702402120E+03  0.70702402120E+03  0.25500000000E-02 0.  1.
    8880022    1    1    2    0    0  0.31824307495E+03 -0.38467798217E+03  0.38845522698E+01  0.52217099448E+03  0.15294330000E+03 0.  0.
    8880022    1    1    2    0    0 -0.31824307495E+03  0.38467798217E+03 -0.29569328856E+03  0.60006831164E+03  0.15294330000E+03 0.  0.
<mgrwt>
<rscale>  0 0.52215655E+03</rscale>
<asrwt>0</asrwt>
<pdfrwt beam="1">  1        2 0.63879275E-01 0.52215655E+03</pdfrwt>
<pdfrwt beam="2">  1       -2 0.10877293E+00 0.52215655E+03</pdfrwt>
<totfact> 0.52921413E+01</totfact>
</mgrwt>
</event>
<event>
 4    1  0.4880711E-008  0.6136837E+03  0.7818608E-02  0.9877416E-01
          2   -1    0    0  501    0  0.00000000000E+00  0.00000000000E+00  0.22476092645E+04  0.22476092645E+04  0.25500000000E-02 0. -1.
         -2   -1    0    0    0  501 -0.00000000000E+00 -0.00000000000E+00 -0.18151194914E+03  0.18151194916E+03  0.25500000000E-02 0.  1.
    8880022    1    1    2    0    0 -0.58861229095E+03  0.82168490020E+02  0.69630799966E+03  0.92814469411E+03  0.15294330000E+03 0.  0.
    8880022    1    1    2    0    0  0.58861229095E+03 -0.82168490020E+02  0.13697893157E+04  0.15009765196E+04  0.15294330000E+03 0.  0.
<mgrwt>
<rscale>  0 0.61368375E+03</rscale>
<asrwt>0</asrwt>
<pdfrwt beam="1">  1        2 0.34578604E+00 0.61368375E+03</pdfrwt>
<pdfrwt beam="2">  1       -2 0.27924915E-01 0.61368375E+03</pdfrwt>
<totfact> 0.59873206E+01</totfact>
</mgrwt>
</event>
<event>
 4    1  0.4880711E-008  0.2382979E+03  0.7818608E-02  0.1120932E+00
         -2   -1    0    0    0  501 -0.00000000000E+00  0.00000000000E+00  0.81300179342E+02  0.81300179382E+02  0.25500000000E-02 0.  1.
          2   -1    0    0  501    0  0.00000000000E+00 -0.00000000000E+00 -0.17360020790E+04  0.17360020790E+04  0.25500000000E-02 0. -1.
    8880022    1    1    2    0    0  0.15443105960E+03  0.97700058400E+02 -0.15298122099E+04  0.15482607352E+04  0.15294330000E+03 0. -1.
    8880022    1    1    2    0    0 -0.15443105960E+03 -0.97700058400E+02 -0.12488968978E+03  0.26904152320E+03  0.15294330000E+03 0.  0.
<mgrwt>
<rscale>  0 0.23829794E+03</rscale>
<asrwt>0</asrwt>
<pdfrwt beam="1">  1        2 0.26707722E+00 0.23829794E+03</pdfrwt>
<pdfrwt beam="2">  1       -2 0.12507721E-01 0.23829794E+03</pdfrwt>
<totfact> 0.47670232E+02</totfact>
</mgrwt>
</event>
<event>
 4    1  0.4880711E-008  0.2406994E+03  0.7818608E-02  0.1119328E+00
          2   -1    0    0  501    0  0.00000000000E+00  0.00000000000E+00  0.41748996328E+03  0.41748996329E+03  0.25500000000E-02 0. -1.
         -2   -1    0    0    0  501 -0.00000000000E+00 -0.00000000000E+00 -0.31117732864E+03  0.31117732865E+03  0.25500000000E-02 0.  1.
    8880022    1    1    2    0    0 -0.10595006963E+03  0.15270600372E+03 -0.21803127388E+03  0.32476734785E+03  0.15294330000E+03 0.  0.
    8880022    1    1    2    0    0  0.10595006963E+03 -0.15270600372E+03  0.32434390852E+03  0.40389994409E+03  0.15294330000E+03 0.  0.
<mgrwt>
<rscale>  0 0.24069938E+03</rscale>
<asrwt>0</asrwt>
<pdfrwt beam="1">  1        2 0.64229225E-01 0.24069938E+03</pdfrwt>
<pdfrwt beam="2">  1       -2 0.47873435E-01 0.24069938E+03</pdfrwt>
<totfact> 0.32179985E+02</totfact>
</mgrwt>
</event>
<event>
 4    1  0.4880711E-008  0.6010603E+03  0.7818608E-02  0.9903209E-01
          2   -1    0    0  501    0  0.00000000000E+00  0.00000000000E+00  0.51096511186E+03  0.51096511186E+03  0.25500000000E-02 0. -1.
         -2   -1    0    0    0  501 -0.00000000000E+00 -0.00000000000E+00 -0.11447159948E+04  0.11447159949E+04  0.25500000000E-02 0.  1.
    8880022    1    1    2    0    0 -0.49770988628E+03 -0.30027769595E+03  0.19501085116E+03  0.63190403596E+03  0.15294330000E+03 0.  0.
    8880022    1    1    2    0    0  0.49770988628E+03  0.30027769595E+03 -0.82876173415E+03  0.10237770707E+04  0.15294330000E+03 0.  0.
<mgrwt>
<rscale>  0 0.60106030E+03</rscale>
<asrwt>0</asrwt>
<pdfrwt beam="1">  1        2 0.78610017E-01 0.60106030E+03</pdfrwt>
<pdfrwt beam="2">  1       -2 0.17611015E+00 0.60106030E+03</pdfrwt>
<totfact> 0.11973487E+01</totfact>
</mgrwt>
</event>
<event>
 4    1  0.4880711E-008  0.3084205E+03  0.7818608E-02  0.1081105E+00
          2   -1    0    0  501    0  0.00000000000E+00  0.00000000000E+00  0.45397512856E+03  0.45397512857E+03  0.25500000000E-02 0. -1.
         -2   -1    0    0    0  501 -0.00000000000E+00 -0.00000000000E+00 -0.23394003524E+03  0.23394003526E+03  0.25500000000E-02 0.  1.
    8880022    1    1    2    0    0 -0.16271512561E+03 -0.21273303585E+03  0.22111433939E+03  0.37949276771E+03  0.15294330000E+03 0.  1.
    8880022    1    1    2    0    0  0.16271512561E+03  0.21273303585E+03 -0.10792460656E+01  0.30842239612E+03  0.15294330000E+03 0.  1.
<mgrwt>
<rscale>  0 0.30842051E+03</rscale>
<asrwt>0</asrwt>
<pdfrwt beam="1">  1        2 0.69842327E-01 0.30842051E+03</pdfrwt>
<pdfrwt beam="2">  1       -2 0.35990775E-01 0.30842051E+03</pdfrwt>
<totfact> 0.50775655E+02</totfact>
</mgrwt>
</event>
<event>
 4    1  0.4880711E-008  0.5349721E+03  0.7818608E-02  0.1005033E+00
          2   -1    0    0  501    0  0.00000000000E+00  0.00000000000E+00  0.10216383450E+04  0.10216383450E+04  0.25500000000E-02 0. -1.
         -2   -1    0    0    0  501 -0.00000000000E+00 -0.00000000000E+00 -0.68801901098E+03  0.68801901099E+03  0.25500000000E-02 0.  1.
    8880022    1    1    2    0    0  0.16773239828E+03 -0.48442686613E+03  0.82499464357E+03  0.98326566145E+03  0.15294330000E+03 0.  0.
    8880022    1    1    2    0    0 -0.16773239828E+03  0.48442686613E+03 -0.49137530954E+03  0.72639169454E+03  0.15294330000E+03 0.  0.
<mgrwt>
<rscale>  0 0.53497215E+03</rscale>
<asrwt>0</asrwt>
<pdfrwt beam="1">  1        2 0.15717513E+00 0.53497215E+03</pdfrwt>
<pdfrwt beam="2">  1       -2 0.10584908E+00 0.53497215E+03</pdfrwt>
<totfact> 0.18383813E+01</totfact>
</mgrwt>
</event>
<event>
 4    1  0.4880711E-008  0.3895107E+03  0.7818608E-02  0.1047474E+00
         -2   -1    0    0    0  501 -0.00000000000E+00  0.00000000000E+00  0.14868987376E+03  0.14868987379E+03  0.25500000000E-02 0.  1.
          2   -1    0    0  501    0  0.00000000000E+00 -0.00000000000E+00 -0.17812381038E+04  0.17812381038E+04  0.25500000000E-02 0. -1.
    8880022    1    1    2    0    0  0.23873911879E+03  0.26707777497E+03 -0.14469482995E+04  0.14984585210E+04  0.15294330000E+03 0.  0.
    8880022    1    1    2    0    0 -0.23873911879E+03 -0.26707777497E+03 -0.18559993050E+03  0.43146945655E+03  0.15294330000E+03 0.  0.
<mgrwt>
<rscale>  0 0.38951066E+03</rscale>
<asrwt>0</asrwt>
<pdfrwt beam="1">  1        2 0.27403662E+00 0.38951066E+03</pdfrwt>
<pdfrwt beam="2">  1       -2 0.22875366E-01 0.38951066E+03</pdfrwt>
<totfact> 0.15849142E+02</totfact>
</mgrwt>
</event>
<event>
 4    1  0.4880711E-008  0.9009897E+03  0.7818608E-02  0.9424345E-01
          2   -1    0    0  501    0  0.00000000000E+00  0.00000000000E+00  0.14159798265E+04  0.14159798265E+04  0.25500000000E-02 0. -1.
         -2   -1    0    0    0  501 -0.00000000000E+00 -0.00000000000E+00 -0.74319956196E+03  0.74319956196E+03  0.25500000000E-02 0.  1.
    8880022    1    1    2    0    0 -0.59082676609E+03 -0.66280807245E+03  0.85256996163E+03  0.12404265399E+04  0.15294330000E+03 0.  0.
    8880022    1    1    2    0    0  0.59082676609E+03  0.66280807245E+03 -0.17978969713E+03  0.91875284851E+03  0.15294330000E+03 0.  0.
<mgrwt>
<rscale>  0 0.90098971E+03</rscale>
<asrwt>0</asrwt>
<pdfrwt beam="1">  1        2 0.21784305E+00 0.90098971E+03</pdfrwt>
<pdfrwt beam="2">  1       -2 0.11433839E+00 0.90098971E+03</pdfrwt>
<totfact> 0.85108691E+00</totfact>
</mgrwt>
</event>
<event>
 4    1  0.4880711E-008  0.1858772E+03  0.7818608E-02  0.1162233E+00
          2   -1    0    0  501    0  0.00000000000E+00  0.00000000000E+00  0.18246764644E+04  0.18246764644E+04  0.25500000000E-02 0. -1.
         -2   -1    0    0    0  501 -0.00000000000E+00 -0.00000000000E+00 -0.42365369304E+02  0.42365369381E+02  0.25500000000E-02 0.  1.
    8880022    1    1    2    0    0 -0.81472199621E+02 -0.67238123939E+02  0.15853924120E+04  0.15962516837E+04  0.15294330000E+03 0.  0.
    8880022    1    1    2    0    0  0.81472199621E+02  0.67238123939E+02  0.19691868309E+03  0.27079015009E+03  0.15294330000E+03 0.  1.
<mgrwt>
<rscale>  0 0.18587721E+03</rscale>
<asrwt>0</asrwt>
<pdfrwt beam="1">  1        2 0.28071944E+00 0.18587721E+03</pdfrwt>
<pdfrwt beam="2">  1       -2 0.65177495E-02 0.18587721E+03</pdfrwt>
<totfact> 0.12071134E+03</totfact>
</mgrwt>
</event>
<event>
 4    1  0.4880711E-008  0.6038066E+03  0.7818608E-02  0.9897540E-01
         -2   -1    0    0    0  501 -0.00000000000E+00  0.00000000000E+00  0.19378798680E+03  0.19378798682E+03  0.25500000000E-02 0.  1.
          2   -1    0    0  501    0  0.00000000000E+00 -0.00000000000E+00 -0.19789657161E+04  0.19789657161E+04  0.25500000000E-02 0. -1.
    8880022    1    1    2    0    0 -0.25491532368E+03 -0.52555579099E+03 -0.65130467500E+03  0.88813295422E+03  0.15294330000E+03 0.  0.
    8880022    1    1    2    0    0  0.25491532368E+03  0.52555579099E+03 -0.11338730543E+04  0.12846207487E+04  0.15294330000E+03 0.  0.
<mgrwt>
<rscale>  0 0.60380656E+03</rscale>
<asrwt>0</asrwt>
<pdfrwt beam="1">  1        2 0.30445625E+00 0.60380656E+03</pdfrwt>
<pdfrwt beam="2">  1       -2 0.29813538E-01 0.60380656E+03</pdfrwt>
<totfact> 0.74471909E+01</totfact>
</mgrwt>
</event>
<event>
 4    1  0.4880711E-008  0.3773926E+03  0.7818608E-02  0.1051902E+00
          2   -1    0    0  501    0  0.00000000000E+00  0.00000000000E+00  0.20257508855E+03  0.20257508857E+03  0.25500000000E-02 0. -1.
         -2   -1    0    0    0  501 -0.00000000000E+00 -0.00000000000E+00 -0.11143734580E+04  0.11143734580E+04  0.25500000000E-02 0.  1.
    8880022    1    1    2    0    0  0.20795345952E+03 -0.27529775719E+03 -0.55859722287E+02  0.38150420447E+03  0.15294330000E+03 0. -1.
    8880022    1    1    2    0    0 -0.20795345952E+03  0.27529775719E+03 -0.85593864715E+03  0.93544434209E+03  0.15294330000E+03 0.  1.
<mgrwt>
<rscale>  0 0.37739257E+03</rscale>
<asrwt>0</asrwt>
<pdfrwt beam="1">  1        2 0.31165399E-01 0.37739257E+03</pdfrwt>
<pdfrwt beam="2">  1       -2 0.17144207E+00 0.37739257E+03</pdfrwt>
<totfact> 0.37105600E+01</totfact>
</mgrwt>
</event>
<event>
 4    1  0.4880711E-008  0.3560357E+03  0.7818608E-02  0.1060165E+00
         -2   -1    0    0    0  501 -0.00000000000E+00  0.00000000000E+00  0.18321511514E+03  0.18321511515E+03  0.25500000000E-02 0.  1.
          2   -1    0    0  501    0  0.00000000000E+00 -0.00000000000E+00 -0.13989683055E+04  0.13989683055E+04  0.25500000000E-02 0. -1.
    8880022    1    1    2    0    0 -0.24954159282E+03  0.20272826647E+03 -0.45454754252E+02  0.35892554141E+03  0.15294330000E+03 0.  1.
    8880022    1    1    2    0    0  0.24954159282E+03 -0.20272826647E+03 -0.11702984361E+04  0.12232578793E+04  0.15294330000E+03 0.  0.
<mgrwt>
<rscale>  0 0.35603569E+03</rscale>
<asrwt>0</asrwt>
<pdfrwt beam="1">  1        2 0.21522589E+00 0.35603569E+03</pdfrwt>
<pdfrwt beam="2">  1       -2 0.28186942E-01 0.35603569E+03</pdfrwt>
<totfact> 0.17639349E+02</totfact>
</mgrwt>
</event>
<event>
 4    1  0.4880711E-008  0.4002690E+03  0.7818608E-02  0.1043687E+00
          2   -1    0    0  501    0  0.00000000000E+00  0.00000000000E+00  0.10571952049E+04  0.10571952049E+04  0.25500000000E-02 0. -1.
         -2   -1    0    0    0  501 -0.00000000000E+00 -0.00000000000E+00 -0.67258115606E+03  0.67258115607E+03  0.25500000000E-02 0.  1.
    8880022    1    1    2    0    0 -0.33471825893E+03 -0.15743981631E+03  0.95354512053E+03  0.10341487120E+04  0.15294330000E+03 0. -1.
    8880022    1    1    2    0    0  0.33471825893E+03  0.15743981631E+03 -0.56893107171E+03  0.69562764896E+03  0.15294330000E+03 0.  0.
<mgrwt>
<rscale>  0 0.40026899E+03</rscale>
<asrwt>0</asrwt>
<pdfrwt beam="1">  1        2 0.16264541E+00 0.40026899E+03</pdfrwt>
<pdfrwt beam="2">  1       -2 0.10347403E+00 0.40026899E+03</pdfrwt>
<totfact> 0.18892493E+01</totfact>
</mgrwt>
</event>
<event>
 4    1  0.5752789E-008  0.9252756E+03  0.7818608E-02  0.9394526E-01
         -2   -1    0    0    0  501 -0.00000000000E+00  0.00000000000E+00  0.15065606614E+04  0.15065606614E+04  0.25500000000E-02 0.  1.
          2   -1    0    0  501    0  0.00000000000E+00 -0.00000000000E+00 -0.10935153150E+04  0.10935153150E+04  0.25500000000E-02 0. -1.
    8880022    1    1    2    0    0 -0.19228504175E+03  0.89205927898E+03  0.11075215086E+04  0.14431697196E+04  0.15294330000E+03 0.  0.
    8880022    1    1    2    0    0  0.19228504175E+03 -0.89205927898E+03 -0.69447616210E+03  0.11569062569E+04  0.15294330000E+03 0.  0.
<mgrwt>
<rscale>  0 0.92527561E+03</rscale>
<asrwt>0</asrwt>
<pdfrwt beam="1">  1        2 0.16823312E+00 0.92527561E+03</pdfrwt>
<pdfrwt beam="2">  1       -2 0.23177856E+00 0.92527561E+03</pdfrwt>
<totfact> 0.18405398E+00</totfact>
</mgrwt>
</event>
<event>
 4    1  0.4880711E-008  0.6350770E+03  0.7818608E-02  0.9835191E-01
          2   -1    0    0  501    0  0.00000000000E+00  0.00000000000E+00  0.83954069063E+03  0.83954069063E+03  0.25500000000E-02 0. -1.
         -2   -1    0    0    0  501 -0.00000000000E+00 -0.00000000000E+00 -0.50101439428E+03  0.50101439429E+03  0.25500000000E-02 0.  1.
    8880022    1    1    2    0    0  0.52622867624E+03 -0.32095875549E+03  0.30519504895E+03  0.70460401173E+03  0.15294330000E+03 0.  0.
    8880022    1    1    2    0    0 -0.52622867624E+03  0.32095875549E+03  0.33331247399E+02  0.63595107319E+03  0.15294330000E+03 0.  0.
<mgrwt>
<rscale>  0 0.63507700E+03</rscale>
<asrwt>0</asrwt>
<pdfrwt beam="1">  1        2 0.12916011E+00 0.63507700E+03</pdfrwt>
<pdfrwt beam="2">  1       -2 0.77079138E-01 0.63507700E+03</pdfrwt>
<totfact> 0.49678120E+01</totfact>
</mgrwt>
</event>
<event>
 4    1  0.4880711E-008  0.7353661E+03  0.7818608E-02  0.9658592E-01
         -2   -1    0    0    0  501 -0.00000000000E+00  0.00000000000E+00  0.76172073590E+03  0.76172073590E+03  0.25500000000E-02 0.  1.
          2   -1    0    0  501    0  0.00000000000E+00 -0.00000000000E+00 -0.15026476518E+04  0.15026476518E+04  0.25500000000E-02 0. -1.
    8880022    1    1    2    0    0  0.23451168153E+03  0.67998229424E+03  0.45187311828E+03  0.86310637658E+03  0.15294330000E+03 0.  0.
    8880022    1    1    2    0    0 -0.23451168153E+03 -0.67998229424E+03 -0.11928000342E+04  0.14012620112E+04  0.15294330000E+03 0.  0.
<mgrwt>
<rscale>  0 0.73536610E+03</rscale>
<asrwt>0</asrwt>
<pdfrwt beam="1">  1        2 0.23117656E+00 0.73536610E+03</pdfrwt>
<pdfrwt beam="2">  1       -2 0.11718781E+00 0.73536610E+03</pdfrwt>
<totfact> 0.73165092E+00</totfact>
</mgrwt>
</event>
<event>
 4    1  0.4880711E-008  0.1986628E+03  0.7818608E-02  0.1150872E+00
          2   -1    0    0  501    0  0.00000000000E+00  0.00000000000E+00  0.36591699996E+03  0.36591699997E+03  0.25500000000E-02 0. -1.
         -2   -1    0    0    0  501 -0.00000000000E+00 -0.00000000000E+00 -0.50431978994E+03  0.50431978995E+03  0.25500000000E-02 0.  1.
    8880022    1    1    2    0    0 -0.46725967013E+02 -0.11786406672E+03 -0.45499529766E+03  0.49647520394E+03  0.15294330000E+03 0.  0.
    8880022    1    1    2    0    0  0.46725967013E+02  0.11786406672E+03  0.31659250768E+03  0.37376158597E+03  0.15294330000E+03 0. -1.
<mgrwt>
<rscale>  0 0.19866280E+03</rscale>
<asrwt>0</asrwt>
<pdfrwt beam="1">  1        2 0.56294923E-01 0.19866280E+03</pdfrwt>
<pdfrwt beam="2">  1       -2 0.77587660E-01 0.19866280E+03</pdfrwt>
<totfact> 0.13644439E+02</totfact>
</mgrwt>
</event>
<event>
 4    1  0.4880711E-008  0.1172891E+04  0.7818608E-02  0.9136921E-01
         -2   -1    0    0    0  501 -0.00000000000E+00  0.00000000000E+00  0.72326883739E+03  0.72326883739E+03  0.25500000000E-02 0.  1.
          2   -1    0    0  501    0  0.00000000000E+00 -0.00000000000E+00 -0.34704479629E+04  0.34704479629E+04  0.25500000000E-02 0. -1.
    8880022    1    1    2    0    0 -0.19341896825E+03 -0.11466784220E+04  0.36050422402E+02  0.11734451784E+04  0.15294330000E+03 0.  0.
    8880022    1    1    2    0    0  0.19341896825E+03  0.11466784220E+04 -0.27832295479E+04  0.30202716219E+04  0.15294330000E+03 0.  0.
<mgrwt>
<rscale>  0 0.11728913E+04</rscale>
<asrwt>0</asrwt>
<pdfrwt beam="1">  1        2 0.53391506E+00 0.11728913E+04</pdfrwt>
<pdfrwt beam="2">  1       -2 0.11127213E+00 0.11728913E+04</pdfrwt>
<totfact> 0.54602925E-01</totfact>
</mgrwt>
</event>
<event>
 4    1  0.4880711E-008  0.3779461E+03  0.7818608E-02  0.1051695E+00
         -2   -1    0    0    0  501 -0.00000000000E+00  0.00000000000E+00  0.27209265554E+03  0.27209265555E+03  0.25500000000E-02 0.  1.
          2   -1    0    0  501    0  0.00000000000E+00 -0.00000000000E+00 -0.98913484266E+03  0.98913484266E+03  0.25500000000E-02 0. -1.
    8880022    1    1    2    0    0  0.44967410506E+02 -0.34267996888E+03 -0.79050442654E+03  0.87620804064E+03  0.15294330000E+03 0.  0.
    8880022    1    1    2    0    0 -0.44967410506E+02  0.34267996888E+03  0.73462239417E+02  0.38501945758E+03  0.15294330000E+03 0.  0.
<mgrwt>
<rscale>  0 0.37794614E+03</rscale>
<asrwt>0</asrwt>
<pdfrwt beam="1">  1        2 0.15217459E+00 0.37794614E+03</pdfrwt>
<pdfrwt beam="2">  1       -2 0.41860409E-01 0.37794614E+03</pdfrwt>
<totfact> 0.14485871E+02</totfact>
</mgrwt>
</event>
<event>
 4    1  0.4880711E-008  0.6560600E+03  0.7818608E-02  0.9795474E-01
         -2   -1    0    0    0  501 -0.00000000000E+00  0.00000000000E+00  0.37164634794E+03  0.37164634795E+03  0.25500000000E-02 0.  1.
          2   -1    0    0  501    0  0.00000000000E+00 -0.00000000000E+00 -0.20252746671E+04  0.20252746671E+04  0.25500000000E-02 0. -1.
    8880022    1    1    2    0    0 -0.63768176047E+03 -0.19622314278E+02 -0.16110155131E+04  0.17394785711E+04  0.15294330000E+03 0.  0.
    8880022    1    1    2    0    0  0.63768176047E+03  0.19622314278E+02 -0.42612806062E+02  0.65744244396E+03  0.15294330000E+03 0.  0.
<mgrwt>
<rscale>  0 0.65605999E+03</rscale>
<asrwt>0</asrwt>
<pdfrwt beam="1">  1        2 0.31158071E+00 0.65605999E+03</pdfrwt>
<pdfrwt beam="2">  1       -2 0.57176362E-01 0.65605999E+03</pdfrwt>
<totfact> 0.19458889E+01</totfact>
</mgrwt>
</event>
<event>
 4    1  0.4880711E-008  0.8511964E+03  0.7818608E-02  0.9488733E-01
          2   -1    0    0  501    0  0.00000000000E+00  0.00000000000E+00  0.30083377679E+04  0.30083377679E+04  0.25500000000E-02 0. -1.
         -2   -1    0    0    0  501 -0.00000000000E+00 -0.00000000000E+00 -0.35228975369E+03  0.35228975370E+03  0.25500000000E-02 0.  1.
    8880022    1    1    2    0    0  0.67648887685E+03  0.49346377381E+03  0.22731184695E+04  0.24272624345E+04  0.15294330000E+03 0.  0.
    8880022    1    1    2    0    0 -0.67648887685E+03 -0.49346377381E+03  0.38292954469E+03  0.93336508708E+03  0.15294330000E+03 0.  0.
<mgrwt>
<rscale>  0 0.85119642E+03</rscale>
<asrwt>0</asrwt>
<pdfrwt beam="1">  1        2 0.46282121E+00 0.85119642E+03</pdfrwt>
<pdfrwt beam="2">  1       -2 0.54198422E-01 0.85119642E+03</pdfrwt>
<totfact> 0.57716933E+00</totfact>
</mgrwt>
</event>
<event>
 4    1  0.4880711E-008  0.5982960E+03  0.7818608E-02  0.9908948E-01
         -2   -1    0    0    0  501 -0.00000000000E+00  0.00000000000E+00  0.86843598392E+03  0.86843598393E+03  0.25500000000E-02 0.  1.
          2   -1    0    0  501    0  0.00000000000E+00 -0.00000000000E+00 -0.21397201351E+04  0.21397201351E+04  0.25500000000E-02 0. -1.
    8880022    1    1    2    0    0 -0.30482111346E+03  0.49157961321E+03  0.71582376844E+03  0.93293180234E+03  0.15294330000E+03 0.  0.
    8880022    1    1    2    0    0  0.30482111346E+03 -0.49157961321E+03 -0.19871079196E+04  0.20752243167E+04  0.15294330000E+03 0. -1.
<mgrwt>
<rscale>  0 0.59829598E+03</rscale>
<asrwt>0</asrwt>
<pdfrwt beam="1">  1        2 0.32918771E+00 0.59829598E+03</pdfrwt>
<pdfrwt beam="2">  1       -2 0.13360554E+00 0.59829598E+03</pdfrwt>
<totfact> 0.24291015E+00</totfact>
</mgrwt>
</event>
<event>
 4    1  0.5150268E-008  0.5177765E+03  0.7818608E-02  0.1009240E+00
          2   -1    0    0  501    0  0.00000000000E+00  0.00000000000E+00  0.26206226678E+04  0.26206226678E+04  0.25500000000E-02 0. -1.
         -2   -1    0    0    0  501 -0.00000000000E+00 -0.00000000000E+00 -0.87000177964E+03  0.87000177964E+03  0.25500000000E-02 0.  1.
    8880022    1    1    2    0    0  0.17410062091E+02 -0.49436597778E+03 -0.76418054118E+03  0.92307333553E+03  0.15294330000E+03 0.  0.
    8880022    1    1    2    0    0 -0.17410062091E+02  0.49436597778E+03  0.25148014294E+04  0.25675511119E+04  0.15294330000E+03 0.  0.
<mgrwt>
<rscale>  0 0.51777648E+03</rscale>
<asrwt>0</asrwt>
<pdfrwt beam="1">  1        2 0.40317272E+00 0.51777648E+03</pdfrwt>
<pdfrwt beam="2">  1       -2 0.13384643E+00 0.51777648E+03</pdfrwt>
<totfact> 0.13364940E+00</totfact>
</mgrwt>
</event>
<event>
 4    1  0.4880711E-008  0.3638382E+03  0.7818608E-02  0.1057074E+00
         -2   -1    0    0    0  501 -0.00000000000E+00  0.00000000000E+00  0.11403931017E+03  0.11403931020E+03  0.25500000000E-02 0.  1.
          2   -1    0    0  501    0  0.00000000000E+00 -0.00000000000E+00 -0.25143651270E+04  0.25143651270E+04  0.25500000000E-02 0. -1.
    8880022    1    1    2    0    0  0.15460027876E+03  0.29169391082E+03 -0.23592183992E+03  0.43363273789E+03  0.15294330000E+03 0.  0.
    8880022    1    1    2    0    0 -0.15460027876E+03 -0.29169391082E+03 -0.21644039769E+04  0.21947716993E+04  0.15294330000E+03 0.  0.
<mgrwt>
<rscale>  0 0.36383820E+03</rscale>
<asrwt>0</asrwt>
<pdfrwt beam="1">  1        2 0.38682536E+00 0.36383820E+03</pdfrwt>
<pdfrwt beam="2">  1       -2 0.17544511E-01 0.36383820E+03</pdfrwt>
<totfact> 0.10147449E+02</totfact>
</mgrwt>
</event>
<event>
 4    1  0.4880711E-008  0.8236139E+03  0.7818608E-02  0.9526452E-01
         -2   -1    0    0    0  501 -0.00000000000E+00  0.00000000000E+00  0.56036282274E+03  0.56036282275E+03  0.25500000000E-02 0.  1.
          2   -1    0    0  501    0  0.00000000000E+00 -0.00000000000E+00 -0.13298729361E+04  0.13298729361E+04  0.25500000000E-02 0. -1.
    8880022    1    1    2    0    0  0.78689272431E+03  0.18907157774E+03 -0.10163755979E+03  0.82986147498E+03  0.15294330000E+03 0.  0.
    8880022    1    1    2    0    0 -0.78689272431E+03 -0.18907157774E+03 -0.66787255360E+03  0.10603742839E+04  0.15294330000E+03 0.  0.
<mgrwt>
<rscale>  0 0.82361391E+03</rscale>
<asrwt>0</asrwt>
<pdfrwt beam="1">  1        2 0.20459584E+00 0.82361391E+03</pdfrwt>
<pdfrwt beam="2">  1       -2 0.86209666E-01 0.82361391E+03</pdfrwt>
<totfact> 0.18765914E+01</totfact>
</mgrwt>
</event>
<event>
 4    1  0.4880711E-008  0.5661106E+03  0.7818608E-02  0.9978322E-01
          2   -1    0    0  501    0  0.00000000000E+00  0.00000000000E+00  0.29144528559E+04  0.29144528559E+04  0.25500000000E-02 0. -1.
         -2   -1    0    0    0  501 -0.00000000000E+00 -0.00000000000E+00 -0.26746225279E+03  0.26746225281E+03  0.25500000000E-02 0.  1.
    8880022    1    1    2    0    0  0.11579866395E+03 -0.53261640962E+03  0.10263224958E+03  0.57533868463E+03  0.15294330000E+03 0.  1.
    8880022    1    1    2    0    0 -0.11579866395E+03  0.53261640962E+03  0.25443583535E+04  0.26065764240E+04  0.15294330000E+03 0.  0.
<mgrwt>
<rscale>  0 0.56611061E+03</rscale>
<asrwt>0</asrwt>
<pdfrwt beam="1">  1        2 0.44837735E+00 0.56611061E+03</pdfrwt>
<pdfrwt beam="2">  1       -2 0.41148040E-01 0.56611061E+03</pdfrwt>
<totfact> 0.12110635E+01</totfact>
</mgrwt>
</event>
<event>
 4    1  0.4880711E-008  0.9830316E+03  0.7818608E-02  0.9327354E-01
         -2   -1    0    0    0  501 -0.00000000000E+00  0.00000000000E+00  0.35051000979E+03  0.35051000980E+03  0.25500000000E-02 0.  1.
          2   -1    0    0  501    0  0.00000000000E+00 -0.00000000000E+00 -0.31352177755E+04  0.31352177755E+04  0.25500000000E-02 0. -1.
    8880022    1    1    2    0    0 -0.22590327550E+03  0.94441899838E+03 -0.19977067810E+04  0.22264733482E+04  0.15294330000E+03 0.  0.
    8880022    1    1    2    0    0  0.22590327550E+03 -0.94441899838E+03 -0.78700098470E+03  0.12592544371E+04  0.15294330000E+03 0.  0.
<mgrwt>
<rscale>  0 0.98303163E+03</rscale>
<asrwt>0</asrwt>
<pdfrwt beam="1">  1        2 0.48234118E+00 0.98303163E+03</pdfrwt>
<pdfrwt beam="2">  1       -2 0.53924619E-01 0.98303163E+03</pdfrwt>
<totfact> 0.47617467E+00</totfact>
</mgrwt>
</event>
<event>
 4    1  0.4880711E-008  0.7145165E+03  0.7818608E-02  0.9692724E-01
          2   -1    0    0  501    0  0.00000000000E+00  0.00000000000E+00  0.33519684081E+04  0.33519684081E+04  0.25500000000E-02 0. -1.
         -2   -1    0    0    0  501 -0.00000000000E+00 -0.00000000000E+00 -0.20010766005E+03  0.20010766007E+03  0.25500000000E-02 0.  1.
    8880022    1    1    2    0    0  0.66654328508E+03  0.20703208253E+03  0.24439503411E+04  0.25462574805E+04  0.15294330000E+03 0.  0.
    8880022    1    1    2    0    0 -0.66654328508E+03 -0.20703208253E+03  0.70791040694E+03  0.10058185877E+04  0.15294330000E+03 0.  0.
<mgrwt>
<rscale>  0 0.71451654E+03</rscale>
<asrwt>0</asrwt>
<pdfrwt beam="1">  1        2 0.51568746E+00 0.71451654E+03</pdfrwt>
<pdfrwt beam="2">  1       -2 0.30785793E-01 0.71451654E+03</pdfrwt>
<totfact> 0.10856110E+01</totfact>
</mgrwt>
</event>
<event>
 4    1  0.4880711E-008  0.7683996E+03  0.7818608E-02  0.9606918E-01
          2   -1    0    0  501    0  0.00000000000E+00  0.00000000000E+00  0.24396443133E+04  0.24396443133E+04  0.25500000000E-02 0. -1.
         -2   -1    0    0    0  501 -0.00000000000E+00 -0.00000000000E+00 -0.35796041547E+03  0.35796041548E+03  0.25500000000E-02 0.  1.
    8880022    1    1    2    0    0  0.74094426547E+03 -0.13434241945E+03  0.24475602174E+03  0.80643874745E+03  0.15294330000E+03 0.  0.
    8880022    1    1    2    0    0 -0.74094426547E+03  0.13434241945E+03  0.18369278761E+04  0.19911659813E+04  0.15294330000E+03 0.  0.
<mgrwt>
<rscale>  0 0.76839960E+03</rscale>
<asrwt>0</asrwt>
<pdfrwt beam="1">  1        2 0.37532992E+00 0.76839960E+03</pdfrwt>
<pdfrwt beam="2">  1       -2 0.55070830E-01 0.76839960E+03</pdfrwt>
<totfact> 0.12202377E+01</totfact>
</mgrwt>
</event>
<event>
 4    1  0.4880711E-008  0.7825379E+03  0.7818608E-02  0.9585642E-01
          2   -1    0    0  501    0  0.00000000000E+00  0.00000000000E+00  0.23323424831E+04  0.23323424831E+04  0.25500000000E-02 0. -1.
         -2   -1    0    0    0  501 -0.00000000000E+00 -0.00000000000E+00 -0.56238880578E+03  0.56238880579E+03  0.25500000000E-02 0.  1.
    8880022    1    1    2    0    0 -0.10246899780E+02 -0.76737797189E+03  0.19417968415E+04  0.20935473669E+04  0.15294330000E+03 0.  0.
    8880022    1    1    2    0    0  0.10246899780E+02  0.76737797189E+03 -0.17184316423E+03  0.80118392196E+03  0.15294330000E+03 0.  0.
<mgrwt>
<rscale>  0 0.78253792E+03</rscale>
<asrwt>0</asrwt>
<pdfrwt beam="1">  1        2 0.35882192E+00 0.78253792E+03</pdfrwt>
<pdfrwt beam="2">  1       -2 0.86521354E-01 0.78253792E+03</pdfrwt>
<totfact> 0.52248702E+00</totfact>
</mgrwt>
</event>
<event>
 4    1  0.4880711E-008  0.2965866E+03  0.7818608E-02  0.1086959E+00
         -2   -1    0    0    0  501 -0.00000000000E+00  0.00000000000E+00  0.66625242647E+02  0.66625242696E+02  0.25500000000E-02 0.  1.
          2   -1    0    0  501    0  0.00000000000E+00 -0.00000000000E+00 -0.23258416242E+04  0.23258416242E+04  0.25500000000E-02 0. -1.
    8880022    1    1    2    0    0  0.25065605540E+03 -0.41755467812E+02 -0.19161672388E+04  0.19389844035E+04  0.15294330000E+03 0.  0.
    8880022    1    1    2    0    0 -0.25065605540E+03  0.41755467812E+02 -0.34304914279E+03  0.45348246337E+03  0.15294330000E+03 0.  0.
<mgrwt>
<rscale>  0 0.29658663E+03</rscale>
<asrwt>0</asrwt>
<pdfrwt beam="1">  1        2 0.35782173E+00 0.29658663E+03</pdfrwt>
<pdfrwt beam="2">  1       -2 0.10250039E-01 0.29658663E+03</pdfrwt>
<totfact> 0.31691137E+02</totfact>
</mgrwt>
</event>
<event>
 4    1  0.4880711E-008  0.3521248E+03  0.7818608E-02  0.1061746E+00
         -2   -1    0    0    0  501 -0.00000000000E+00  0.00000000000E+00  0.44370185075E+03  0.44370185076E+03  0.25500000000E-02 0.  1.
          2   -1    0    0  501    0  0.00000000000E+00 -0.00000000000E+00 -0.15691725381E+04  0.15691725381E+04  0.25500000000E-02 0. -1.
    8880022    1    1    2    0    0  0.95366872939E+02 -0.30249861070E+03  0.34969494468E+03  0.49626450334E+03  0.15294330000E+03 0.  0.
    8880022    1    1    2    0    0 -0.95366872939E+02  0.30249861070E+03 -0.14751656320E+04  0.15166098855E+04  0.15294330000E+03 0.  0.
<mgrwt>
<rscale>  0 0.35212484E+03</rscale>
<asrwt>0</asrwt>
<pdfrwt beam="1">  1        2 0.24141116E+00 0.35212484E+03</pdfrwt>
<pdfrwt beam="2">  1       -2 0.68261824E-01 0.35212484E+03</pdfrwt>
<totfact> 0.25045005E+01</totfact>
</mgrwt>
</event>
<event>
 4    1  0.4880711E-008  0.1630850E+04  0.7818608E-02  0.8801816E-01
         -2   -1    0    0    0  501 -0.00000000000E+00  0.00000000000E+00  0.11349574487E+04  0.11349574487E+04  0.25500000000E-02 0.  1.
          2   -1    0    0  501    0  0.00000000000E+00 -0.00000000000E+00 -0.25299923309E+04  0.25299923309E+04  0.25500000000E-02 0. -1.
    8880022    1    1    2    0    0 -0.14364847601E+04 -0.75683101840E+03 -0.11951524716E+04  0.20218958281E+04  0.15294330000E+03 0.  0.
    8880022    1    1    2    0    0  0.14364847601E+04  0.75683101840E+03 -0.19988241060E+03  0.16430539515E+04  0.15294330000E+03 0.  0.
<mgrwt>
<rscale>  0 0.16308505E+04</rscale>
<asrwt>0</asrwt>
<pdfrwt beam="1">  1        2 0.38922959E+00 0.16308505E+04</pdfrwt>
<pdfrwt beam="2">  1       -2 0.17460884E+00 0.16308505E+04</pdfrwt>
<totfact> 0.61459026E-01</totfact>
</mgrwt>
</event>
<event>
 4    1  0.4880711E-008  0.5667062E+03  0.7818608E-02  0.9976994E-01
         -2   -1    0    0    0  501 -0.00000000000E+00  0.00000000000E+00  0.40904025634E+03  0.40904025635E+03  0.25500000000E-02 0.  1.
          2   -1    0    0  501    0  0.00000000000E+00 -0.00000000000E+00 -0.14492498206E+04  0.14492498206E+04  0.25500000000E-02 0. -1.
    8880022    1    1    2    0    0  0.53783802628E+03 -0.92165564370E+02 -0.11490752017E+04  0.12812219581E+04  0.15294330000E+03 0.  0.
    8880022    1    1    2    0    0 -0.53783802628E+03  0.92165564370E+02  0.10886563743E+03  0.57706811885E+03  0.15294330000E+03 0.  1.
<mgrwt>
<rscale>  0 0.56670617E+03</rscale>
<asrwt>0</asrwt>
<pdfrwt beam="1">  1        2 0.22296151E+00 0.56670617E+03</pdfrwt>
<pdfrwt beam="2">  1       -2 0.62929271E-01 0.56670617E+03</pdfrwt>
<totfact> 0.33217862E+01</totfact>
</mgrwt>
</event>
<event>
 4    1  0.8649655E-008  0.7412886E+03  0.7818608E-02  0.9649117E-01
          2   -1    0    0  501    0  0.00000000000E+00  0.00000000000E+00  0.14425983189E+04  0.14425983189E+04  0.25500000000E-02 0. -1.
         -2   -1    0    0    0  501 -0.00000000000E+00 -0.00000000000E+00 -0.16263236333E+04  0.16263236333E+04  0.25500000000E-02 0.  1.
    8880022    1    1    2    0    0 -0.20754740478E+03  0.69501164742E+03  0.12509274245E+04  0.14540729657E+04  0.15294330000E+03 0.  0.
    8880022    1    1    2    0    0  0.20754740478E+03 -0.69501164742E+03 -0.14346527389E+04  0.16148489866E+04  0.15294330000E+03 0.  0.
<mgrwt>
<rscale>  0 0.74128859E+03</rscale>
<asrwt>0</asrwt>
<pdfrwt beam="1">  1        2 0.22193820E+00 0.74128859E+03</pdfrwt>
<pdfrwt beam="2">  1       -2 0.25020364E+00 0.74128859E+03</pdfrwt>
<totfact> 0.91443578E-01</totfact>
</mgrwt>
</event>
<event>
 4    1  0.4880711E-008  0.1222715E+04  0.7818608E-02  0.9093203E-01
          2   -1    0    0  501    0  0.00000000000E+00  0.00000000000E+00  0.31222322615E+04  0.31222322615E+04  0.25500000000E-02 0. -1.
         -2   -1    0    0    0  501 -0.00000000000E+00 -0.00000000000E+00 -0.11774164953E+04  0.11774164953E+04  0.25500000000E-02 0.  1.
    8880022    1    1    2    0    0 -0.11930682830E+04 -0.21961104209E+03  0.26283555701E+04  0.28988421126E+04  0.15294330000E+03 0.  0.
    8880022    1    1    2    0    0  0.11930682830E+04  0.21961104209E+03 -0.68353980391E+03  0.14008066442E+04  0.15294330000E+03 0.  1.
<mgrwt>
<rscale>  0 0.12227153E+04</rscale>
<asrwt>0</asrwt>
<pdfrwt beam="1">  1        2 0.48034342E+00 0.12227153E+04</pdfrwt>
<pdfrwt beam="2">  1       -2 0.18114100E+00 0.12227153E+04</pdfrwt>
<totfact> 0.25461545E-01</totfact>
</mgrwt>
</event>
<event>
 4    1  0.4880711E-008  0.3394608E+03  0.7818608E-02  0.1067026E+00
         -2   -1    0    0    0  501 -0.00000000000E+00  0.00000000000E+00  0.12717726900E+04  0.12717726900E+04  0.25500000000E-02 0.  1.
          2   -1    0    0  501    0  0.00000000000E+00 -0.00000000000E+00 -0.92742985171E+03  0.92742985172E+03  0.25500000000E-02 0. -1.
    8880022    1    1    2    0    0 -0.14223926004E+03 -0.26760037130E+03 -0.87233480617E+03  0.93605642612E+03  0.15294330000E+03 0.  0.
    8880022    1    1    2    0    0  0.14223926004E+03  0.26760037130E+03  0.12166776444E+04  0.12631461156E+04  0.15294330000E+03 0.  1.
<mgrwt>
<rscale>  0 0.33946078E+03</rscale>
<asrwt>0</asrwt>
<pdfrwt beam="1">  1        2 0.14268152E+00 0.33946078E+03</pdfrwt>
<pdfrwt beam="2">  1       -2 0.19565734E+00 0.33946078E+03</pdfrwt>
<totfact> 0.44456595E+00</totfact>
</mgrwt>
</event>
<event>
 4    1  0.4880711E-008  0.1117096E+04  0.7818608E-02  0.9188688E-01
          2   -1    0    0  501    0  0.00000000000E+00  0.00000000000E+00  0.93226861704E+03  0.93226861704E+03  0.25500000000E-02 0. -1.
         -2   -1    0    0    0  501 -0.00000000000E+00 -0.00000000000E+00 -0.18060119088E+04  0.18060119088E+04  0.25500000000E-02 0.  1.
    8880022    1    1    2    0    0  0.95814822807E+02 -0.11024201917E+04 -0.11334238140E+04  0.15913993699E+04  0.15294330000E+03 0.  0.
    8880022    1    1    2    0    0 -0.95814822807E+02  0.11024201917E+04  0.25968052221E+03  0.11468811560E+04  0.15294330000E+03 0.  0.
<mgrwt>
<rscale>  0 0.11170955E+04</rscale>
<asrwt>0</asrwt>
<pdfrwt beam="1">  1        2 0.14342594E+00 0.11170955E+04</pdfrwt>
<pdfrwt beam="2">  1       -2 0.27784799E+00 0.11170955E+04</pdfrwt>
<totfact> 0.11940439E+00</totfact>
</mgrwt>
</event>
<event>
 4    1  0.4880711E-008  0.2856965E+03  0.7818608E-02  0.1092618E+00
          2   -1    0    0  501    0  0.00000000000E+00  0.00000000000E+00  0.21603362739E+04  0.21603362739E+04  0.25500000000E-02 0. -1.
         -2   -1    0    0    0  501 -0.00000000000E+00 -0.00000000000E+00 -0.48580056425E+02  0.48580056492E+02  0.25500000000E-02 0.  1.
    8880022    1    1    2    0    0 -0.22562930302E+03 -0.85570120142E+02  0.53517885491E+03  0.60666208683E+03  0.15294330000E+03 0.  1.
    8880022    1    1    2    0    0  0.22562930302E+03  0.85570120142E+02  0.15765773625E+04  0.16022542435E+04  0.15294330000E+03 0.  0.
<mgrwt>
<rscale>  0 0.28569648E+03</rscale>
<asrwt>0</asrwt>
<pdfrwt beam="1">  1        2 0.33235938E+00 0.28569648E+03</pdfrwt>
<pdfrwt beam="2">  1       -2 0.74738559E-02 0.28569648E+03</pdfrwt>
<totfact> 0.64198837E+02</totfact>
</mgrwt>
</event>
<event>
 4    1  0.4880711E-008  0.2806093E+03  0.7818608E-02  0.1095357E+00
          2   -1    0    0  501    0  0.00000000000E+00  0.00000000000E+00  0.44733435738E+03  0.44733435739E+03  0.25500000000E-02 0. -1.
         -2   -1    0    0    0  501 -0.00000000000E+00 -0.00000000000E+00 -0.27006733663E+03  0.27006733664E+03  0.25500000000E-02 0.  1.
    8880022    1    1    2    0    0  0.45285518842E+02  0.23086603843E+03 -0.12303707458E+03  0.30639791229E+03  0.15294330000E+03 0.  0.
    8880022    1    1    2    0    0 -0.45285518842E+02 -0.23086603843E+03  0.30030409533E+03  0.41100378174E+03  0.15294330000E+03 0.  0.
<mgrwt>
<rscale>  0 0.28060926E+03</rscale>
<asrwt>0</asrwt>
<pdfrwt beam="1">  1        2 0.68820670E-01 0.28060926E+03</pdfrwt>
<pdfrwt beam="2">  1       -2 0.41548821E-01 0.28060926E+03</pdfrwt>
<totfact> 0.39278896E+02</totfact>
</mgrwt>
</event>
<event>
 4    1  0.4880711E-008  0.3346009E+03  0.7818608E-02  0.1069119E+00
          2   -1    0    0  501    0  0.00000000000E+00  0.00000000000E+00  0.11517165247E+04  0.11517165247E+04  0.25500000000E-02 0. -1.
         -2   -1    0    0    0  501 -0.00000000000E+00 -0.00000000000E+00 -0.28182657502E+03  0.28182657503E+03  0.25500000000E-02 0.  1.
    8880022    1    1    2    0    0 -0.13429187944E+03  0.26557820132E+03  0.10150755646E+04  0.10688012654E+04  0.15294330000E+03 0. -1.
    8880022    1    1    2    0    0  0.13429187944E+03 -0.26557820132E+03 -0.14518561499E+03  0.36474183434E+03  0.15294330000E+03 0.  1.
<mgrwt>
<rscale>  0 0.33460087E+03</rscale>
<asrwt>0</asrwt>
<pdfrwt beam="1">  1        2 0.17718716E+00 0.33460087E+03</pdfrwt>
<pdfrwt beam="2">  1       -2 0.43357935E-01 0.33460087E+03</pdfrwt>
<totfact> 0.10861315E+02</totfact>
</mgrwt>
</event>
<event>
 4    1  0.4880711E-008  0.4867588E+03  0.7818608E-02  0.1017294E+00
          2   -1    0    0  501    0  0.00000000000E+00  0.00000000000E+00  0.14432616490E+04  0.14432616490E+04  0.25500000000E-02 0. -1.
         -2   -1    0    0    0  501 -0.00000000000E+00 -0.00000000000E+00 -0.22985579028E+03  0.22985579030E+03  0.25500000000E-02 0.  1.
    8880022    1    1    2    0    0  0.40155336400E+03 -0.22868625576E+03  0.10539200306E+04  0.11608968910E+04  0.15294330000E+03 0.  0.
    8880022    1    1    2    0    0 -0.40155336400E+03  0.22868625576E+03  0.15948582818E+03  0.51222054832E+03  0.15294330000E+03 0.  0.
<mgrwt>
<rscale>  0 0.48675883E+03</rscale>
<asrwt>0</asrwt>
<pdfrwt beam="1">  1        2 0.22204026E+00 0.48675883E+03</pdfrwt>
<pdfrwt beam="2">  1       -2 0.35362429E-01 0.48675883E+03</pdfrwt>
<totfact> 0.10745898E+02</totfact>
</mgrwt>
</event>
<event>
 4    1  0.4880711E-008  0.4323127E+03  0.7818608E-02  0.1033132E+00
         -2   -1    0    0    0  501 -0.00000000000E+00  0.00000000000E+00  0.51409695364E+03  0.51409695364E+03  0.25500000000E-02 0.  1.
          2   -1    0    0  501    0  0.00000000000E+00 -0.00000000000E+00 -0.49922510660E+03  0.49922510660E+03  0.25500000000E-02 0. -1.
    8880022    1    1    2    0    0 -0.54837599976E+02  0.40061886253E+03  0.27157763994E+03  0.51053766062E+03  0.15294330000E+03 0.  0.
    8880022    1    1    2    0    0  0.54837599976E+02 -0.40061886253E+03 -0.25670579290E+03  0.50278439962E+03  0.15294330000E+03 0.  0.
<mgrwt>
<rscale>  0 0.43231272E+03</rscale>
<asrwt>0</asrwt>
<pdfrwt beam="1">  1        2 0.76803863E-01 0.43231272E+03</pdfrwt>
<pdfrwt beam="2">  1       -2 0.79091839E-01 0.43231272E+03</pdfrwt>
<totfact> 0.90481863E+01</totfact>
</mgrwt>
</event>
<event>
 4    1  0.4880711E-008  0.1172227E+04  0.7818608E-02  0.9137519E-01
         -2   -1    0    0    0  501 -0.00000000000E+00  0.00000000000E+00  0.60015544790E+03  0.60015544790E+03  0.25500000000E-02 0.  1.
          2   -1    0    0  501    0  0.00000000000E+00 -0.00000000000E+00 -0.28148537527E+04  0.28148537527E+04  0.25500000000E-02 0. -1.
    8880022    1    1    2    0    0  0.51377517479E+02  0.11610708597E+04 -0.18449440535E+04  0.21858488978E+04  0.15294330000E+03 0.  0.
    8880022    1    1    2    0    0 -0.51377517479E+02 -0.11610708597E+04 -0.36975425127E+03  0.12291603028E+04  0.15294330000E+03 0.  0.
<mgrwt>
<rscale>  0 0.11722273E+04</rscale>
<asrwt>0</asrwt>
<pdfrwt beam="1">  1        2 0.43305441E+00 0.11722273E+04</pdfrwt>
<pdfrwt beam="2">  1       -2 0.92331609E-01 0.11722273E+04</pdfrwt>
<totfact> 0.22381647E+00</totfact>
</mgrwt>
</event>
<event>
 4    1  0.4880711E-008  0.1626491E+03  0.7818608E-02  0.1185738E+00
         -2   -1    0    0    0  501 -0.00000000000E+00  0.00000000000E+00  0.39091101408E+02  0.39091101491E+02  0.25500000000E-02 0.  1.
          2   -1    0    0  501    0  0.00000000000E+00 -0.00000000000E+00 -0.15514510820E+04  0.15514510820E+04  0.25500000000E-02 0. -1.
    8880022    1    1    2    0    0  0.45214656000E+02 -0.31917165468E+02 -0.13533213098E+04  0.13630602669E+04  0.15294330000E+03 0.  0.
    8880022    1    1    2    0    0 -0.45214656000E+02  0.31917165468E+02 -0.15903867082E+03  0.22748191664E+03  0.15294330000E+03 0.  0.
<mgrwt>
<rscale>  0 0.16264908E+03</rscale>
<asrwt>0</asrwt>
<pdfrwt beam="1">  1        2 0.23868473E+00 0.16264908E+03</pdfrwt>
<pdfrwt beam="2">  1       -2 0.60140168E-02 0.16264908E+03</pdfrwt>
<totfact> 0.18950535E+03</totfact>
</mgrwt>
</event>
<event>
 4    1  0.4880711E-008  0.9173316E+03  0.7818608E-02  0.9404172E-01
         -2   -1    0    0    0  501 -0.00000000000E+00  0.00000000000E+00  0.51362380479E+03  0.51362380480E+03  0.25500000000E-02 0.  1.
          2   -1    0    0  501    0  0.00000000000E+00 -0.00000000000E+00 -0.21416314081E+04  0.21416314081E+04  0.25500000000E-02 0. -1.
    8880022    1    1    2    0    0  0.86558778784E+03 -0.26241851098E+03 -0.14575916778E+04  0.17222284534E+04  0.15294330000E+03 0.  0.
    8880022    1    1    2    0    0 -0.86558778784E+03  0.26241851098E+03 -0.17041592554E+03  0.93302675956E+03  0.15294330000E+03 0.  0.
<mgrwt>
<rscale>  0 0.91733164E+03</rscale>
<asrwt>0</asrwt>
<pdfrwt beam="1">  1        2 0.32948175E+00 0.91733164E+03</pdfrwt>
<pdfrwt beam="2">  1       -2 0.79019048E-01 0.91733164E+03</pdfrwt>
<totfact> 0.80293272E+00</totfact>
</mgrwt>
</event>
<event>
 4    1  0.4880711E-008  0.9733633E+03  0.7818608E-02  0.9338252E-01
          2   -1    0    0  501    0  0.00000000000E+00  0.00000000000E+00  0.12387036410E+04  0.12387036410E+04  0.25500000000E-02 0. -1.
         -2   -1    0    0    0  501 -0.00000000000E+00 -0.00000000000E+00 -0.16706856011E+04  0.16706856011E+04  0.25500000000E-02 0.  1.
    8880022    1    1    2    0    0  0.49719697981E+03  0.82270257777E+03 -0.12871317262E+04  0.16137360694E+04  0.15294330000E+03 0.  0.
    8880022    1    1    2    0    0 -0.49719697981E+03 -0.82270257777E+03  0.85514976611E+03  0.12956531726E+04  0.15294330000E+03 0.  0.
<mgrwt>
<rscale>  0 0.97336325E+03</rscale>
<asrwt>0</asrwt>
<pdfrwt beam="1">  1        2 0.19056979E+00 0.97336325E+03</pdfrwt>
<pdfrwt beam="2">  1       -2 0.25702855E+00 0.97336325E+03</pdfrwt>
<totfact> 0.10468133E+00</totfact>
</mgrwt>
</event>
<event>
 4    1  0.4880711E-008  0.7732016E+03  0.7818608E-02  0.9599638E-01
         -2   -1    0    0    0  501 -0.00000000000E+00  0.00000000000E+00  0.43690520016E+03  0.43690520017E+03  0.25500000000E-02 0.  1.
          2   -1    0    0  501    0  0.00000000000E+00 -0.00000000000E+00 -0.17679940340E+04  0.17679940340E+04  0.25500000000E-02 0. -1.
    8880022    1    1    2    0    0 -0.66606880585E+03 -0.36166486238E+03 -0.11896914040E+04  0.14188750532E+04  0.15294330000E+03 0.  0.
    8880022    1    1    2    0    0  0.66606880585E+03  0.36166486238E+03 -0.14139742977E+03  0.78602418091E+03  0.15294330000E+03 0.  0.
<mgrwt>
<rscale>  0 0.77320164E+03</rscale>
<asrwt>0</asrwt>
<pdfrwt beam="1">  1        2 0.27199908E+00 0.77320164E+03</pdfrwt>
<pdfrwt beam="2">  1       -2 0.67216185E-01 0.77320164E+03</pdfrwt>
<totfact> 0.18731054E+01</totfact>
</mgrwt>
</event>
<event>
 4    1  0.4880711E-008  0.8820813E+03  0.7818608E-02  0.9448262E-01
         -2   -1    0    0    0  501 -0.00000000000E+00  0.00000000000E+00  0.84294694020E+03  0.84294694021E+03  0.25500000000E-02 0.  1.
          2   -1    0    0  501    0  0.00000000000E+00 -0.00000000000E+00 -0.11283929940E+04  0.11283929940E+04  0.25500000000E-02 0. -1.
    8880022    1    1    2    0    0  0.81804891729E+03  0.29235562227E+03  0.27777086625E+03  0.92478329791E+03  0.15294330000E+03 0.  0.
    8880022    1    1    2    0    0 -0.81804891729E+03 -0.29235562227E+03 -0.56321692005E+03  0.10465566363E+04  0.15294330000E+03 0.  0.
<mgrwt>
<rscale>  0 0.88208134E+03</rscale>
<asrwt>0</asrwt>
<pdfrwt beam="1">  1        2 0.17359892E+00 0.88208134E+03</pdfrwt>
<pdfrwt beam="2">  1       -2 0.12968414E+00 0.88208134E+03</pdfrwt>
<totfact> 0.91788825E+00</totfact>
</mgrwt>
</event>
<event>
 4    1  0.4880711E-008  0.3053034E+03  0.7818608E-02  0.1082619E+00
          2   -1    0    0  501    0  0.00000000000E+00  0.00000000000E+00  0.10955447768E+04  0.10955447768E+04  0.25500000000E-02 0. -1.
         -2   -1    0    0    0  501 -0.00000000000E+00 -0.00000000000E+00 -0.23762326602E+03  0.23762326603E+03  0.25500000000E-02 0.  1.
    8880022    1    1    2    0    0 -0.84399232051E+02  0.25039021605E+03  0.96303961469E+03  0.10102749344E+04  0.15294330000E+03 0.  0.
    8880022    1    1    2    0    0  0.84399232051E+02 -0.25039021605E+03 -0.10511810391E+03  0.32289310840E+03  0.15294330000E+03 0.  0.
<mgrwt>
<rscale>  0 0.30530336E+03</rscale>
<asrwt>0</asrwt>
<pdfrwt beam="1">  1        2 0.16854535E+00 0.30530336E+03</pdfrwt>
<pdfrwt beam="2">  1       -2 0.36557426E-01 0.30530336E+03</pdfrwt>
<totfact> 0.16345804E+02</totfact>
</mgrwt>
</event>
<event>
 4    1  0.4880711E-008  0.3047621E+03  0.7818608E-02  0.1082884E+00
          2   -1    0    0  501    0  0.00000000000E+00  0.00000000000E+00  0.99884743361E+03  0.99884743361E+03  0.25500000000E-02 0. -1.
         -2   -1    0    0    0  501 -0.00000000000E+00 -0.00000000000E+00 -0.16203703744E+03  0.16203703746E+03  0.25500000000E-02 0.  1.
    8880022    1    1    2    0    0  0.18028464251E+03  0.19231668199E+03  0.79731300192E+03  0.85357362573E+03  0.15294330000E+03 0.  0.
    8880022    1    1    2    0    0 -0.18028464251E+03 -0.19231668199E+03  0.39497394251E+02  0.30731084534E+03  0.15294330000E+03 0.  0.
<mgrwt>
<rscale>  0 0.30476206E+03</rscale>
<asrwt>0</asrwt>
<pdfrwt beam="1">  1        2 0.15366884E+00 0.30476206E+03</pdfrwt>
<pdfrwt beam="2">  1       -2 0.24928774E-01 0.30476206E+03</pdfrwt>
<totfact> 0.37694265E+02</totfact>
</mgrwt>
</event>
<event>
 4    1  0.4880711E-008  0.2681883E+03  0.7818608E-02  0.1102321E+00
         -2   -1    0    0    0  501 -0.00000000000E+00  0.00000000000E+00  0.91236533885E+03  0.91236533885E+03  0.25500000000E-02 0.  1.
          2   -1    0    0  501    0  0.00000000000E+00 -0.00000000000E+00 -0.87439160336E+03  0.87439160337E+03  0.25500000000E-02 0. -1.
    8880022    1    1    2    0    0 -0.16952101536E+03 -0.14069806220E+03  0.87114155919E+03  0.91148921471E+03  0.15294330000E+03 0.  0.
    8880022    1    1    2    0    0  0.16952101536E+03  0.14069806220E+03 -0.83316782370E+03  0.87526772751E+03  0.15294330000E+03 0.  0.
<mgrwt>
<rscale>  0 0.26818832E+03</rscale>
<asrwt>0</asrwt>
<pdfrwt beam="1">  1        2 0.13452179E+00 0.26818832E+03</pdfrwt>
<pdfrwt beam="2">  1       -2 0.14036390E+00 0.26818832E+03</pdfrwt>
<totfact> 0.12085144E+01</totfact>
</mgrwt>
</event>
<event>
 4    1  0.4880711E-008  0.7898035E+03  0.7818608E-02  0.9574895E-01
         -2   -1    0    0    0  501 -0.00000000000E+00  0.00000000000E+00  0.13378204562E+04  0.13378204562E+04  0.25500000000E-02 0.  1.
          2   -1    0    0  501    0  0.00000000000E+00 -0.00000000000E+00 -0.79719426647E+03  0.79719426647E+03  0.25500000000E-02 0. -1.
    8880022    1    1    2    0    0 -0.18523469485E+03  0.75238688839E+03  0.95809560145E+03  0.12416669266E+04  0.15294330000E+03 0.  0.
    8880022    1    1    2    0    0  0.18523469485E+03 -0.75238688839E+03 -0.41746941175E+03  0.89334779608E+03  0.15294330000E+03 0.  0.
<mgrwt>
<rscale>  0 0.78980350E+03</rscale>
<asrwt>0</asrwt>
<pdfrwt beam="1">  1        2 0.12264527E+00 0.78980350E+03</pdfrwt>
<pdfrwt beam="2">  1       -2 0.20581853E+00 0.78980350E+03</pdfrwt>
<totfact> 0.42907914E+00</totfact>
</mgrwt>
</event>
<event>
 4    1  0.4995331E-008  0.8182975E+03  0.7818608E-02  0.9533904E-01
          2   -1    0    0  501    0  0.00000000000E+00  0.00000000000E+00  0.17914361744E+04  0.17914361744E+04  0.25500000000E-02 0. -1.
         -2   -1    0    0    0  501 -0.00000000000E+00 -0.00000000000E+00 -0.17060868570E+04  0.17060868570E+04  0.25500000000E-02 0.  1.
    8880022    1    1    2    0    0 -0.65882801989E+03  0.46061340189E+03 -0.15026916836E+04  0.17110502666E+04  0.15294330000E+03 0.  0.
    8880022    1    1    2    0    0  0.65882801989E+03 -0.46061340189E+03  0.15880410009E+04  0.17864727648E+04  0.15294330000E+03 0.  0.
<mgrwt>
<rscale>  0 0.81829745E+03</rscale>
<asrwt>0</asrwt>
<pdfrwt beam="1">  1        2 0.27560557E+00 0.81829745E+03</pdfrwt>
<pdfrwt beam="2">  1       -2 0.26247490E+00 0.81829745E+03</pdfrwt>
<totfact> 0.48715675E-01</totfact>
</mgrwt>
</event>
<event>
 4    1  0.4880711E-008  0.7521401E+03  0.7818608E-02  0.9631999E-01
          2   -1    0    0  501    0  0.00000000000E+00  0.00000000000E+00  0.14761169407E+04  0.14761169407E+04  0.25500000000E-02 0. -1.
         -2   -1    0    0    0  501 -0.00000000000E+00 -0.00000000000E+00 -0.72008658495E+03  0.72008658495E+03  0.25500000000E-02 0.  1.
    8880022    1    1    2    0    0  0.40491569107E+03 -0.61511486443E+03  0.11290550251E+04  0.13566428845E+04  0.15294330000E+03 0.  0.
    8880022    1    1    2    0    0 -0.40491569107E+03  0.61511486443E+03 -0.37302466931E+03  0.83956064120E+03  0.15294330000E+03 0.  0.
<mgrwt>
<rscale>  0 0.75214006E+03</rscale>
<asrwt>0</asrwt>
<pdfrwt beam="1">  1        2 0.22709491E+00 0.75214006E+03</pdfrwt>
<pdfrwt beam="2">  1       -2 0.11078255E+00 0.75214006E+03</pdfrwt>
<totfact> 0.86609230E+00</totfact>
</mgrwt>
</event>
<event>
 4    1  0.4880711E-008  0.4844003E+03  0.7818608E-02  0.1017933E+00
          2   -1    0    0  501    0  0.00000000000E+00  0.00000000000E+00  0.95237369443E+03  0.95237369443E+03  0.25500000000E-02 0. -1.
         -2   -1    0    0    0  501 -0.00000000000E+00 -0.00000000000E+00 -0.34898001906E+03  0.34898001907E+03  0.25500000000E-02 0.  1.
    8880022    1    1    2    0    0  0.31155950377E+02  0.45856438447E+03  0.65450909610E+03  0.81426396079E+03  0.15294330000E+03 0.  0.
    8880022    1    1    2    0    0 -0.31155950377E+02 -0.45856438447E+03 -0.51115420732E+02  0.48708975272E+03  0.15294330000E+03 0.  0.
<mgrwt>
<rscale>  0 0.48440029E+03</rscale>
<asrwt>0</asrwt>
<pdfrwt beam="1">  1        2 0.14651903E+00 0.48440029E+03</pdfrwt>
<pdfrwt beam="2">  1       -2 0.53689234E-01 0.48440029E+03</pdfrwt>
<totfact> 0.91809464E+01</totfact>
</mgrwt>
</event>
<event>
 4    1  0.4880711E-008  0.7453446E+03  0.7818608E-02  0.9642682E-01
          2   -1    0    0  501    0  0.00000000000E+00  0.00000000000E+00  0.15100368320E+04  0.15100368320E+04  0.25500000000E-02 0. -1.
         -2   -1    0    0    0  501 -0.00000000000E+00 -0.00000000000E+00 -0.57667139069E+03  0.57667139069E+03  0.25500000000E-02 0.  1.
    8880022    1    1    2    0    0 -0.72932501856E+03  0.15230734348E+02 -0.16109476212E+03  0.76255500350E+03  0.15294330000E+03 0.  0.
    8880022    1    1    2    0    0  0.72932501856E+03 -0.15230734348E+02  0.10944602034E+04  0.13241532192E+04  0.15294330000E+03 0. -1.
<mgrwt>
<rscale>  0 0.74534463E+03</rscale>
<asrwt>0</asrwt>
<pdfrwt beam="1">  1        2 0.23231336E+00 0.74534463E+03</pdfrwt>
<pdfrwt beam="2">  1       -2 0.88718676E-01 0.74534463E+03</pdfrwt>
<totfact> 0.14030391E+01</totfact>
</mgrwt>
</event>
<event>
 4    1  0.4880711E-008  0.2297716E+03  0.7818608E-02  0.1126801E+00
          2   -1    0    0  501    0  0.00000000000E+00  0.00000000000E+00  0.22463867915E+04  0.22463867915E+04  0.25500000000E-02 0. -1.
         -2   -1    0    0    0  501 -0.00000000000E+00 -0.00000000000E+00 -0.19133994798E+03  0.19133994799E+03  0.25500000000E-02 0.  1.
    8880022    1    1    2    0    0 -0.34998509658E+02  0.16786428201E+03  0.21690789969E+04  0.21812149505E+04  0.15294330000E+03 0.  0.
    8880022    1    1    2    0    0  0.34998509658E+02 -0.16786428201E+03 -0.11403215335E+03  0.25651178894E+03  0.15294330000E+03 0.  0.
<mgrwt>
<rscale>  0 0.22977155E+03</rscale>
<asrwt>0</asrwt>
<pdfrwt beam="1">  1        2 0.34559796E+00 0.22977155E+03</pdfrwt>
<pdfrwt beam="2">  1       -2 0.29436915E-01 0.22977155E+03</pdfrwt>
<totfact> 0.59797674E+01</totfact>
</mgrwt>
</event>
<event>
 4    1  0.6224001E-008  0.5975599E+03  0.7818608E-02  0.9910481E-01
          2   -1    0    0  501    0  0.00000000000E+00  0.00000000000E+00  0.22316697544E+04  0.22316697544E+04  0.25500000000E-02 0. -1.
         -2   -1    0    0    0  501 -0.00000000000E+00 -0.00000000000E+00 -0.61071211939E+03  0.61071211939E+03  0.25500000000E-02 0.  1.
    8880022    1    1    2    0    0  0.17605797461E+03  0.55017254094E+03  0.20313826645E+04  0.21174497439E+04  0.15294330000E+03 0.  0.
    8880022    1    1    2    0    0 -0.17605797461E+03 -0.55017254094E+03 -0.41042502944E+03  0.72493212995E+03  0.15294330000E+03 0.  0.
<mgrwt>
<rscale>  0 0.59755995E+03</rscale>
<asrwt>0</asrwt>
<pdfrwt beam="1">  1        2 0.34333380E+00 0.59755995E+03</pdfrwt>
<pdfrwt beam="2">  1       -2 0.93955713E-01 0.59755995E+03</pdfrwt>
<totfact> 0.50871522E+00</totfact>
</mgrwt>
</event>
<event>
 4    1  0.4880711E-008  0.8604903E+03  0.7818608E-02  0.9476364E-01
         -2   -1    0    0    0  501 -0.00000000000E+00  0.00000000000E+00  0.10920107498E+04  0.10920107498E+04  0.25500000000E-02 0.  1.
          2   -1    0    0  501    0  0.00000000000E+00 -0.00000000000E+00 -0.14159080643E+04  0.14159080643E+04  0.25500000000E-02 0. -1.
    8880022    1    1    2    0    0  0.68865943875E+03 -0.49274755178E+03 -0.10671617322E+04  0.13708675312E+04  0.15294330000E+03 0. -1.
    8880022    1    1    2    0    0 -0.68865943875E+03  0.49274755178E+03  0.74326441770E+03  0.11370512829E+04  0.15294330000E+03 0.  0.
<mgrwt>
<rscale>  0 0.86049034E+03</rscale>
<asrwt>0</asrwt>
<pdfrwt beam="1">  1        2 0.21783201E+00 0.86049034E+03</pdfrwt>
<pdfrwt beam="2">  1       -2 0.16800165E+00 0.86049034E+03</pdfrwt>
<totfact> 0.31519216E+00</totfact>
</mgrwt>
</event>
<event>
 4    1  0.4880711E-008  0.5962192E+03  0.7818608E-02  0.9913281E-01
          2   -1    0    0  501    0  0.00000000000E+00  0.00000000000E+00  0.32241101657E+04  0.32241101657E+04  0.25500000000E-02 0. -1.
         -2   -1    0    0    0  501 -0.00000000000E+00 -0.00000000000E+00 -0.11317426939E+03  0.11317426942E+03  0.25500000000E-02 0.  1.
    8880022    1    1    2    0    0  0.49801889324E+03  0.28993586213E+03  0.12875159277E+04  0.14188638199E+04  0.15294330000E+03 0.  0.
    8880022    1    1    2    0    0 -0.49801889324E+03 -0.28993586213E+03  0.18234199686E+04  0.19184206153E+04  0.15294330000E+03 0.  0.
<mgrwt>
<rscale>  0 0.59621915E+03</rscale>
<asrwt>0</asrwt>
<pdfrwt beam="1">  1        2 0.49601684E+00 0.59621915E+03</pdfrwt>
<pdfrwt beam="2">  1       -2 0.17411430E-01 0.59621915E+03</pdfrwt>
<totfact> 0.37139371E+01</totfact>
</mgrwt>
</event>
<event>
 4    1  0.4880711E-008  0.4428763E+03  0.7818608E-02  0.1029868E+00
          2   -1    0    0  501    0  0.00000000000E+00  0.00000000000E+00  0.15722897001E+04  0.15722897001E+04  0.25500000000E-02 0. -1.
         -2   -1    0    0    0  501 -0.00000000000E+00 -0.00000000000E+00 -0.19032940740E+03  0.19032940742E+03  0.25500000000E-02 0.  1.
    8880022    1    1    2    0    0 -0.41043413524E+03 -0.65510139881E+02  0.12083095079E+04  0.12869154121E+04  0.15294330000E+03 0.  0.
    8880022    1    1    2    0    0  0.41043413524E+03  0.65510139881E+02  0.17365078472E+03  0.47570369543E+03  0.15294330000E+03 0.  1.
<mgrwt>
<rscale>  0 0.44287629E+03</rscale>
<asrwt>0</asrwt>
<pdfrwt beam="1">  1        2 0.24189073E+00 0.44287629E+03</pdfrwt>
<pdfrwt beam="2">  1       -2 0.29281447E-01 0.44287629E+03</pdfrwt>
<totfact> 0.13061509E+02</totfact>
</mgrwt>
</event>
<event>
 4    1  0.4880711E-008  0.1017539E+04  0.7818608E-02  0.9289514E-01
         -2   -1    0    0    0  501 -0.00000000000E+00  0.00000000000E+00  0.84127720617E+03  0.84127720617E+03  0.25500000000E-02 0.  1.
          2   -1    0    0  501    0  0.00000000000E+00 -0.00000000000E+00 -0.18158034797E+04  0.18158034797E+04  0.25500000000E-02 0. -1.
    8880022    1    1    2    0    0  0.95296996889E+03 -0.32224712405E+03 -0.12413907745E+04  0.16051285551E+04  0.15294330000E+03 0.  0.
    8880022    1    1    2    0    0 -0.95296996889E+03  0.32224712405E+03  0.26686450091E+03  0.10519521308E+04  0.15294330000E+03 0.  0.
<mgrwt>
<rscale>  0 0.10175395E+04</rscale>
<asrwt>0</asrwt>
<pdfrwt beam="1">  1        2 0.27935438E+00 0.10175395E+04</pdfrwt>
<pdfrwt beam="2">  1       -2 0.12942726E+00 0.10175395E+04</pdfrwt>
<totfact> 0.36921206E+00</totfact>
</mgrwt>
</event>
<event>
 4    1  0.4880711E-008  0.2037032E+03  0.7818608E-02  0.1146652E+00
         -2   -1    0    0    0  501 -0.00000000000E+00  0.00000000000E+00  0.56347821924E+02  0.56347821982E+02  0.25500000000E-02 0.  1.
          2   -1    0    0  501    0  0.00000000000E+00 -0.00000000000E+00 -0.11683938359E+04  0.11683938359E+04  0.25500000000E-02 0. -1.
    8880022    1    1    2    0    0  0.12986655417E+03  0.35185633504E+02 -0.92837567424E+03  0.95046114925E+03  0.15294330000E+03 0.  0.
    8880022    1    1    2    0    0 -0.12986655417E+03 -0.35185633504E+02 -0.18367033969E+03  0.27428050859E+03  0.15294330000E+03 0.  0.
<mgrwt>
<rscale>  0 0.20370322E+03</rscale>
<asrwt>0</asrwt>
<pdfrwt beam="1">  1        2 0.17975288E+00 0.20370322E+03</pdfrwt>
<pdfrwt beam="2">  1       -2 0.86688966E-02 0.20370322E+03</pdfrwt>
<totfact> 0.17359519E+03</totfact>
</mgrwt>
</event>
<event>
 4    1  0.4880711E-008  0.6511163E+03  0.7818608E-02  0.9804687E-01
          2   -1    0    0  501    0  0.00000000000E+00  0.00000000000E+00  0.12687159857E+04  0.12687159858E+04  0.25500000000E-02 0. -1.
         -2   -1    0    0    0  501 -0.00000000000E+00 -0.00000000000E+00 -0.10332372615E+04  0.10332372615E+04  0.25500000000E-02 0.  1.
    8880022    1    1    2    0    0  0.62582408948E+03 -0.94366355530E+02 -0.82899790516E+03  0.10541299634E+04  0.15294330000E+03 0.  0.
    8880022    1    1    2    0    0 -0.62582408948E+03  0.94366355530E+02  0.10644766294E+04  0.12478232838E+04  0.15294330000E+03 0.  0.
<mgrwt>
<rscale>  0 0.65111631E+03</rscale>
<asrwt>0</asrwt>
<pdfrwt beam="1">  1        2 0.19518707E+00 0.65111631E+03</pdfrwt>
<pdfrwt beam="2">  1       -2 0.15895958E+00 0.65111631E+03</pdfrwt>
<totfact> 0.45949627E+00</totfact>
</mgrwt>
</event>
<event>
 4    1  0.4880711E-008  0.4592138E+03  0.7818608E-02  0.1025009E+00
          2   -1    0    0  501    0  0.00000000000E+00  0.00000000000E+00  0.20431043732E+04  0.20431043732E+04  0.25500000000E-02 0. -1.
         -2   -1    0    0    0  501 -0.00000000000E+00 -0.00000000000E+00 -0.24548382694E+03  0.24548382696E+03  0.25500000000E-02 0.  1.
    8880022    1    1    2    0    0 -0.38352851233E+03 -0.20097656598E+03  0.17699389997E+04  0.18285407886E+04  0.15294330000E+03 0. -1.
    8880022    1    1    2    0    0  0.38352851233E+03  0.20097656598E+03  0.27681546535E+02  0.46004741155E+03  0.15294330000E+03 0.  0.
<mgrwt>
<rscale>  0 0.45921384E+03</rscale>
<asrwt>0</asrwt>
<pdfrwt beam="1">  1        2 0.31432374E+00 0.45921384E+03</pdfrwt>
<pdfrwt beam="2">  1       -2 0.37766743E-01 0.45921384E+03</pdfrwt>
<totfact> 0.45173644E+01</totfact>
</mgrwt>
</event>
<event>
 4    1  0.4880711E-008  0.6608735E+03  0.7818608E-02  0.9786587E-01
         -2   -1    0    0    0  501 -0.00000000000E+00  0.00000000000E+00  0.19944893747E+03  0.19944893748E+03  0.25500000000E-02 0.  1.
          2   -1    0    0  501    0  0.00000000000E+00 -0.00000000000E+00 -0.28873990110E+04  0.28873990110E+04  0.25500000000E-02 0. -1.
    8880022    1    1    2    0    0 -0.61582258003E+03  0.18472876532E+03 -0.58533819257E+03  0.88282196366E+03  0.15294330000E+03 0.  0.
    8880022    1    1    2    0    0  0.61582258003E+03 -0.18472876532E+03 -0.21026118809E+04  0.22040259848E+04  0.15294330000E+03 0.  0.
<mgrwt>
<rscale>  0 0.66087353E+03</rscale>
<asrwt>0</asrwt>
<pdfrwt beam="1">  1        2 0.44421520E+00 0.66087353E+03</pdfrwt>
<pdfrwt beam="2">  1       -2 0.30684454E-01 0.66087353E+03</pdfrwt>
<totfact> 0.21548121E+01</totfact>
</mgrwt>
</event>
<event>
 4    1  0.4880711E-008  0.5433473E+03  0.7818608E-02  0.1003046E+00
         -2   -1    0    0    0  501 -0.00000000000E+00  0.00000000000E+00  0.50110805399E+03  0.50110805399E+03  0.25500000000E-02 0.  1.
          2   -1    0    0  501    0  0.00000000000E+00 -0.00000000000E+00 -0.90353466350E+03  0.90353466351E+03  0.25500000000E-02 0. -1.
    8880022    1    1    2    0    0  0.42525486885E+03 -0.30165043708E+03 -0.61549540124E+03  0.82101213854E+03  0.15294330000E+03 0.  0.
    8880022    1    1    2    0    0 -0.42525486885E+03  0.30165043708E+03  0.21306879173E+03  0.58363057896E+03  0.15294330000E+03 0.  0.
<mgrwt>
<rscale>  0 0.54334735E+03</rscale>
<asrwt>0</asrwt>
<pdfrwt beam="1">  1        2 0.13900533E+00 0.54334735E+03</pdfrwt>
<pdfrwt beam="2">  1       -2 0.77093547E-01 0.54334735E+03</pdfrwt>
<totfact> 0.45365899E+01</totfact>
</mgrwt>
</event>
<event>
 4    1  0.4880711E-008  0.3085527E+03  0.7818608E-02  0.1081042E+00
         -2   -1    0    0    0  501 -0.00000000000E+00  0.00000000000E+00  0.20651781304E+03  0.20651781306E+03  0.25500000000E-02 0.  1.
          2   -1    0    0  501    0  0.00000000000E+00 -0.00000000000E+00 -0.13208581812E+04  0.13208581812E+04  0.25500000000E-02 0. -1.
    8880022    1    1    2    0    0  0.21570838779E+03  0.15900628364E+03 -0.11733411420E+04  0.12132329518E+04  0.15294330000E+03 0. -1.
    8880022    1    1    2    0    0 -0.21570838779E+03 -0.15900628364E+03  0.59000773838E+02  0.31414304247E+03  0.15294330000E+03 0.  0.
<mgrwt>
<rscale>  0 0.30855269E+03</rscale>
<asrwt>0</asrwt>
<pdfrwt beam="1">  1        2 0.20320895E+00 0.30855269E+03</pdfrwt>
<pdfrwt beam="2">  1       -2 0.31771972E-01 0.30855269E+03</pdfrwt>
<totfact> 0.15775188E+02</totfact>
</mgrwt>
</event>
<event>
 4    1  0.4880711E-008  0.4241010E+03  0.7818608E-02  0.1035740E+00
          2   -1    0    0  501    0  0.00000000000E+00  0.00000000000E+00  0.36609266076E+04  0.36609266076E+04  0.25500000000E-02 0. -1.
         -2   -1    0    0    0  501 -0.00000000000E+00 -0.00000000000E+00 -0.27697157749E+03  0.27697157750E+03  0.25500000000E-02 0.  1.
    8880022    1    1    2    0    0  0.85625899742E+02  0.38618421526E+03 -0.93824373683E+02  0.43435550985E+03  0.15294330000E+03 0.  1.
    8880022    1    1    2    0    0 -0.85625899742E+02 -0.38618421526E+03  0.34777794038E+04  0.35035426752E+04  0.15294330000E+03 0.  0.
<mgrwt>
<rscale>  0 0.42410104E+03</rscale>
<asrwt>0</asrwt>
<pdfrwt beam="1">  1        2 0.56321944E+00 0.42410104E+03</pdfrwt>
<pdfrwt beam="2">  1       -2 0.42611015E-01 0.42410104E+03</pdfrwt>
<totfact> 0.39081660E+00</totfact>
</mgrwt>
</event>
<event>
 4    1  0.7814733E-008  0.4637477E+03  0.7818608E-02  0.1023700E+00
          2   -1    0    0  501    0  0.00000000000E+00  0.00000000000E+00  0.19219625881E+04  0.19219625881E+04  0.25500000000E-02 0. -1.
         -2   -1    0    0    0  501 -0.00000000000E+00 -0.00000000000E+00 -0.70776183539E+03  0.70776183539E+03  0.25500000000E-02 0.  1.
    8880022    1    1    2    0    0  0.29035530400E+03 -0.32766463157E+03 -0.59935296275E+03  0.75781656112E+03  0.15294330000E+03 0.  0.
    8880022    1    1    2    0    0 -0.29035530400E+03  0.32766463157E+03  0.18135537154E+04  0.18719078623E+04  0.15294330000E+03 0.  0.
<mgrwt>
<rscale>  0 0.46374774E+03</rscale>
<asrwt>0</asrwt>
<pdfrwt beam="1">  1        2 0.29568655E+00 0.46374774E+03</pdfrwt>
<pdfrwt beam="2">  1       -2 0.10888644E+00 0.46374774E+03</pdfrwt>
<totfact> 0.54561000E+00</totfact>
</mgrwt>
</event>
<event>
 4    1  0.4880711E-008  0.5115656E+03  0.7818608E-02  0.1010803E+00
          2   -1    0    0  501    0  0.00000000000E+00  0.00000000000E+00  0.12533070851E+04  0.12533070851E+04  0.25500000000E-02 0. -1.
         -2   -1    0    0    0  501 -0.00000000000E+00 -0.00000000000E+00 -0.24342129802E+03  0.24342129804E+03  0.25500000000E-02 0.  1.
    8880022    1    1    2    0    0  0.40287454410E+03 -0.27568061482E+03  0.78714560031E+03  0.93877449304E+03  0.15294330000E+03 0.  0.
    8880022    1    1    2    0    0 -0.40287454410E+03  0.27568061482E+03  0.22274018676E+03  0.55795389011E+03  0.15294330000E+03 0.  0.
<mgrwt>
<rscale>  0 0.51156559E+03</rscale>
<asrwt>0</asrwt>
<pdfrwt beam="1">  1        2 0.19281647E+00 0.51156559E+03</pdfrwt>
<pdfrwt beam="2">  1       -2 0.37449431E-01 0.51156559E+03</pdfrwt>
<totfact> 0.12286848E+02</totfact>
</mgrwt>
</event>
<event>
 4    1  0.4880711E-008  0.4551341E+03  0.7818608E-02  0.1026202E+00
         -2   -1    0    0    0  501 -0.00000000000E+00  0.00000000000E+00  0.31521956562E+03  0.31521956563E+03  0.25500000000E-02 0.  1.
          2   -1    0    0  501    0  0.00000000000E+00 -0.00000000000E+00 -0.14608467731E+04  0.14608467731E+04  0.25500000000E-02 0. -1.
    8880022    1    1    2    0    0  0.22145056195E+03  0.36703552538E+03  0.85863399725E+02  0.46316261152E+03  0.15294330000E+03 0.  1.
    8880022    1    1    2    0    0 -0.22145056195E+03 -0.36703552538E+03 -0.12314906072E+04  0.13129037272E+04  0.15294330000E+03 0.  0.
<mgrwt>
<rscale>  0 0.45513414E+03</rscale>
<asrwt>0</asrwt>
<pdfrwt beam="1">  1        2 0.22474565E+00 0.45513414E+03</pdfrwt>
<pdfrwt beam="2">  1       -2 0.48495319E-01 0.45513414E+03</pdfrwt>
<totfact> 0.57052192E+01</totfact>
</mgrwt>
</event>
<event>
 4    1  0.4880711E-008  0.4649327E+03  0.7818608E-02  0.1023360E+00
          2   -1    0    0  501    0  0.00000000000E+00  0.00000000000E+00  0.11000397060E+04  0.11000397060E+04  0.25500000000E-02 0. -1.
         -2   -1    0    0    0  501 -0.00000000000E+00 -0.00000000000E+00 -0.22782212332E+03  0.22782212333E+03  0.25500000000E-02 0.  1.
    8880022    1    1    2    0    0  0.42683919394E+03  0.10285464145E+03  0.68227100457E+03  0.82562470375E+03  0.15294330000E+03 0. -1.
    8880022    1    1    2    0    0 -0.42683919394E+03 -0.10285464145E+03  0.18994657809E+03  0.50223712556E+03  0.15294330000E+03 0.  1.
<mgrwt>
<rscale>  0 0.46493271E+03</rscale>
<asrwt>0</asrwt>
<pdfrwt beam="1">  1        2 0.16923688E+00 0.46493271E+03</pdfrwt>
<pdfrwt beam="2">  1       -2 0.35049557E-01 0.46493271E+03</pdfrwt>
<totfact> 0.17236235E+02</totfact>
</mgrwt>
</event>
<event>
 4    1  0.4880711E-008  0.1269127E+04  0.7818608E-02  0.9054412E-01
         -2   -1    0    0    0  501 -0.00000000000E+00  0.00000000000E+00  0.73403590125E+03  0.73403590125E+03  0.25500000000E-02 0.  1.
          2   -1    0    0  501    0  0.00000000000E+00 -0.00000000000E+00 -0.23585256821E+04  0.23585256821E+04  0.25500000000E-02 0. -1.
    8880022    1    1    2    0    0  0.12434817335E+04 -0.20259669507E+03 -0.40419942490E+03  0.13319388389E+04  0.15294330000E+03 0.  0.
    8880022    1    1    2    0    0 -0.12434817335E+04  0.20259669507E+03 -0.12202903560E+04  0.17606227445E+04  0.15294330000E+03 0.  0.
<mgrwt>
<rscale>  0 0.12691272E+04</rscale>
<asrwt>0</asrwt>
<pdfrwt beam="1">  1        2 0.36285010E+00 0.12691272E+04</pdfrwt>
<pdfrwt beam="2">  1       -2 0.11292860E+00 0.12691272E+04</pdfrwt>
<totfact> 0.25170045E+00</totfact>
</mgrwt>
</event>
<event>
 4    1  0.4880711E-008  0.3055048E+03  0.7818608E-02  0.1082521E+00
         -2   -1    0    0    0  501 -0.00000000000E+00  0.00000000000E+00  0.12697014964E+03  0.12697014967E+03  0.25500000000E-02 0.  1.
          2   -1    0    0  501    0  0.00000000000E+00 -0.00000000000E+00 -0.24259240517E+04  0.24259240517E+04  0.25500000000E-02 0. -1.
    8880022    1    1    2    0    0  0.21542000859E+03  0.15341360235E+03 -0.83823367378E+02  0.31679571244E+03  0.15294330000E+03 0.  1.
    8880022    1    1    2    0    0 -0.21542000859E+03 -0.15341360235E+03 -0.22151305347E+04  0.22360984890E+04  0.15294330000E+03 0.  0.
<mgrwt>
<rscale>  0 0.30550477E+03</rscale>
<asrwt>0</asrwt>
<pdfrwt beam="1">  1        2 0.37321905E+00 0.30550477E+03</pdfrwt>
<pdfrwt beam="2">  1       -2 0.19533871E-01 0.30550477E+03</pdfrwt>
<totfact> 0.95992928E+01</totfact>
</mgrwt>
</event>
<event>
 4    1  0.4880711E-008  0.1951310E+03  0.7818608E-02  0.1153913E+00
         -2   -1    0    0    0  501 -0.00000000000E+00  0.00000000000E+00  0.31405642434E+03  0.31405642435E+03  0.25500000000E-02 0.  1.
          2   -1    0    0  501    0  0.00000000000E+00 -0.00000000000E+00 -0.37208909865E+03  0.37208909866E+03  0.25500000000E-02 0. -1.
    8880022    1    1    2    0    0 -0.81273049866E+01 -0.12090652383E+03 -0.31070497732E+03  0.36689736513E+03  0.15294330000E+03 0.  0.
    8880022    1    1    2    0    0  0.81273049866E+01  0.12090652383E+03  0.25267230301E+03  0.31924815789E+03  0.15294330000E+03 0.  0.
<mgrwt>
<rscale>  0 0.19513097E+03</rscale>
<asrwt>0</asrwt>
<pdfrwt beam="1">  1        2 0.57244477E-01 0.19513097E+03</pdfrwt>
<pdfrwt beam="2">  1       -2 0.48316373E-01 0.19513097E+03</pdfrwt>
<totfact> 0.35877050E+02</totfact>
</mgrwt>
</event>
<event>
 4    1  0.4880711E-008  0.3465991E+03  0.7818608E-02  0.1064020E+00
         -2   -1    0    0    0  501 -0.00000000000E+00  0.00000000000E+00  0.43255878898E+03  0.43255878899E+03  0.25500000000E-02 0.  1.
          2   -1    0    0  501    0  0.00000000000E+00 -0.00000000000E+00 -0.47056921480E+03  0.47056921481E+03  0.25500000000E-02 0. -1.
    8880022    1    1    2    0    0  0.26160324197E+03 -0.16823507360E+03 -0.30808292880E+03  0.46373056858E+03  0.15294330000E+03 0. -1.
    8880022    1    1    2    0    0 -0.26160324197E+03  0.16823507360E+03  0.27007250298E+03  0.43939743522E+03  0.15294330000E+03 0.  0.
<mgrwt>
<rscale>  0 0.34659912E+03</rscale>
<asrwt>0</asrwt>
<pdfrwt beam="1">  1        2 0.72395263E-01 0.34659912E+03</pdfrwt>
<pdfrwt beam="2">  1       -2 0.66547506E-01 0.34659912E+03</pdfrwt>
<totfact> 0.14205615E+02</totfact>
</mgrwt>
</event>
<event>
 4    1  0.4880711E-008  0.4236059E+03  0.7818608E-02  0.1035899E+00
          2   -1    0    0  501    0  0.00000000000E+00  0.00000000000E+00  0.12901884713E+04  0.12901884713E+04  0.25500000000E-02 0. -1.
         -2   -1    0    0    0  501 -0.00000000000E+00 -0.00000000000E+00 -0.64124818678E+03  0.64124818678E+03  0.25500000000E-02 0.  1.
    8880022    1    1    2    0    0 -0.25835941321E+03 -0.29883230054E+03 -0.53012640845E+03  0.67858381368E+03  0.15294330000E+03 0.  0.
    8880022    1    1    2    0    0  0.25835941321E+03  0.29883230054E+03  0.11790666929E+04  0.12528528444E+04  0.15294330000E+03 0.  0.
<mgrwt>
<rscale>  0 0.42360593E+03</rscale>
<asrwt>0</asrwt>
<pdfrwt beam="1">  1        2 0.19849053E+00 0.42360593E+03</pdfrwt>
<pdfrwt beam="2">  1       -2 0.98653568E-01 0.42360593E+03</pdfrwt>
<totfact> 0.15367937E+01</totfact>
</mgrwt>
</event>
<event>
 4    1  0.4880711E-008  0.4735881E+03  0.7818608E-02  0.1020912E+00
         -2   -1    0    0    0  501 -0.00000000000E+00  0.00000000000E+00  0.16748474267E+04  0.16748474267E+04  0.25500000000E-02 0.  1.
          2   -1    0    0  501    0  0.00000000000E+00 -0.00000000000E+00 -0.59724891976E+03  0.59724891977E+03  0.25500000000E-02 0. -1.
    8880022    1    1    2    0    0 -0.40310056957E+03  0.19596934935E+03  0.15394131368E+04  0.16106143281E+04  0.15294330000E+03 0.  0.
    8880022    1    1    2    0    0  0.40310056957E+03 -0.19596934935E+03 -0.46181462995E+03  0.66148201829E+03  0.15294330000E+03 0. -1.
<mgrwt>
<rscale>  0 0.47358812E+03</rscale>
<asrwt>0</asrwt>
<pdfrwt beam="1">  1        2 0.91884449E-01 0.47358812E+03</pdfrwt>
<pdfrwt beam="2">  1       -2 0.25766884E+00 0.47358812E+03</pdfrwt>
<totfact> 0.31208741E+00</totfact>
</mgrwt>
</event>
<event>
 4    1  0.4880711E-008  0.6266309E+03  0.7818608E-02  0.9851646E-01
          2   -1    0    0  501    0  0.00000000000E+00  0.00000000000E+00  0.66927617220E+03  0.66927617220E+03  0.25500000000E-02 0. -1.
         -2   -1    0    0    0  501 -0.00000000000E+00 -0.00000000000E+00 -0.10328886816E+04  0.10328886816E+04  0.25500000000E-02 0.  1.
    8880022    1    1    2    0    0 -0.47383303047E+03  0.38046928470E+03  0.37756832713E+03  0.73159012571E+03  0.15294330000E+03 0.  0.
    8880022    1    1    2    0    0  0.47383303047E+03 -0.38046928470E+03 -0.74118083655E+03  0.97057472811E+03  0.15294330000E+03 0.  0.
<mgrwt>
<rscale>  0 0.62663089E+03</rscale>
<asrwt>0</asrwt>
<pdfrwt beam="1">  1        2 0.10296556E+00 0.62663089E+03</pdfrwt>
<pdfrwt beam="2">  1       -2 0.15890595E+00 0.62663089E+03</pdfrwt>
<totfact> 0.11464829E+01</totfact>
</mgrwt>
</event>
<event>
 4    1  0.4880711E-008  0.4076544E+03  0.7818608E-02  0.1041161E+00
         -2   -1    0    0    0  501 -0.00000000000E+00  0.00000000000E+00  0.16135028700E+03  0.16135028702E+03  0.25500000000E-02 0.  1.
          2   -1    0    0  501    0  0.00000000000E+00 -0.00000000000E+00 -0.24047785442E+04  0.24047785442E+04  0.25500000000E-02 0. -1.
    8880022    1    1    2    0    0  0.37737072533E+03  0.19538546820E+02 -0.15157096297E+03  0.43492048581E+03  0.15294330000E+03 0.  0.
    8880022    1    1    2    0    0 -0.37737072533E+03 -0.19538546820E+02 -0.20918572942E+04  0.21312083454E+04  0.15294330000E+03 0.  0.
<mgrwt>
<rscale>  0 0.40765435E+03</rscale>
<asrwt>0</asrwt>
<pdfrwt beam="1">  1        2 0.36996590E+00 0.40765435E+03</pdfrwt>
<pdfrwt beam="2">  1       -2 0.24823123E-01 0.40765435E+03</pdfrwt>
<totfact> 0.63100369E+01</totfact>
</mgrwt>
</event>
<event>
 4    1  0.4880711E-008  0.6903226E+03  0.7818608E-02  0.9733926E-01
         -2   -1    0    0    0  501 -0.00000000000E+00  0.00000000000E+00  0.49334436911E+03  0.49334436911E+03  0.25500000000E-02 0.  1.
          2   -1    0    0  501    0  0.00000000000E+00 -0.00000000000E+00 -0.20921643452E+04  0.20921643453E+04  0.25500000000E-02 0. -1.
    8880022    1    1    2    0    0  0.51163742285E+03  0.43747091659E+03 -0.17478915812E+04  0.18792738726E+04  0.15294330000E+03 0.  0.
    8880022    1    1    2    0    0 -0.51163742285E+03 -0.43747091659E+03  0.14907160508E+03  0.70623484181E+03  0.15294330000E+03 0.  0.
<mgrwt>
<rscale>  0 0.69032261E+03</rscale>
<asrwt>0</asrwt>
<pdfrwt beam="1">  1        2 0.32187143E+00 0.69032261E+03</pdfrwt>
<pdfrwt beam="2">  1       -2 0.75899135E-01 0.69032261E+03</pdfrwt>
<totfact> 0.96714039E+00</totfact>
</mgrwt>
</event>
<event>
 4    1  0.4880711E-008  0.2493689E+03  0.7818608E-02  0.1113704E+00
         -2   -1    0    0    0  501 -0.00000000000E+00  0.00000000000E+00  0.11515348492E+03  0.11515348495E+03  0.25500000000E-02 0.  1.
          2   -1    0    0  501    0  0.00000000000E+00 -0.00000000000E+00 -0.20029794803E+04  0.20029794803E+04  0.25500000000E-02 0. -1.
    8880022    1    1    2    0    0 -0.15659147984E+01  0.19695367533E+03 -0.38802614018E+02  0.25236976480E+03  0.15294330000E+03 0.  1.
    8880022    1    1    2    0    0  0.15659147984E+01 -0.19695367533E+03 -0.18490233814E+04  0.18657632004E+04  0.15294330000E+03 0.  0.
<mgrwt>
<rscale>  0 0.24936891E+03</rscale>
<asrwt>0</asrwt>
<pdfrwt beam="1">  1        2 0.30815066E+00 0.24936891E+03</pdfrwt>
<pdfrwt beam="2">  1       -2 0.17715922E-01 0.24936891E+03</pdfrwt>
<totfact> 0.19373752E+02</totfact>
</mgrwt>
</event>
<event>
 4    1  0.4880711E-008  0.6557344E+03  0.7818608E-02  0.9796078E-01
          2   -1    0    0  501    0  0.00000000000E+00  0.00000000000E+00  0.20665340643E+04  0.20665340643E+04  0.25500000000E-02 0. -1.
         -2   -1    0    0    0  501 -0.00000000000E+00 -0.00000000000E+00 -0.52756668115E+03  0.52756668116E+03  0.25500000000E-02 0.  1.
    8880022    1    1    2    0    0  0.86961839027E+02  0.63169103466E+03  0.17788529587E+04  0.18958653503E+04  0.15294330000E+03 0.  0.
    8880022    1    1    2    0    0 -0.86961839027E+02 -0.63169103466E+03 -0.23988557554E+03  0.69823539518E+03  0.15294330000E+03 0.  0.
<mgrwt>
<rscale>  0 0.65573438E+03</rscale>
<asrwt>0</asrwt>
<pdfrwt beam="1">  1        2 0.31792831E+00 0.65573438E+03</pdfrwt>
<pdfrwt beam="2">  1       -2 0.81164106E-01 0.65573438E+03</pdfrwt>
<totfact> 0.86494748E+00</totfact>
</mgrwt>
</event>
<event>
 4    1  0.4880711E-008  0.4915354E+03  0.7818608E-02  0.1016012E+00
          2   -1    0    0  501    0  0.00000000000E+00  0.00000000000E+00  0.26393491179E+04  0.26393491179E+04  0.25500000000E-02 0. -1.
         -2   -1    0    0    0  501 -0.00000000000E+00 -0.00000000000E+00 -0.15274496699E+03  0.15274496701E+03  0.25500000000E-02 0.  1.
    8880022    1    1    2    0    0 -0.42321716349E+03  0.19774395532E+03  0.35959468172E+03  0.60902826493E+03  0.15294330000E+03 0.  0.
    8880022    1    1    2    0    0  0.42321716349E+03 -0.19774395532E+03  0.21270094691E+04  0.21830658199E+04  0.15294330000E+03 0.  0.
<mgrwt>
<rscale>  0 0.49153544E+03</rscale>
<asrwt>0</asrwt>
<pdfrwt beam="1">  1        2 0.40605374E+00 0.49153544E+03</pdfrwt>
<pdfrwt beam="2">  1       -2 0.23499224E-01 0.49153544E+03</pdfrwt>
<totfact> 0.50463224E+01</totfact>
</mgrwt>
</event>
<event>
 4    1  0.4880711E-008  0.2650733E+03  0.7818608E-02  0.1104133E+00
          2   -1    0    0  501    0  0.00000000000E+00  0.00000000000E+00  0.39219861629E+04  0.39219861629E+04  0.25500000000E-02 0. -1.
         -2   -1    0    0    0  501 -0.00000000000E+00 -0.00000000000E+00 -0.40675114182E+03  0.40675114183E+03  0.25500000000E-02 0.  1.
    8880022    1    1    2    0    0 -0.15587749350E+03 -0.15024787557E+03  0.38737845493E+04  0.38828431084E+04  0.15294330000E+03 0. -1.
    8880022    1    1    2    0    0  0.15587749350E+03  0.15024787557E+03 -0.35854952823E+03  0.44589419631E+03  0.15294330000E+03 0.  0.
<mgrwt>
<rscale>  0 0.26507333E+03</rscale>
<asrwt>0</asrwt>
<pdfrwt beam="1">  1        2 0.60338251E+00 0.26507333E+03</pdfrwt>
<pdfrwt beam="2">  1       -2 0.62577097E-01 0.26507333E+03</pdfrwt>
<totfact> 0.12684928E+00</totfact>
</mgrwt>
</event>
<event>
 4    1  0.6676747E-008  0.6290767E+03  0.7818608E-02  0.9846852E-01
          2   -1    0    0  501    0  0.00000000000E+00  0.00000000000E+00  0.20337022515E+04  0.20337022515E+04  0.25500000000E-02 0. -1.
         -2   -1    0    0    0  501 -0.00000000000E+00 -0.00000000000E+00 -0.74014710418E+03  0.74014710418E+03  0.25500000000E-02 0.  1.
    8880022    1    1    2    0    0 -0.59205976802E+03  0.14768573086E+03 -0.54395458630E+03  0.83163939840E+03  0.15294330000E+03 0.  0.
    8880022    1    1    2    0    0  0.59205976802E+03 -0.14768573086E+03  0.18375097336E+04  0.19422099573E+04  0.15294330000E+03 0.  0.
<mgrwt>
<rscale>  0 0.62907670E+03</rscale>
<asrwt>0</asrwt>
<pdfrwt beam="1">  1        2 0.31287727E+00 0.62907670E+03</pdfrwt>
<pdfrwt beam="2">  1       -2 0.11386879E+00 0.62907670E+03</pdfrwt>
<totfact> 0.41005368E+00</totfact>
</mgrwt>
</event>
<event>
 4    1  0.4880711E-008  0.5110379E+03  0.7818608E-02  0.1010937E+00
          2   -1    0    0  501    0  0.00000000000E+00  0.00000000000E+00  0.15282412630E+04  0.15282412630E+04  0.25500000000E-02 0. -1.
         -2   -1    0    0    0  501 -0.00000000000E+00 -0.00000000000E+00 -0.19568626392E+03  0.19568626394E+03  0.25500000000E-02 0.  1.
    8880022    1    1    2    0    0  0.16021837607E+03  0.46054120847E+03  0.35943905169E+03  0.62478493710E+03  0.15294330000E+03 0.  0.
    8880022    1    1    2    0    0 -0.16021837607E+03 -0.46054120847E+03  0.97311594739E+03  0.10991425898E+04  0.15294330000E+03 0.  0.
<mgrwt>
<rscale>  0 0.51103795E+03</rscale>
<asrwt>0</asrwt>
<pdfrwt beam="1">  1        2 0.23511405E+00 0.51103795E+03</pdfrwt>
<pdfrwt beam="2">  1       -2 0.30105578E-01 0.51103795E+03</pdfrwt>
<totfact> 0.12995483E+02</totfact>
</mgrwt>
</event>
<event>
 4    1  0.4880711E-008  0.2231177E+03  0.7818608E-02  0.1131580E+00
          2   -1    0    0  501    0  0.00000000000E+00  0.00000000000E+00  0.80305796606E+03  0.80305796606E+03  0.25500000000E-02 0. -1.
         -2   -1    0    0    0  501 -0.00000000000E+00 -0.00000000000E+00 -0.12140374287E+03  0.12140374290E+03  0.25500000000E-02 0.  1.
    8880022    1    1    2    0    0  0.16132914734E+03 -0.19046194618E+02  0.17466871687E+02  0.22380034838E+03  0.15294330000E+03 0.  0.
    8880022    1    1    2    0    0 -0.16132914734E+03  0.19046194618E+02  0.66418735150E+03  0.70066136059E+03  0.15294330000E+03 0.  0.
<mgrwt>
<rscale>  0 0.22311769E+03</rscale>
<asrwt>0</asrwt>
<pdfrwt beam="1">  1        2 0.12354738E+00 0.22311769E+03</pdfrwt>
<pdfrwt beam="2">  1       -2 0.18677499E-01 0.22311769E+03</pdfrwt>
<totfact> 0.83810926E+02</totfact>
</mgrwt>
</event>
<event>
 4    1  0.4880711E-008  0.1163151E+04  0.7818608E-02  0.9145737E-01
         -2   -1    0    0    0  501 -0.00000000000E+00  0.00000000000E+00  0.97292035463E+03  0.97292035463E+03  0.25500000000E-02 0.  1.
          2   -1    0    0  501    0  0.00000000000E+00 -0.00000000000E+00 -0.20266538944E+04  0.20266538944E+04  0.25500000000E-02 0. -1.
    8880022    1    1    2    0    0  0.76373755166E+03  0.86384744753E+03 -0.13670909636E+04  0.17949531515E+04  0.15294330000E+03 0.  0.
    8880022    1    1    2    0    0 -0.76373755166E+03 -0.86384744753E+03  0.31335742384E+03  0.12046210975E+04  0.15294330000E+03 0.  0.
<mgrwt>
<rscale>  0 0.11631505E+04</rscale>
<asrwt>0</asrwt>
<pdfrwt beam="1">  1        2 0.31179291E+00 0.11631505E+04</pdfrwt>
<pdfrwt beam="2">  1       -2 0.14968006E+00 0.11631505E+04</pdfrwt>
<totfact> 0.19021320E+00</totfact>
</mgrwt>
</event>
<event>
 4    1  0.4880711E-008  0.3545599E+03  0.7818608E-02  0.1060759E+00
         -2   -1    0    0    0  501 -0.00000000000E+00  0.00000000000E+00  0.46045387879E+03  0.46045387879E+03  0.25500000000E-02 0.  1.
          2   -1    0    0  501    0  0.00000000000E+00 -0.00000000000E+00 -0.97778653162E+03  0.97778653162E+03  0.25500000000E-02 0. -1.
    8880022    1    1    2    0    0  0.29207144428E+03 -0.13044287828E+03 -0.86918979666E+03  0.93872446900E+03  0.15294330000E+03 0.  0.
    8880022    1    1    2    0    0 -0.29207144428E+03  0.13044287828E+03  0.35185714383E+03  0.49951594142E+03  0.15294330000E+03 0.  1.
<mgrwt>
<rscale>  0 0.35455990E+03</rscale>
<asrwt>0</asrwt>
<pdfrwt beam="1">  1        2 0.15042870E+00 0.35455990E+03</pdfrwt>
<pdfrwt beam="2">  1       -2 0.70839059E-01 0.35455990E+03</pdfrwt>
<totfact> 0.50264017E+01</totfact>
</mgrwt>
</event>
<event>
 4    1  0.4880711E-008  0.4583675E+03  0.7818608E-02  0.1025256E+00
          2   -1    0    0  501    0  0.00000000000E+00  0.00000000000E+00  0.32798211078E+04  0.32798211078E+04  0.25500000000E-02 0. -1.
         -2   -1    0    0    0  501 -0.00000000000E+00 -0.00000000000E+00 -0.27551895755E+03  0.27551895757E+03  0.25500000000E-02 0.  1.
    8880022    1    1    2    0    0 -0.51977566279E+02  0.42896089253E+03  0.30595141848E+04  0.30936592920E+04  0.15294330000E+03 0.  0.
    8880022    1    1    2    0    0  0.51977566279E+02 -0.42896089253E+03 -0.55212034602E+02  0.46168077336E+03  0.15294330000E+03 0.  0.
<mgrwt>
<rscale>  0 0.45836750E+03</rscale>
<asrwt>0</asrwt>
<pdfrwt beam="1">  1        2 0.50458782E+00 0.45836750E+03</pdfrwt>
<pdfrwt beam="2">  1       -2 0.42387535E-01 0.45836750E+03</pdfrwt>
<totfact> 0.70084809E+00</totfact>
</mgrwt>
</event>
<event>
 4    1  0.4880711E-008  0.5534664E+03  0.7818608E-02  0.1000695E+00
          2   -1    0    0  501    0  0.00000000000E+00  0.00000000000E+00  0.87237484512E+03  0.87237484513E+03  0.25500000000E-02 0. -1.
         -2   -1    0    0    0  501 -0.00000000000E+00 -0.00000000000E+00 -0.52226401731E+03  0.52226401732E+03  0.25500000000E-02 0.  1.
    8880022    1    1    2    0    0  0.49820798875E+03  0.18633887504E+03  0.57421188855E+03  0.79752386946E+03  0.15294330000E+03 0.  0.
    8880022    1    1    2    0    0 -0.49820798875E+03 -0.18633887504E+03 -0.22410106074E+03  0.59711499298E+03  0.15294330000E+03 0.  0.
<mgrwt>
<rscale>  0 0.55346638E+03</rscale>
<asrwt>0</asrwt>
<pdfrwt beam="1">  1        2 0.13421151E+00 0.55346638E+03</pdfrwt>
<pdfrwt beam="2">  1       -2 0.80348310E-01 0.55346638E+03</pdfrwt>
<totfact> 0.43357448E+01</totfact>
</mgrwt>
</event>
<event>
 4    1  0.4880711E-008  0.4978400E+03  0.7818608E-02  0.1014344E+00
          2   -1    0    0  501    0  0.00000000000E+00  0.00000000000E+00  0.22529682886E+04  0.22529682886E+04  0.25500000000E-02 0. -1.
         -2   -1    0    0    0  501 -0.00000000000E+00 -0.00000000000E+00 -0.39211632197E+03  0.39211632198E+03  0.25500000000E-02 0.  1.
    8880022    1    1    2    0    0 -0.22831071010E+03 -0.41512311308E+03 -0.19136005023E+03  0.53335101125E+03  0.15294330000E+03 0.  0.
    8880022    1    1    2    0    0  0.22831071010E+03  0.41512311308E+03  0.20522120168E+04  0.21117335993E+04  0.15294330000E+03 0.  0.
<mgrwt>
<rscale>  0 0.49783997E+03</rscale>
<asrwt>0</asrwt>
<pdfrwt beam="1">  1        2 0.34661049E+00 0.49783997E+03</pdfrwt>
<pdfrwt beam="2">  1       -2 0.60325590E-01 0.49783997E+03</pdfrwt>
<totfact> 0.13482291E+01</totfact>
</mgrwt>
</event>
<event>
 4    1  0.4880711E-008  0.3892639E+03  0.7818608E-02  0.1047562E+00
         -2   -1    0    0    0  501 -0.00000000000E+00  0.00000000000E+00  0.89603905266E+03  0.89603905266E+03  0.25500000000E-02 0.  1.
          2   -1    0    0  501    0  0.00000000000E+00 -0.00000000000E+00 -0.50739529127E+03  0.50739529128E+03  0.25500000000E-02 0. -1.
    8880022    1    1    2    0    0  0.28226328243E+03 -0.22014120781E+03  0.76729262937E+03  0.86038615986E+03  0.15294330000E+03 0.  0.
    8880022    1    1    2    0    0 -0.28226328243E+03  0.22014120781E+03 -0.37864886798E+03  0.54304818407E+03  0.15294330000E+03 0.  0.
<mgrwt>
<rscale>  0 0.38926388E+03</rscale>
<asrwt>0</asrwt>
<pdfrwt beam="1">  1        2 0.78060815E-01 0.38926388E+03</pdfrwt>
<pdfrwt beam="2">  1       -2 0.13785216E+00 0.38926388E+03</pdfrwt>
<totfact> 0.23883321E+01</totfact>
</mgrwt>
</event>
<event>
 4    1  0.4880711E-008  0.1126316E+04  0.7818608E-02  0.9179915E-01
         -2   -1    0    0    0  501 -0.00000000000E+00  0.00000000000E+00  0.37109312400E+03  0.37109312401E+03  0.25500000000E-02 0.  1.
          2   -1    0    0  501    0  0.00000000000E+00 -0.00000000000E+00 -0.45146673448E+04  0.45146673448E+04  0.25500000000E-02 0. -1.
    8880022    1    1    2    0    0 -0.10757928730E+04  0.29642144510E+03 -0.32755047876E+04  0.34637435306E+04  0.15294330000E+03 0.  0.
    8880022    1    1    2    0    0  0.10757928730E+04 -0.29642144510E+03 -0.86806943318E+03  0.14220169382E+04  0.15294330000E+03 0.  0.
<mgrwt>
<rscale>  0 0.11263160E+04</rscale>
<asrwt>0</asrwt>
<pdfrwt beam="1">  1        2 0.69456417E+00 0.11263160E+04</pdfrwt>
<pdfrwt beam="2">  1       -2 0.57091253E-01 0.11263160E+04</pdfrwt>
<totfact> 0.35975418E-01</totfact>
</mgrwt>
</event>
<event>
 4    1  0.4880711E-008  0.5583452E+03  0.7818608E-02  0.9995806E-01
          2   -1    0    0  501    0  0.00000000000E+00  0.00000000000E+00  0.99676254692E+03  0.99676254692E+03  0.25500000000E-02 0. -1.
         -2   -1    0    0    0  501 -0.00000000000E+00 -0.00000000000E+00 -0.73861863316E+03  0.73861863316E+03  0.25500000000E-02 0.  1.
    8880022    1    1    2    0    0 -0.46773136372E+03 -0.26378984042E+03 -0.52977798219E+03  0.76968439762E+03  0.15294330000E+03 0.  0.
    8880022    1    1    2    0    0  0.46773136372E+03  0.26378984042E+03  0.78792189596E+03  0.96569678246E+03  0.15294330000E+03 0.  0.
<mgrwt>
<rscale>  0 0.55834520E+03</rscale>
<asrwt>0</asrwt>
<pdfrwt beam="1">  1        2 0.15334808E+00 0.55834520E+03</pdfrwt>
<pdfrwt beam="2">  1       -2 0.11363364E+00 0.55834520E+03</pdfrwt>
<totfact> 0.16007792E+01</totfact>
</mgrwt>
</event>
<event>
 4    1  0.4880711E-008  0.1593314E+03  0.7818608E-02  0.1189454E+00
          2   -1    0    0  501    0  0.00000000000E+00  0.00000000000E+00  0.10052332554E+03  0.10052332557E+03  0.25500000000E-02 0. -1.
         -2   -1    0    0    0  501 -0.00000000000E+00 -0.00000000000E+00 -0.12146705648E+04  0.12146705648E+04  0.25500000000E-02 0.  1.
    8880022    1    1    2    0    0 -0.12638633154E+02 -0.42838256501E+02 -0.11423308228E+04  0.11533890120E+04  0.15294330000E+03 0.  0.
    8880022    1    1    2    0    0  0.12638633154E+02  0.42838256501E+02  0.28183583543E+02  0.16180487837E+03  0.15294330000E+03 0. -1.
<mgrwt>
<rscale>  0 0.15933143E+03</rscale>
<asrwt>0</asrwt>
<pdfrwt beam="1">  1        2 0.15465128E-01 0.15933143E+03</pdfrwt>
<pdfrwt beam="2">  1       -2 0.18687238E+00 0.15933143E+03</pdfrwt>
<totfact> 0.66903352E+01</totfact>
</mgrwt>
</event>
<event>
 4    1  0.4880711E-008  0.3531355E+03  0.7818608E-02  0.1061335E+00
          2   -1    0    0  501    0  0.00000000000E+00  0.00000000000E+00  0.28644988778E+04  0.28644988778E+04  0.25500000000E-02 0. -1.
         -2   -1    0    0    0  501 -0.00000000000E+00 -0.00000000000E+00 -0.52772590430E+02  0.52772590492E+02  0.25500000000E-02 0.  1.
    8880022    1    1    2    0    0  0.22788873194E+03 -0.22221559372E+03  0.20161476518E+04  0.20468405046E+04  0.15294330000E+03 0.  0.
    8880022    1    1    2    0    0 -0.22788873194E+03  0.22221559372E+03  0.79557863560E+03  0.87043096376E+03  0.15294330000E+03 0.  0.
<mgrwt>
<rscale>  0 0.35313552E+03</rscale>
<asrwt>0</asrwt>
<pdfrwt beam="1">  1        2 0.44069207E+00 0.35313552E+03</pdfrwt>
<pdfrwt beam="2">  1       -2 0.81188614E-02 0.35313552E+03</pdfrwt>
<totfact> 0.22653885E+02</totfact>
</mgrwt>
</event>
<event>
 4    1  0.4880711E-008  0.6900792E+03  0.7818608E-02  0.9734350E-01
         -2   -1    0    0    0  501 -0.00000000000E+00  0.00000000000E+00  0.57582925768E+03  0.57582925769E+03  0.25500000000E-02 0.  1.
          2   -1    0    0  501    0  0.00000000000E+00 -0.00000000000E+00 -0.89493310432E+03  0.89493310432E+03  0.25500000000E-02 0. -1.
    8880022    1    1    2    0    0 -0.29104893279E+03  0.60671918381E+03 -0.36216442911E+03  0.77934098827E+03  0.15294330000E+03 0.  0.
    8880022    1    1    2    0    0  0.29104893279E+03 -0.60671918381E+03  0.43060582467E+02  0.69142137373E+03  0.15294330000E+03 0.  0.
<mgrwt>
<rscale>  0 0.69007920E+03</rscale>
<asrwt>0</asrwt>
<pdfrwt beam="1">  1        2 0.13768202E+00 0.69007920E+03</pdfrwt>
<pdfrwt beam="2">  1       -2 0.88589117E-01 0.69007920E+03</pdfrwt>
<totfact> 0.33063646E+01</totfact>
</mgrwt>
</event>
<event>
 4    1  0.4880711E-008  0.5751442E+03  0.7818608E-02  0.9958359E-01
         -2   -1    0    0    0  501 -0.00000000000E+00  0.00000000000E+00  0.26253476736E+03  0.26253476737E+03  0.25500000000E-02 0.  1.
          2   -1    0    0  501    0  0.00000000000E+00 -0.00000000000E+00 -0.24525741025E+04  0.24525741025E+04  0.25500000000E-02 0. -1.
    8880022    1    1    2    0    0  0.44135771570E+03  0.33556307206E+03 -0.14836645378E+03  0.59397261399E+03  0.15294330000E+03 0.  0.
    8880022    1    1    2    0    0 -0.44135771570E+03 -0.33556307206E+03 -0.20416728814E+04  0.21211362559E+04  0.15294330000E+03 0. -1.
<mgrwt>
<rscale>  0 0.57514421E+03</rscale>
<asrwt>0</asrwt>
<pdfrwt beam="1">  1        2 0.37731908E+00 0.57514421E+03</pdfrwt>
<pdfrwt beam="2">  1       -2 0.40389966E-01 0.57514421E+03</pdfrwt>
<totfact> 0.23143385E+01</totfact>
</mgrwt>
</event>
<event>
 4    1  0.4880711E-008  0.4853778E+03  0.7818608E-02  0.1017668E+00
          2   -1    0    0  501    0  0.00000000000E+00  0.00000000000E+00  0.32905073901E+04  0.32905073901E+04  0.25500000000E-02 0. -1.
         -2   -1    0    0    0  501 -0.00000000000E+00 -0.00000000000E+00 -0.11281594238E+03  0.11281594241E+03  0.25500000000E-02 0.  1.
    8880022    1    1    2    0    0 -0.23111536376E+03  0.39847920961E+03  0.56027419427E+03  0.74128187462E+03  0.15294330000E+03 0.  0.
    8880022    1    1    2    0    0  0.23111536376E+03 -0.39847920961E+03  0.26174172534E+04  0.26620414579E+04  0.15294330000E+03 0.  0.
<mgrwt>
<rscale>  0 0.48537784E+03</rscale>
<asrwt>0</asrwt>
<pdfrwt beam="1">  1        2 0.50623188E+00 0.48537784E+03</pdfrwt>
<pdfrwt beam="2">  1       -2 0.17356300E-01 0.48537784E+03</pdfrwt>
<totfact> 0.34721760E+01</totfact>
</mgrwt>
</event>
<event>
 4    1  0.4880711E-008  0.9455620E+03  0.7818608E-02  0.9370353E-01
         -2   -1    0    0    0  501 -0.00000000000E+00  0.00000000000E+00  0.14098276670E+04  0.14098276670E+04  0.25500000000E-02 0.  1.
          2   -1    0    0  501    0  0.00000000000E+00 -0.00000000000E+00 -0.11308185738E+04  0.11308185738E+04  0.25500000000E-02 0. -1.
    8880022    1    1    2    0    0  0.34423910606E+02  0.93247567596E+03 -0.70234991655E+03  0.11778722130E+04  0.15294330000E+03 0.  0.
    8880022    1    1    2    0    0 -0.34423910606E+02 -0.93247567596E+03  0.98135900969E+03  0.13627740278E+04  0.15294330000E+03 0.  0.
<mgrwt>
<rscale>  0 0.94556203E+03</rscale>
<asrwt>0</asrwt>
<pdfrwt beam="1">  1        2 0.17397209E+00 0.94556203E+03</pdfrwt>
<pdfrwt beam="2">  1       -2 0.21689657E+00 0.94556203E+03</pdfrwt>
<totfact> 0.21574677E+00</totfact>
</mgrwt>
</event>
<event>
 4    1  0.4880711E-008  0.3929305E+03  0.7818608E-02  0.1046255E+00
         -2   -1    0    0    0  501 -0.00000000000E+00  0.00000000000E+00  0.23825472516E+03  0.23825472517E+03  0.25500000000E-02 0.  1.
          2   -1    0    0  501    0  0.00000000000E+00 -0.00000000000E+00 -0.15813720526E+04  0.15813720526E+04  0.25500000000E-02 0. -1.
    8880022    1    1    2    0    0  0.34606083108E+03  0.10604055754E+03  0.27409709187E+02  0.39388531811E+03  0.15294330000E+03 0.  0.
    8880022    1    1    2    0    0 -0.34606083108E+03 -0.10604055754E+03 -0.13705270366E+04  0.14257414596E+04  0.15294330000E+03 0.  0.
<mgrwt>
<rscale>  0 0.39293047E+03</rscale>
<asrwt>0</asrwt>
<pdfrwt beam="1">  1        2 0.24328800E+00 0.39293047E+03</pdfrwt>
<pdfrwt beam="2">  1       -2 0.36654574E-01 0.39293047E+03</pdfrwt>
<totfact> 0.85653987E+01</totfact>
</mgrwt>
</event>
<event>
 4    1  0.4880711E-008  0.1937236E+03  0.7818608E-02  0.1155145E+00
          2   -1    0    0  501    0  0.00000000000E+00  0.00000000000E+00  0.19281902228E+04  0.19281902228E+04  0.25500000000E-02 0. -1.
         -2   -1    0    0    0  501 -0.00000000000E+00 -0.00000000000E+00 -0.73530755645E+02  0.73530755689E+02  0.25500000000E-02 0.  1.
    8880022    1    1    2    0    0 -0.47227564991E+02 -0.10911807952E+03  0.69092816549E+02  0.20567612522E+03  0.15294330000E+03 0.  0.
    8880022    1    1    2    0    0  0.47227564991E+02  0.10911807952E+03  0.17855666506E+04  0.17960448532E+04  0.15294330000E+03 0. -1.
<mgrwt>
<rscale>  0 0.19372365E+03</rscale>
<asrwt>0</asrwt>
<pdfrwt beam="1">  1        2 0.29664464E+00 0.19372365E+03</pdfrwt>
<pdfrwt beam="2">  1       -2 0.11312424E-01 0.19372365E+03</pdfrwt>
<totfact> 0.44926846E+02</totfact>
</mgrwt>
</event>
<event>
 4    1  0.4880711E-008  0.2484612E+03  0.7818608E-02  0.1114281E+00
         -2   -1    0    0    0  501 -0.00000000000E+00  0.00000000000E+00  0.29632027274E+03  0.29632027275E+03  0.25500000000E-02 0.  1.
          2   -1    0    0  501    0  0.00000000000E+00 -0.00000000000E+00 -0.51540008110E+03  0.51540008111E+03  0.25500000000E-02 0. -1.
    8880022    1    1    2    0    0  0.16663372621E+03  0.10283245995E+03  0.20373211381E+03  0.32130941589E+03  0.15294330000E+03 0.  0.
    8880022    1    1    2    0    0 -0.16663372621E+03 -0.10283245995E+03 -0.42281192217E+03  0.49041093797E+03  0.15294330000E+03 0. -1.
<mgrwt>
<rscale>  0 0.24846120E+03</rscale>
<asrwt>0</asrwt>
<pdfrwt beam="1">  1        2 0.79292320E-01 0.24846120E+03</pdfrwt>
<pdfrwt beam="2">  1       -2 0.45587734E-01 0.24846120E+03</pdfrwt>
<totfact> 0.28037632E+02</totfact>
</mgrwt>
</event>
<event>
 4    1  0.4880711E-008  0.6912756E+03  0.7818608E-02  0.9732270E-01
         -2   -1    0    0    0  501 -0.00000000000E+00  0.00000000000E+00  0.32124767479E+03  0.32124767480E+03  0.25500000000E-02 0.  1.
          2   -1    0    0  501    0  0.00000000000E+00 -0.00000000000E+00 -0.15525369874E+04  0.15525369874E+04  0.25500000000E-02 0. -1.
    8880022    1    1    2    0    0  0.60497960897E+03  0.29743895854E+03 -0.42391620451E+03  0.81090496533E+03  0.15294330000E+03 0.  0.
    8880022    1    1    2    0    0 -0.60497960897E+03 -0.29743895854E+03 -0.80737310808E+03  0.10628796969E+04  0.15294330000E+03 0.  0.
<mgrwt>
<rscale>  0 0.69127557E+03</rscale>
<asrwt>0</asrwt>
<pdfrwt beam="1">  1        2 0.23885184E+00 0.69127557E+03</pdfrwt>
<pdfrwt beam="2">  1       -2 0.49422720E-01 0.69127557E+03</pdfrwt>
<totfact> 0.47301128E+01</totfact>
</mgrwt>
</event>
<event>
 4    1  0.4880711E-008  0.5198100E+03  0.7818608E-02  0.1008734E+00
          2   -1    0    0  501    0  0.00000000000E+00  0.00000000000E+00  0.15666964406E+04  0.15666964406E+04  0.25500000000E-02 0. -1.
         -2   -1    0    0    0  501 -0.00000000000E+00 -0.00000000000E+00 -0.41529827723E+03  0.41529827724E+03  0.25500000000E-02 0.  1.
    8880022    1    1    2    0    0 -0.48338780591E+03  0.11466044139E+03 -0.18208471000E+03  0.55077879621E+03  0.15294330000E+03 0.  0.
    8880022    1    1    2    0    0  0.48338780591E+03 -0.11466044139E+03  0.13334828734E+04  0.14312159216E+04  0.15294330000E+03 0.  0.
<mgrwt>
<rscale>  0 0.51981000E+03</rscale>
<asrwt>0</asrwt>
<pdfrwt beam="1">  1        2 0.24103023E+00 0.51981000E+03</pdfrwt>
<pdfrwt beam="2">  1       -2 0.63892042E-01 0.51981000E+03</pdfrwt>
<totfact> 0.27924293E+01</totfact>
</mgrwt>
</event>
<event>
 4    1  0.4880711E-008  0.5692563E+03  0.7818608E-02  0.9971326E-01
         -2   -1    0    0    0  501 -0.00000000000E+00  0.00000000000E+00  0.21075935011E+03  0.21075935012E+03  0.25500000000E-02 0.  1.
          2   -1    0    0  501    0  0.00000000000E+00 -0.00000000000E+00 -0.21058831533E+04  0.21058831533E+04  0.25500000000E-02 0. -1.
    8880022    1    1    2    0    0 -0.53866163525E+03 -0.10249257673E+03 -0.34581490830E+03  0.66606357759E+03  0.15294330000E+03 0.  0.
    8880022    1    1    2    0    0  0.53866163525E+03  0.10249257673E+03 -0.15493088949E+04  0.16505789258E+04  0.15294330000E+03 0. -1.
<mgrwt>
<rscale>  0 0.56925630E+03</rscale>
<asrwt>0</asrwt>
<pdfrwt beam="1">  1        2 0.32398201E+00 0.56925630E+03</pdfrwt>
<pdfrwt beam="2">  1       -2 0.32424517E-01 0.56925630E+03</pdfrwt>
<totfact> 0.54655107E+01</totfact>
</mgrwt>
</event>
<event>
 4    1  0.4880711E-008  0.6554339E+03  0.7818608E-02  0.9796636E-01
         -2   -1    0    0    0  501 -0.00000000000E+00  0.00000000000E+00  0.14780552452E+03  0.14780552454E+03  0.25500000000E-02 0.  1.
          2   -1    0    0  501    0  0.00000000000E+00 -0.00000000000E+00 -0.42111196595E+04  0.42111196595E+04  0.25500000000E-02 0. -1.
    8880022    1    1    2    0    0  0.27958885288E+02 -0.63672614717E+03 -0.81855815997E+03  0.10486329196E+04  0.15294330000E+03 0.  0.
    8880022    1    1    2    0    0 -0.27958885288E+02  0.63672614717E+03 -0.32447559750E+04  0.33102922645E+04  0.15294330000E+03 0.  0.
<mgrwt>
<rscale>  0 0.65543386E+03</rscale>
<asrwt>0</asrwt>
<pdfrwt beam="1">  1        2 0.64786447E+00 0.65543386E+03</pdfrwt>
<pdfrwt beam="2">  1       -2 0.22739315E-01 0.65543386E+03</pdfrwt>
<totfact> 0.44120925E+00</totfact>
</mgrwt>
</event>
<event>
 4    1  0.4880711E-008  0.2363190E+03  0.7818608E-02  0.1122270E+00
          2   -1    0    0  501    0  0.00000000000E+00  0.00000000000E+00  0.78944933070E+03  0.78944933070E+03  0.25500000000E-02 0. -1.
         -2   -1    0    0    0  501 -0.00000000000E+00 -0.00000000000E+00 -0.26594929921E+03  0.26594929922E+03  0.25500000000E-02 0.  1.
    8880022    1    1    2    0    0 -0.17977491444E+03  0.11660895335E+02  0.71385150972E+03  0.75195121336E+03  0.15294330000E+03 0. -1.
    8880022    1    1    2    0    0  0.17977491444E+03 -0.11660895335E+02 -0.19035147823E+03  0.30344741656E+03  0.15294330000E+03 0.  0.
<mgrwt>
<rscale>  0 0.23631896E+03</rscale>
<asrwt>0</asrwt>
<pdfrwt beam="1">  1        2 0.12145374E+00 0.23631896E+03</pdfrwt>
<pdfrwt beam="2">  1       -2 0.40915277E-01 0.23631896E+03</pdfrwt>
<totfact> 0.20880359E+02</totfact>
</mgrwt>
</event>
<event>
 4    1  0.4880711E-008  0.4514131E+03  0.7818608E-02  0.1027301E+00
          2   -1    0    0  501    0  0.00000000000E+00  0.00000000000E+00  0.85633319318E+03  0.85633319319E+03  0.25500000000E-02 0. -1.
         -2   -1    0    0    0  501 -0.00000000000E+00 -0.00000000000E+00 -0.36741090152E+03  0.36741090153E+03  0.25500000000E-02 0.  1.
    8880022    1    1    2    0    0 -0.31447874343E+03  0.28545615777E+03  0.60765271120E+03  0.75697791812E+03  0.15294330000E+03 0.  0.
    8880022    1    1    2    0    0  0.31447874343E+03 -0.28545615777E+03 -0.11873041954E+03  0.46676617659E+03  0.15294330000E+03 0.  0.
<mgrwt>
<rscale>  0 0.45141306E+03</rscale>
<asrwt>0</asrwt>
<pdfrwt beam="1">  1        2 0.13174357E+00 0.45141306E+03</pdfrwt>
<pdfrwt beam="2">  1       -2 0.56524754E-01 0.45141306E+03</pdfrwt>
<totfact> 0.95917682E+01</totfact>
</mgrwt>
</event>
<event>
 4    1  0.4880711E-008  0.1020364E+04  0.7818608E-02  0.9286488E-01
          2   -1    0    0  501    0  0.00000000000E+00  0.00000000000E+00  0.22542558336E+04  0.22542558336E+04  0.25500000000E-02 0. -1.
         -2   -1    0    0    0  501 -0.00000000000E+00 -0.00000000000E+00 -0.51961532852E+03  0.51961532853E+03  0.25500000000E-02 0.  1.
    8880022    1    1    2    0    0 -0.16658915809E+03 -0.99498674526E+03  0.13297282223E+04  0.16761024339E+04  0.15294330000E+03 0.  0.
    8880022    1    1    2    0    0  0.16658915809E+03  0.99498674526E+03  0.40491228278E+03  0.10977687282E+04  0.15294330000E+03 0.  0.
<mgrwt>
<rscale>  0 0.10203638E+04</rscale>
<asrwt>0</asrwt>
<pdfrwt beam="1">  1        2 0.34680858E+00 0.10203638E+04</pdfrwt>
<pdfrwt beam="2">  1       -2 0.79940821E-01 0.10203638E+04</pdfrwt>
<totfact> 0.66859795E+00</totfact>
</mgrwt>
</event>
<event>
 4    1  0.4880711E-008  0.4382302E+03  0.7818608E-02  0.1031291E+00
         -2   -1    0    0    0  501 -0.00000000000E+00  0.00000000000E+00  0.59415365140E+03  0.59415365141E+03  0.25500000000E-02 0.  1.
          2   -1    0    0  501    0  0.00000000000E+00 -0.00000000000E+00 -0.44236219128E+04  0.44236219128E+04  0.25500000000E-02 0. -1.
    8880022    1    1    2    0    0 -0.49162602527E+02  0.40772180390E+03 -0.43302236207E+04  0.43523421613E+04  0.15294330000E+03 0.  0.
    8880022    1    1    2    0    0  0.49162602527E+02 -0.40772180390E+03  0.50075535928E+03  0.66543340292E+03  0.15294330000E+03 0.  0.
<mgrwt>
<rscale>  0 0.43823017E+03</rscale>
<asrwt>0</asrwt>
<pdfrwt beam="1">  1        2 0.68055720E+00 0.43823017E+03</pdfrwt>
<pdfrwt beam="2">  1       -2 0.91408257E-01 0.43823017E+03</pdfrwt>
<totfact> 0.19149604E-01</totfact>
</mgrwt>
</event>
<event>
 4    1  0.4880711E-008  0.5510396E+03  0.7818608E-02  0.1001254E+00
         -2   -1    0    0    0  501 -0.00000000000E+00  0.00000000000E+00  0.13569334602E+04  0.13569334602E+04  0.25500000000E-02 0.  1.
          2   -1    0    0  501    0  0.00000000000E+00 -0.00000000000E+00 -0.25141325019E+04  0.25141325019E+04  0.25500000000E-02 0. -1.
    8880022    1    1    2    0    0  0.51284467512E+03 -0.13131369748E+03  0.12687894885E+04  0.13832828225E+04  0.15294330000E+03 0.  1.
    8880022    1    1    2    0    0 -0.51284467512E+03  0.13131369748E+03 -0.24259885302E+04  0.24877831396E+04  0.15294330000E+03 0.  0.
<mgrwt>
<rscale>  0 0.55103956E+03</rscale>
<asrwt>0</asrwt>
<pdfrwt beam="1">  1        2 0.38678962E+00 0.55103956E+03</pdfrwt>
<pdfrwt beam="2">  1       -2 0.20875899E+00 0.55103956E+03</pdfrwt>
<totfact> 0.44669732E-01</totfact>
</mgrwt>
</event>
<event>
 4    1  0.4880711E-008  0.5692369E+03  0.7818608E-02  0.9971369E-01
         -2   -1    0    0    0  501 -0.00000000000E+00  0.00000000000E+00  0.38140597497E+03  0.38140597498E+03  0.25500000000E-02 0.  1.
          2   -1    0    0  501    0  0.00000000000E+00 -0.00000000000E+00 -0.14583333043E+04  0.14583333043E+04  0.25500000000E-02 0. -1.
    8880022    1    1    2    0    0 -0.53544432944E+03 -0.11806103220E+03  0.55859256625E+02  0.57197110663E+03  0.15294330000E+03 0.  0.
    8880022    1    1    2    0    0  0.53544432944E+03  0.11806103220E+03 -0.11327865859E+04  0.12677681726E+04  0.15294330000E+03 0.  0.
<mgrwt>
<rscale>  0 0.56923694E+03</rscale>
<asrwt>0</asrwt>
<pdfrwt beam="1">  1        2 0.22435897E+00 0.56923694E+03</pdfrwt>
<pdfrwt beam="2">  1       -2 0.58677843E-01 0.56923694E+03</pdfrwt>
<totfact> 0.38039256E+01</totfact>
</mgrwt>
</event>
<event>
 4    1  0.4880711E-008  0.2348706E+03  0.7818608E-02  0.1123258E+00
          2   -1    0    0  501    0  0.00000000000E+00  0.00000000000E+00  0.46659441266E+03  0.46659441266E+03  0.25500000000E-02 0. -1.
         -2   -1    0    0    0  501 -0.00000000000E+00 -0.00000000000E+00 -0.23493859404E+03  0.23493859405E+03  0.25500000000E-02 0.  1.
    8880022    1    1    2    0    0 -0.14650537012E+03  0.10153192952E+03  0.36305572210E+03  0.43240451726E+03  0.15294330000E+03 0. -1.
    8880022    1    1    2    0    0  0.14650537012E+03 -0.10153192952E+03 -0.13139990348E+03  0.26912848945E+03  0.15294330000E+03 0.  0.
<mgrwt>
<rscale>  0 0.23487062E+03</rscale>
<asrwt>0</asrwt>
<pdfrwt beam="1">  1        2 0.71783756E-01 0.23487062E+03</pdfrwt>
<pdfrwt beam="2">  1       -2 0.36144399E-01 0.23487062E+03</pdfrwt>
<totfact> 0.48958377E+02</totfact>
</mgrwt>
</event>
<event>
 4    1  0.4880711E-008  0.3013838E+03  0.7818608E-02  0.1084551E+00
         -2   -1    0    0    0  501 -0.00000000000E+00  0.00000000000E+00  0.12275649399E+03  0.12275649402E+03  0.25500000000E-02 0.  1.
          2   -1    0    0  501    0  0.00000000000E+00 -0.00000000000E+00 -0.40280575187E+04  0.40280575187E+04  0.25500000000E-02 0. -1.
    8880022    1    1    2    0    0 -0.18062673103E+03  0.18658655015E+03 -0.77529777065E+02  0.31119620179E+03  0.15294330000E+03 0.  0.
    8880022    1    1    2    0    0  0.18062673103E+03 -0.18658655015E+03 -0.38277712477E+04  0.38396178110E+04  0.15294330000E+03 0.  0.
<mgrwt>
<rscale>  0 0.30138382E+03</rscale>
<asrwt>0</asrwt>
<pdfrwt beam="1">  1        2 0.61970106E+00 0.30138382E+03</pdfrwt>
<pdfrwt beam="2">  1       -2 0.18885618E-01 0.30138382E+03</pdfrwt>
<totfact> 0.97736171E+00</totfact>
</mgrwt>
</event>
<event>
 4    1  0.4880711E-008  0.8332388E+03  0.7818608E-02  0.9513114E-01
         -2   -1    0    0    0  501 -0.00000000000E+00  0.00000000000E+00  0.66301470860E+03  0.66301470860E+03  0.25500000000E-02 0.  1.
          2   -1    0    0  501    0  0.00000000000E+00 -0.00000000000E+00 -0.11022891190E+04  0.11022891190E+04  0.25500000000E-02 0. -1.
    8880022    1    1    2    0    0  0.29156879950E+03  0.76542989420E+03 -0.22256023895E+02  0.83353600486E+03  0.15294330000E+03 0.  0.
    8880022    1    1    2    0    0 -0.29156879950E+03 -0.76542989420E+03 -0.41701838648E+03  0.93176782272E+03  0.15294330000E+03 0.  0.
<mgrwt>
<rscale>  0 0.83323883E+03</rscale>
<asrwt>0</asrwt>
<pdfrwt beam="1">  1        2 0.16958294E+00 0.83323883E+03</pdfrwt>
<pdfrwt beam="2">  1       -2 0.10200226E+00 0.83323883E+03</pdfrwt>
<totfact> 0.17263881E+01</totfact>
</mgrwt>
</event>
<event>
 4    1  0.4880711E-008  0.1688760E+04  0.7818608E-02  0.8767801E-01
          2   -1    0    0  501    0  0.00000000000E+00  0.00000000000E+00  0.27045349574E+04  0.27045349574E+04  0.25500000000E-02 0. -1.
         -2   -1    0    0    0  501 -0.00000000000E+00 -0.00000000000E+00 -0.12308768076E+04  0.12308768076E+04  0.25500000000E-02 0.  1.
    8880022    1    1    2    0    0 -0.31613291601E+03  0.16518405762E+04  0.14817053921E+04  0.22466329989E+04  0.15294330000E+03 0.  0.
    8880022    1    1    2    0    0  0.31613291601E+03 -0.16518405762E+04 -0.80472423222E+01  0.16887787661E+04  0.15294330000E+03 0.  0.
<mgrwt>
<rscale>  0 0.16887596E+04</rscale>
<asrwt>0</asrwt>
<pdfrwt beam="1">  1        2 0.41608229E+00 0.16887596E+04</pdfrwt>
<pdfrwt beam="2">  1       -2 0.18936567E+00 0.16887596E+04</pdfrwt>
<totfact> 0.38107976E-01</totfact>
</mgrwt>
</event>
<event>
 4    1  0.4880711E-008  0.8784727E+03  0.7818608E-02  0.9452899E-01
         -2   -1    0    0    0  501 -0.00000000000E+00  0.00000000000E+00  0.15129566841E+04  0.15129566841E+04  0.25500000000E-02 0.  1.
          2   -1    0    0  501    0  0.00000000000E+00 -0.00000000000E+00 -0.89254920311E+03  0.89254920311E+03  0.25500000000E-02 0. -1.
    8880022    1    1    2    0    0  0.11148603753E+03 -0.85784235211E+03 -0.47713945758E+03  0.99968812768E+03  0.15294330000E+03 0.  0.
    8880022    1    1    2    0    0 -0.11148603753E+03  0.85784235211E+03  0.10975469386E+04  0.14058177596E+04  0.15294330000E+03 0.  0.
<mgrwt>
<rscale>  0 0.87847270E+03</rscale>
<asrwt>0</asrwt>
<pdfrwt beam="1">  1        2 0.13731526E+00 0.87847270E+03</pdfrwt>
<pdfrwt beam="2">  1       -2 0.23276256E+00 0.87847270E+03</pdfrwt>
<totfact> 0.24621416E+00</totfact>
</mgrwt>
</event>
<event>
 4    1  0.4880711E-008  0.2034052E+03  0.7818608E-02  0.1146897E+00
         -2   -1    0    0    0  501 -0.00000000000E+00  0.00000000000E+00  0.20765602146E+03  0.20765602147E+03  0.25500000000E-02 0.  1.
          2   -1    0    0  501    0  0.00000000000E+00 -0.00000000000E+00 -0.68828221973E+03  0.68828221973E+03  0.25500000000E-02 0. -1.
    8880022    1    1    2    0    0  0.13407532500E+03  0.24117110365E+01 -0.61791779705E+03  0.65053521507E+03  0.15294330000E+03 0.  0.
    8880022    1    1    2    0    0 -0.13407532500E+03 -0.24117110365E+01  0.13729159878E+03  0.24540302613E+03  0.15294330000E+03 0.  0.
<mgrwt>
<rscale>  0 0.20340517E+03</rscale>
<asrwt>0</asrwt>
<pdfrwt beam="1">  1        2 0.10588957E+00 0.20340517E+03</pdfrwt>
<pdfrwt beam="2">  1       -2 0.31947081E-01 0.20340517E+03</pdfrwt>
<totfact> 0.39468507E+02</totfact>
</mgrwt>
</event>
<event>
 4    1  0.5346344E-008  0.8018535E+03  0.7818608E-02  0.9557338E-01
          2   -1    0    0  501    0  0.00000000000E+00  0.00000000000E+00  0.14810576395E+04  0.14810576395E+04  0.25500000000E-02 0. -1.
         -2   -1    0    0    0  501 -0.00000000000E+00 -0.00000000000E+00 -0.16710725403E+04  0.16710725403E+04  0.25500000000E-02 0.  1.
    8880022    1    1    2    0    0  0.44455980327E+03  0.64957218625E+03  0.12609671423E+04  0.14943250084E+04  0.15294330000E+03 0.  0.
    8880022    1    1    2    0    0 -0.44455980327E+03 -0.64957218625E+03 -0.14509820431E+04  0.16578051714E+04  0.15294330000E+03 0.  0.
<mgrwt>
<rscale>  0 0.80185354E+03</rscale>
<asrwt>0</asrwt>
<pdfrwt beam="1">  1        2 0.22785502E+00 0.80185354E+03</pdfrwt>
<pdfrwt beam="2">  1       -2 0.25708808E+00 0.80185354E+03</pdfrwt>
<totfact> 0.78133437E-01</totfact>
</mgrwt>
</event>
<event>
 4    1  0.4880711E-008  0.1741714E+03  0.7818608E-02  0.1173566E+00
          2   -1    0    0  501    0  0.00000000000E+00  0.00000000000E+00  0.74045522387E+03  0.74045522387E+03  0.25500000000E-02 0. -1.
         -2   -1    0    0    0  501 -0.00000000000E+00 -0.00000000000E+00 -0.36249460571E+03  0.36249460572E+03  0.25500000000E-02 0.  1.
    8880022    1    1    2    0    0 -0.45349427253E+02 -0.69910244646E+02 -0.33039680752E+03  0.37349393073E+03  0.15294330000E+03 0.  0.
    8880022    1    1    2    0    0  0.45349427253E+02  0.69910244646E+02  0.70835742567E+03  0.72945589886E+03  0.15294330000E+03 0. -1.
<mgrwt>
<rscale>  0 0.17417137E+03</rscale>
<asrwt>0</asrwt>
<pdfrwt beam="1">  1        2 0.11391619E+00 0.17417137E+03</pdfrwt>
<pdfrwt beam="2">  1       -2 0.55768401E-01 0.17417137E+03</pdfrwt>
<totfact> 0.12403007E+02</totfact>
</mgrwt>
</event>
<event>
 4    1  0.4880711E-008  0.9189021E+03  0.7818608E-02  0.9402257E-01
         -2   -1    0    0    0  501 -0.00000000000E+00  0.00000000000E+00  0.16259413657E+04  0.16259413657E+04  0.25500000000E-02 0.  1.
          2   -1    0    0  501    0  0.00000000000E+00 -0.00000000000E+00 -0.15541778712E+04  0.15541778712E+04  0.25500000000E-02 0. -1.
    8880022    1    1    2    0    0 -0.29781594844E+03 -0.85574241974E+03 -0.12616074818E+04  0.15607800996E+04  0.15294330000E+03 0.  0.
    8880022    1    1    2    0    0  0.29781594844E+03  0.85574241974E+03  0.13333709763E+04  0.16193391373E+04  0.15294330000E+03 0.  0.
<mgrwt>
<rscale>  0 0.91890211E+03</rscale>
<asrwt>0</asrwt>
<pdfrwt beam="1">  1        2 0.23910429E+00 0.91890211E+03</pdfrwt>
<pdfrwt beam="2">  1       -2 0.25014483E+00 0.91890211E+03</pdfrwt>
<totfact> 0.76754690E-01</totfact>
</mgrwt>
</event>
<event>
 4    1  0.4880711E-008  0.3107518E+03  0.7818608E-02  0.1079986E+00
          2   -1    0    0  501    0  0.00000000000E+00  0.00000000000E+00  0.94755078731E+03  0.94755078731E+03  0.25500000000E-02 0. -1.
         -2   -1    0    0    0  501 -0.00000000000E+00 -0.00000000000E+00 -0.59094258700E+03  0.59094258701E+03  0.25500000000E-02 0.  1.
    8880022    1    1    2    0    0  0.37139970876E+02 -0.26794710239E+03  0.87808334282E+03  0.93144889128E+03  0.15294330000E+03 0. -1.
    8880022    1    1    2    0    0 -0.37139970876E+02  0.26794710239E+03 -0.52147514251E+03  0.60704448304E+03  0.15294330000E+03 0.  0.
<mgrwt>
<rscale>  0 0.31075180E+03</rscale>
<asrwt>0</asrwt>
<pdfrwt beam="1">  1        2 0.14577704E+00 0.31075180E+03</pdfrwt>
<pdfrwt beam="2">  1       -2 0.90914246E-01 0.31075180E+03</pdfrwt>
<totfact> 0.30440272E+01</totfact>
</mgrwt>
</event>
<event>
 4    1  0.4880711E-008  0.1788463E+04  0.7818608E-02  0.8712459E-01
          2   -1    0    0  501    0  0.00000000000E+00  0.00000000000E+00  0.18153944687E+04  0.18153944687E+04  0.25500000000E-02 0. -1.
         -2   -1    0    0    0  501 -0.00000000000E+00 -0.00000000000E+00 -0.17876019754E+04  0.17876019754E+04  0.25500000000E-02 0.  1.
    8880022    1    1    2    0    0 -0.36286746261E+01  0.17819080257E+04 -0.20198445899E+03  0.17998329795E+04  0.15294330000E+03 0.  0.
    8880022    1    1    2    0    0  0.36286746261E+01 -0.17819080257E+04  0.22977695230E+03  0.18031634646E+04  0.15294330000E+03 0.  0.
<mgrwt>
<rscale>  0 0.17884633E+04</rscale>
<asrwt>0</asrwt>
<pdfrwt beam="1">  1        2 0.27929146E+00 0.17884633E+04</pdfrwt>
<pdfrwt beam="2">  1       -2 0.27501569E+00 0.17884633E+04</pdfrwt>
<totfact> 0.34831059E-01</totfact>
</mgrwt>
</event>
<event>
 4    1  0.4880711E-008  0.3945235E+03  0.7818608E-02  0.1045693E+00
         -2   -1    0    0    0  501 -0.00000000000E+00  0.00000000000E+00  0.12217708927E+03  0.12217708929E+03  0.25500000000E-02 0.  1.
          2   -1    0    0  501    0  0.00000000000E+00 -0.00000000000E+00 -0.13980697304E+04  0.13980697304E+04  0.25500000000E-02 0. -1.
    8880022    1    1    2    0    0  0.40560386976E+02 -0.36140280932E+03 -0.86442206296E+03  0.95019697512E+03  0.15294330000E+03 0. -1.
    8880022    1    1    2    0    0 -0.40560386976E+02  0.36140280932E+03 -0.41147057816E+03  0.57004984456E+03  0.15294330000E+03 0.  1.
<mgrwt>
<rscale>  0 0.39452350E+03</rscale>
<asrwt>0</asrwt>
<pdfrwt beam="1">  1        2 0.21508764E+00 0.39452350E+03</pdfrwt>
<pdfrwt beam="2">  1       -2 0.18796476E-01 0.39452350E+03</pdfrwt>
<totfact> 0.35891806E+02</totfact>
</mgrwt>
</event>
<event>
 4    1  0.4880711E-008  0.5417051E+03  0.7818608E-02  0.1003432E+00
          2   -1    0    0  501    0  0.00000000000E+00  0.00000000000E+00  0.78656348077E+03  0.78656348077E+03  0.25500000000E-02 0. -1.
         -2   -1    0    0    0  501 -0.00000000000E+00 -0.00000000000E+00 -0.77273872031E+03  0.77273872032E+03  0.25500000000E-02 0.  1.
    8880022    1    1    2    0    0 -0.36785051280E+03  0.36706772069E+03  0.56761587226E+03  0.78462229308E+03  0.15294330000E+03 0.  0.
    8880022    1    1    2    0    0  0.36785051280E+03 -0.36706772069E+03 -0.55379111181E+03  0.77467990801E+03  0.15294330000E+03 0.  0.
<mgrwt>
<rscale>  0 0.54170505E+03</rscale>
<asrwt>0</asrwt>
<pdfrwt beam="1">  1        2 0.12100977E+00 0.54170505E+03</pdfrwt>
<pdfrwt beam="2">  1       -2 0.11888288E+00 0.54170505E+03</pdfrwt>
<totfact> 0.19892884E+01</totfact>
</mgrwt>
</event>
<event>
 4    1  0.4880711E-008  0.4206739E+03  0.7818608E-02  0.1036847E+00
          2   -1    0    0  501    0  0.00000000000E+00  0.00000000000E+00  0.11524727625E+04  0.11524727625E+04  0.25500000000E-02 0. -1.
         -2   -1    0    0    0  501 -0.00000000000E+00 -0.00000000000E+00 -0.19108734681E+03  0.19108734683E+03  0.25500000000E-02 0.  1.
    8880022    1    1    2    0    0 -0.16715699265E+03  0.35444801424E+03  0.77842179432E+03  0.88482031955E+03  0.15294330000E+03 0. -1.
    8880022    1    1    2    0    0  0.16715699265E+03 -0.35444801424E+03  0.18296362141E+03  0.45873978983E+03  0.15294330000E+03 0.  1.
<mgrwt>
<rscale>  0 0.42067387E+03</rscale>
<asrwt>0</asrwt>
<pdfrwt beam="1">  1        2 0.17730350E+00 0.42067387E+03</pdfrwt>
<pdfrwt beam="2">  1       -2 0.29398054E-01 0.42067387E+03</pdfrwt>
<totfact> 0.22354650E+02</totfact>
</mgrwt>
</event>
<event>
 4    1  0.4880711E-008  0.3062504E+03  0.7818608E-02  0.1082157E+00
         -2   -1    0    0    0  501 -0.00000000000E+00  0.00000000000E+00  0.44465005372E+03  0.44465005372E+03  0.25500000000E-02 0.  1.
          2   -1    0    0  501    0  0.00000000000E+00 -0.00000000000E+00 -0.42393773083E+03  0.42393773083E+03  0.25500000000E-02 0. -1.
    8880022    1    1    2    0    0  0.13810931212E+03  0.22654688779E+03 -0.29748875986E+03  0.42695302988E+03  0.15294330000E+03 0.  0.
    8880022    1    1    2    0    0 -0.13810931212E+03 -0.22654688779E+03  0.31820108275E+03  0.44163475468E+03  0.15294330000E+03 0.  0.
<mgrwt>
<rscale>  0 0.30625043E+03</rscale>
<asrwt>0</asrwt>
<pdfrwt beam="1">  1        2 0.65221189E-01 0.30625043E+03</pdfrwt>
<pdfrwt beam="2">  1       -2 0.68407701E-01 0.30625043E+03</pdfrwt>
<totfact> 0.15096880E+02</totfact>
</mgrwt>
</event>
<event>
 4    1  0.4880711E-008  0.2242590E+03  0.7818608E-02  0.1130747E+00
         -2   -1    0    0    0  501 -0.00000000000E+00  0.00000000000E+00  0.14354319833E+03  0.14354319835E+03  0.25500000000E-02 0.  1.
          2   -1    0    0  501    0  0.00000000000E+00 -0.00000000000E+00 -0.72836461248E+03  0.72836461248E+03  0.25500000000E-02 0. -1.
    8880022    1    1    2    0    0 -0.15611757712E+03 -0.50276497042E+02  0.21649978609E+02  0.22530157263E+03  0.15294330000E+03 0.  1.
    8880022    1    1    2    0    0  0.15611757712E+03  0.50276497042E+02 -0.60647139275E+03  0.64660623820E+03  0.15294330000E+03 0.  0.
<mgrwt>
<rscale>  0 0.22425895E+03</rscale>
<asrwt>0</asrwt>
<pdfrwt beam="1">  1        2 0.11205609E+00 0.22425895E+03</pdfrwt>
<pdfrwt beam="2">  1       -2 0.22083569E-01 0.22425895E+03</pdfrwt>
<totfact> 0.71037460E+02</totfact>
</mgrwt>
</event>
<event>
 4    1  0.4880711E-008  0.1671149E+03  0.7818608E-02  0.1180890E+00
          2   -1    0    0  501    0  0.00000000000E+00  0.00000000000E+00  0.23929181362E+03  0.23929181363E+03  0.25500000000E-02 0. -1.
         -2   -1    0    0    0  501 -0.00000000000E+00 -0.00000000000E+00 -0.13576937406E+03  0.13576937408E+03  0.25500000000E-02 0.  1.
    8880022    1    1    2    0    0  0.62554234043E+02 -0.24953993834E+02 -0.18504371290E+02  0.16813625063E+03  0.15294330000E+03 0.  1.
    8880022    1    1    2    0    0 -0.62554234043E+02  0.24953993834E+02  0.12202681085E+03  0.20692493708E+03  0.15294330000E+03 0. -1.
<mgrwt>
<rscale>  0 0.16711489E+03</rscale>
<asrwt>0</asrwt>
<pdfrwt beam="1">  1        2 0.36814125E-01 0.16711489E+03</pdfrwt>
<pdfrwt beam="2">  1       -2 0.20887596E-01 0.16711489E+03</pdfrwt>
<totfact> 0.26689075E+03</totfact>
</mgrwt>
</event>
<event>
 4    1  0.4880711E-008  0.4826166E+03  0.7818608E-02  0.1018419E+00
          2   -1    0    0  501    0  0.00000000000E+00  0.00000000000E+00  0.10258092870E+04  0.10258092870E+04  0.25500000000E-02 0. -1.
         -2   -1    0    0    0  501 -0.00000000000E+00 -0.00000000000E+00 -0.54423029795E+03  0.54423029796E+03  0.25500000000E-02 0.  1.
    8880022    1    1    2    0    0 -0.34537556443E+03  0.30040442264E+03 -0.35849978519E+03  0.60119950652E+03  0.15294330000E+03 0.  0.
    8880022    1    1    2    0    0  0.34537556443E+03 -0.30040442264E+03  0.84007877420E+03  0.96884007841E+03  0.15294330000E+03 0.  0.
<mgrwt>
<rscale>  0 0.48261657E+03</rscale>
<asrwt>0</asrwt>
<pdfrwt beam="1">  1        2 0.15781681E+00 0.48261657E+03</pdfrwt>
<pdfrwt beam="2">  1       -2 0.83727739E-01 0.48261657E+03</pdfrwt>
<totfact> 0.31738758E+01</totfact>
</mgrwt>
</event>
<event>
 4    1  0.4880711E-008  0.4472172E+03  0.7818608E-02  0.1028555E+00
          2   -1    0    0  501    0  0.00000000000E+00  0.00000000000E+00  0.84146013169E+03  0.84146013170E+03  0.25500000000E-02 0. -1.
         -2   -1    0    0    0  501 -0.00000000000E+00 -0.00000000000E+00 -0.87665821502E+03  0.87665821503E+03  0.25500000000E-02 0.  1.
    8880022    1    1    2    0    0  0.25584954561E+03 -0.33339547063E+03 -0.75101263936E+03  0.87408418778E+03  0.15294330000E+03 0.  1.
    8880022    1    1    2    0    0 -0.25584954561E+03  0.33339547063E+03  0.71581455603E+03  0.84403415895E+03  0.15294330000E+03 0.  0.
<mgrwt>
<rscale>  0 0.44721715E+03</rscale>
<asrwt>0</asrwt>
<pdfrwt beam="1">  1        2 0.12945540E+00 0.44721715E+03</pdfrwt>
<pdfrwt beam="2">  1       -2 0.13487050E+00 0.44721715E+03</pdfrwt>
<totfact> 0.13483104E+01</totfact>
</mgrwt>
</event>
<event>
 4    1  0.4880711E-008  0.4686837E+03  0.7818608E-02  0.1022292E+00
         -2   -1    0    0    0  501 -0.00000000000E+00  0.00000000000E+00  0.26430344952E+03  0.26430344953E+03  0.25500000000E-02 0.  1.
          2   -1    0    0  501    0  0.00000000000E+00 -0.00000000000E+00 -0.13130073512E+04  0.13130073512E+04  0.25500000000E-02 0. -1.
    8880022    1    1    2    0    0 -0.32922874177E+03  0.29644764425E+03 -0.46567111761E+02  0.47099142147E+03  0.15294330000E+03 0.  1.
    8880022    1    1    2    0    0  0.32922874177E+03 -0.29644764425E+03 -0.10021367899E+04  0.11063193792E+04  0.15294330000E+03 0. -1.
<mgrwt>
<rscale>  0 0.46868371E+03</rscale>
<asrwt>0</asrwt>
<pdfrwt beam="1">  1        2 0.20200113E+00 0.46868371E+03</pdfrwt>
<pdfrwt beam="2">  1       -2 0.40662070E-01 0.46868371E+03</pdfrwt>
<totfact> 0.97451837E+01</totfact>
</mgrwt>
</event>
<event>
 4    1  0.4880711E-008  0.9317200E+03  0.7818608E-02  0.9386776E-01
          2   -1    0    0  501    0  0.00000000000E+00  0.00000000000E+00  0.16186363752E+04  0.16186363752E+04  0.25500000000E-02 0. -1.
         -2   -1    0    0    0  501 -0.00000000000E+00 -0.00000000000E+00 -0.11315070349E+04  0.11315070349E+04  0.25500000000E-02 0.  1.
    8880022    1    1    2    0    0 -0.56171555175E+03 -0.72745181521E+03 -0.75373242203E+03  0.11984217628E+04  0.15294330000E+03 0.  0.
    8880022    1    1    2    0    0  0.56171555175E+03  0.72745181521E+03  0.12408617623E+04  0.15517216473E+04  0.15294330000E+03 0.  0.
<mgrwt>
<rscale>  0 0.93172000E+03</rscale>
<asrwt>0</asrwt>
<pdfrwt beam="1">  1        2 0.24902098E+00 0.93172000E+03</pdfrwt>
<pdfrwt beam="2">  1       -2 0.17407801E+00 0.93172000E+03</pdfrwt>
<totfact> 0.21770510E+00</totfact>
</mgrwt>
</event>
<event>
 4    1  0.4880711E-008  0.7086575E+03  0.7818608E-02  0.9702540E-01
         -2   -1    0    0    0  501 -0.00000000000E+00  0.00000000000E+00  0.10171061938E+04  0.10171061938E+04  0.25500000000E-02 0.  1.
          2   -1    0    0  501    0  0.00000000000E+00 -0.00000000000E+00 -0.18166247043E+04  0.18166247043E+04  0.25500000000E-02 0. -1.
    8880022    1    1    2    0    0 -0.22406051540E+03  0.65467601235E+03 -0.16088404781E+04  0.17579997533E+04  0.15294330000E+03 0.  0.
    8880022    1    1    2    0    0  0.22406051540E+03 -0.65467601235E+03  0.80932196759E+03  0.10757311448E+04  0.15294330000E+03 0.  0.
<mgrwt>
<rscale>  0 0.70865750E+03</rscale>
<asrwt>0</asrwt>
<pdfrwt beam="1">  1        2 0.27948072E+00 0.70865750E+03</pdfrwt>
<pdfrwt beam="2">  1       -2 0.15647788E+00 0.70865750E+03</pdfrwt>
<totfact> 0.23547971E+00</totfact>
</mgrwt>
</event>
<event>
 4    1  0.4880711E-008  0.7743907E+03  0.7818608E-02  0.9597844E-01
          2   -1    0    0  501    0  0.00000000000E+00  0.00000000000E+00  0.71252687093E+03  0.71252687093E+03  0.25500000000E-02 0. -1.
         -2   -1    0    0    0  501 -0.00000000000E+00 -0.00000000000E+00 -0.88624614155E+03  0.88624614156E+03  0.25500000000E-02 0.  1.
    8880022    1    1    2    0    0 -0.51196824458E+03  0.56051560420E+03 -0.26622843031E+03  0.81887633751E+03  0.15294330000E+03 0.  0.
    8880022    1    1    2    0    0  0.51196824458E+03 -0.56051560420E+03  0.92509159684E+02  0.77989667498E+03  0.15294330000E+03 0.  0.
<mgrwt>
<rscale>  0 0.77439065E+03</rscale>
<asrwt>0</asrwt>
<pdfrwt beam="1">  1        2 0.10961952E+00 0.77439065E+03</pdfrwt>
<pdfrwt beam="2">  1       -2 0.13634556E+00 0.77439065E+03</pdfrwt>
<totfact> 0.15593631E+01</totfact>
</mgrwt>
</event>
<event>
 4    1  0.4880711E-008  0.3045674E+03  0.7818608E-02  0.1082979E+00
          2   -1    0    0  501    0  0.00000000000E+00  0.00000000000E+00  0.60671592106E+03  0.60671592107E+03  0.25500000000E-02 0. -1.
         -2   -1    0    0    0  501 -0.00000000000E+00 -0.00000000000E+00 -0.32981179806E+03  0.32981179807E+03  0.25500000000E-02 0.  1.
    8880022    1    1    2    0    0  0.23268044572E+03 -0.12340774604E+03 -0.20451086176E+03  0.36685965599E+03  0.15294330000E+03 0.  1.
    8880022    1    1    2    0    0 -0.23268044572E+03  0.12340774604E+03  0.48141498476E+03  0.56966806315E+03  0.15294330000E+03 0.  0.
<mgrwt>
<rscale>  0 0.30456742E+03</rscale>
<asrwt>0</asrwt>
<pdfrwt beam="1">  1        2 0.93340910E-01 0.30456742E+03</pdfrwt>
<pdfrwt beam="2">  1       -2 0.50740277E-01 0.30456742E+03</pdfrwt>
<totfact> 0.18689807E+02</totfact>
</mgrwt>
</event>
<event>
 4    1  0.4880711E-008  0.1891174E+03  0.7818608E-02  0.1159260E+00
         -2   -1    0    0    0  501 -0.00000000000E+00  0.00000000000E+00  0.21708856335E+02  0.21708856484E+02  0.25500000000E-02 0.  1.
          2   -1    0    0  501    0  0.00000000000E+00 -0.00000000000E+00 -0.19433555242E+04  0.19433555242E+04  0.25500000000E-02 0. -1.
    8880022    1    1    2    0    0  0.73315068271E+02  0.83657939420E+02 -0.57746191948E+03  0.60764107130E+03  0.15294330000E+03 0.  0.
    8880022    1    1    2    0    0 -0.73315068271E+02 -0.83657939420E+02 -0.13441847484E+04  0.13574233094E+04  0.15294330000E+03 0.  0.
<mgrwt>
<rscale>  0 0.18911743E+03</rscale>
<asrwt>0</asrwt>
<pdfrwt beam="1">  1        2 0.29897764E+00 0.18911743E+03</pdfrwt>
<pdfrwt beam="2">  1       -2 0.33398256E-02 0.18911743E+03</pdfrwt>
<totfact> 0.28739273E+03</totfact>
</mgrwt>
</event>
<event>
 4    1  0.4880711E-008  0.6970730E+03  0.7818608E-02  0.9722251E-01
          2   -1    0    0  501    0  0.00000000000E+00  0.00000000000E+00  0.16947850224E+04  0.16947850224E+04  0.25500000000E-02 0. -1.
         -2   -1    0    0    0  501 -0.00000000000E+00 -0.00000000000E+00 -0.62732740205E+03  0.62732740205E+03  0.25500000000E-02 0.  1.
    8880022    1    1    2    0    0 -0.47712598690E+03 -0.48463372741E+03  0.13892680797E+04  0.15543411812E+04  0.15294330000E+03 0.  0.
    8880022    1    1    2    0    0  0.47712598690E+03  0.48463372741E+03 -0.32181045943E+03  0.76777124323E+03  0.15294330000E+03 0.  0.
<mgrwt>
<rscale>  0 0.69707296E+03</rscale>
<asrwt>0</asrwt>
<pdfrwt beam="1">  1        2 0.26073616E+00 0.69707296E+03</pdfrwt>
<pdfrwt beam="2">  1       -2 0.96511908E-01 0.69707296E+03</pdfrwt>
<totfact> 0.91930211E+00</totfact>
</mgrwt>
</event>
<event>
 4    1  0.4880711E-008  0.8162850E+03  0.7818608E-02  0.9536740E-01
          2   -1    0    0  501    0  0.00000000000E+00  0.00000000000E+00  0.46072216336E+03  0.46072216337E+03  0.25500000000E-02 0. -1.
         -2   -1    0    0    0  501 -0.00000000000E+00 -0.00000000000E+00 -0.16686307679E+04  0.16686307679E+04  0.25500000000E-02 0.  1.
    8880022    1    1    2    0    0 -0.62240117607E+03  0.50551597662E+03 -0.21528322812E+03  0.84419674716E+03  0.15294330000E+03 0.  0.
    8880022    1    1    2    0    0  0.62240117607E+03 -0.50551597662E+03 -0.99262537638E+03  0.12851561841E+04  0.15294330000E+03 0.  0.
<mgrwt>
<rscale>  0 0.81628505E+03</rscale>
<asrwt>0</asrwt>
<pdfrwt beam="1">  1        2 0.70880334E-01 0.81628505E+03</pdfrwt>
<pdfrwt beam="2">  1       -2 0.25671242E+00 0.81628505E+03</pdfrwt>
<totfact> 0.40421925E+00</totfact>
</mgrwt>
</event>
<event>
 4    1  0.4880711E-008  0.1897632E+03  0.7818608E-02  0.1158675E+00
          2   -1    0    0  501    0  0.00000000000E+00  0.00000000000E+00  0.51018981386E+03  0.51018981387E+03  0.25500000000E-02 0. -1.
         -2   -1    0    0    0  501 -0.00000000000E+00 -0.00000000000E+00 -0.42901986795E+03  0.42901986796E+03  0.25500000000E-02 0.  1.
    8880022    1    1    2    0    0  0.74247042472E+02  0.84295808937E+02 -0.38865582418E+03  0.43250827669E+03  0.15294330000E+03 0.  1.
    8880022    1    1    2    0    0 -0.74247042472E+02 -0.84295808937E+02  0.46982577009E+03  0.50670140514E+03  0.15294330000E+03 0.  0.
<mgrwt>
<rscale>  0 0.18976317E+03</rscale>
<asrwt>0</asrwt>
<pdfrwt beam="1">  1        2 0.78490741E-01 0.18976317E+03</pdfrwt>
<pdfrwt beam="2">  1       -2 0.66003057E-01 0.18976317E+03</pdfrwt>
<totfact> 0.13448237E+02</totfact>
</mgrwt>
</event>
<event>
 4    1  0.4880711E-008  0.5199322E+03  0.7818608E-02  0.1008703E+00
         -2   -1    0    0    0  501 -0.00000000000E+00  0.00000000000E+00  0.83482774742E+03  0.83482774742E+03  0.25500000000E-02 0.  1.
          2   -1    0    0  501    0  0.00000000000E+00 -0.00000000000E+00 -0.49161035831E+03  0.49161035832E+03  0.25500000000E-02 0. -1.
    8880022    1    1    2    0    0 -0.25039183414E+03 -0.42923392188E+03 -0.21586021618E+03  0.56296102551E+03  0.15294330000E+03 0. -1.
    8880022    1    1    2    0    0  0.25039183414E+03  0.42923392188E+03  0.55907760528E+03  0.76347708023E+03  0.15294330000E+03 0.  0.
<mgrwt>
<rscale>  0 0.51993219E+03</rscale>
<asrwt>0</asrwt>
<pdfrwt beam="1">  1        2 0.75632363E-01 0.51993219E+03</pdfrwt>
<pdfrwt beam="2">  1       -2 0.12843504E+00 0.51993219E+03</pdfrwt>
<totfact> 0.29090861E+01</totfact>
</mgrwt>
</event>
<event>
 4    1  0.4880711E-008  0.7029427E+03  0.7818608E-02  0.9712213E-01
          2   -1    0    0  501    0  0.00000000000E+00  0.00000000000E+00  0.86857573462E+03  0.86857573463E+03  0.25500000000E-02 0. -1.
         -2   -1    0    0    0  501 -0.00000000000E+00 -0.00000000000E+00 -0.69476080456E+03  0.69476080456E+03  0.25500000000E-02 0.  1.
    8880022    1    1    2    0    0  0.29274867214E+03  0.62051184560E+03 -0.24579706503E+03  0.74467750454E+03  0.15294330000E+03 0.  0.
    8880022    1    1    2    0    0 -0.29274867214E+03 -0.62051184560E+03  0.41961199510E+03  0.81865903465E+03  0.15294330000E+03 0.  0.
<mgrwt>
<rscale>  0 0.70294266E+03</rscale>
<asrwt>0</asrwt>
<pdfrwt beam="1">  1        2 0.13362704E+00 0.70294266E+03</pdfrwt>
<pdfrwt beam="2">  1       -2 0.10688628E+00 0.70294266E+03</pdfrwt>
<totfact> 0.22129659E+01</totfact>
</mgrwt>
</event>
<event>
 4    1  0.4880711E-008  0.2057283E+03  0.7818608E-02  0.1144994E+00
          2   -1    0    0  501    0  0.00000000000E+00  0.00000000000E+00  0.11290129568E+04  0.11290129568E+04  0.25500000000E-02 0. -1.
         -2   -1    0    0    0  501 -0.00000000000E+00 -0.00000000000E+00 -0.17909208727E+03  0.17909208729E+03  0.25500000000E-02 0.  1.
    8880022    1    1    2    0    0 -0.13714996141E+03 -0.11062287736E+02 -0.10662393428E+03  0.23171707425E+03  0.15294330000E+03 0.  0.
    8880022    1    1    2    0    0  0.13714996141E+03  0.11062287736E+02  0.10565448038E+04  0.10763879698E+04  0.15294330000E+03 0. -1.
<mgrwt>
<rscale>  0 0.20572831E+03</rscale>
<asrwt>0</asrwt>
<pdfrwt beam="1">  1        2 0.17369430E+00 0.20572831E+03</pdfrwt>
<pdfrwt beam="2">  1       -2 0.27552630E-01 0.20572831E+03</pdfrwt>
<totfact> 0.26733638E+02</totfact>
</mgrwt>
</event>
<event>
 4    1  0.4880711E-008  0.6276786E+03  0.7818608E-02  0.9849589E-01
         -2   -1    0    0    0  501 -0.00000000000E+00  0.00000000000E+00  0.10378019488E+04  0.10378019488E+04  0.25500000000E-02 0.  1.
          2   -1    0    0  501    0  0.00000000000E+00 -0.00000000000E+00 -0.94609022389E+03  0.94609022390E+03  0.25500000000E-02 0. -1.
    8880022    1    1    2    0    0 -0.64466774780E+02  0.60533689971E+03  0.81340579645E+03  0.10274285230E+04  0.15294330000E+03 0.  0.
    8880022    1    1    2    0    0  0.64466774780E+02 -0.60533689971E+03 -0.72169407156E+03  0.95646364967E+03  0.15294330000E+03 0.  0.
<mgrwt>
<rscale>  0 0.62767856E+03</rscale>
<asrwt>0</asrwt>
<pdfrwt beam="1">  1        2 0.14555234E+00 0.62767856E+03</pdfrwt>
<pdfrwt beam="2">  1       -2 0.15966184E+00 0.62767856E+03</pdfrwt>
<totfact> 0.71680732E+00</totfact>
</mgrwt>
</event>
<event>
 4    1  0.4880711E-008  0.2773049E+03  0.7818608E-02  0.1097170E+00
         -2   -1    0    0    0  501 -0.00000000000E+00  0.00000000000E+00  0.11107207866E+03  0.11107207868E+03  0.25500000000E-02 0.  1.
          2   -1    0    0  501    0  0.00000000000E+00 -0.00000000000E+00 -0.27910831160E+04  0.27910831160E+04  0.25500000000E-02 0. -1.
    8880022    1    1    2    0    0  0.12940974628E+03  0.19172758125E+03 -0.81701961339E+02  0.28909031694E+03  0.15294330000E+03 0.  0.
    8880022    1    1    2    0    0 -0.12940974628E+03 -0.19172758125E+03 -0.25983090760E+04  0.26130648777E+04  0.15294330000E+03 0.  0.
<mgrwt>
<rscale>  0 0.27730489E+03</rscale>
<asrwt>0</asrwt>
<pdfrwt beam="1">  1        2 0.42939735E+00 0.27730489E+03</pdfrwt>
<pdfrwt beam="2">  1       -2 0.17088014E-01 0.27730489E+03</pdfrwt>
<totfact> 0.76091186E+01</totfact>
</mgrwt>
</event>
<event>
 4    1  0.4880711E-008  0.6574652E+03  0.7818608E-02  0.9792871E-01
          2   -1    0    0  501    0  0.00000000000E+00  0.00000000000E+00  0.62497736168E+03  0.62497736169E+03  0.25500000000E-02 0. -1.
         -2   -1    0    0    0  501 -0.00000000000E+00 -0.00000000000E+00 -0.79656635836E+03  0.79656635836E+03  0.25500000000E-02 0.  1.
    8880022    1    1    2    0    0 -0.62433160175E+03 -0.13812647977E+03  0.17216862388E+03  0.67963413791E+03  0.15294330000E+03 0.  0.
    8880022    1    1    2    0    0  0.62433160175E+03  0.13812647977E+03 -0.34375762056E+03  0.74190958213E+03  0.15294330000E+03 0.  0.
<mgrwt>
<rscale>  0 0.65746523E+03</rscale>
<asrwt>0</asrwt>
<pdfrwt beam="1">  1        2 0.96150363E-01 0.65746523E+03</pdfrwt>
<pdfrwt beam="2">  1       -2 0.12254867E+00 0.65746523E+03</pdfrwt>
<totfact> 0.24300739E+01</totfact>
</mgrwt>
</event>
<event>
 4    1  0.4880711E-008  0.5043103E+03  0.7818608E-02  0.1012660E+00
          2   -1    0    0  501    0  0.00000000000E+00  0.00000000000E+00  0.15745899459E+04  0.15745899459E+04  0.25500000000E-02 0. -1.
         -2   -1    0    0    0  501 -0.00000000000E+00 -0.00000000000E+00 -0.55725389974E+03  0.55725389975E+03  0.25500000000E-02 0.  1.
    8880022    1    1    2    0    0 -0.35309439510E+03  0.32597787275E+03 -0.38958787331E+03  0.63726571335E+03  0.15294330000E+03 0.  0.
    8880022    1    1    2    0    0  0.35309439510E+03 -0.32597787275E+03  0.14069239194E+04  0.14945781323E+04  0.15294330000E+03 0.  0.
<mgrwt>
<rscale>  0 0.50431030E+03</rscale>
<asrwt>0</asrwt>
<pdfrwt beam="1">  1        2 0.24224461E+00 0.50431030E+03</pdfrwt>
<pdfrwt beam="2">  1       -2 0.85731369E-01 0.50431030E+03</pdfrwt>
<totfact> 0.14529355E+01</totfact>
</mgrwt>
</event>
<event>
 4    1  0.4880711E-008  0.3136941E+03  0.7818608E-02  0.1078589E+00
         -2   -1    0    0    0  501 -0.00000000000E+00  0.00000000000E+00  0.28552857243E+03  0.28552857244E+03  0.25500000000E-02 0.  1.
          2   -1    0    0  501    0  0.00000000000E+00 -0.00000000000E+00 -0.15398704260E+04  0.15398704260E+04  0.25500000000E-02 0. -1.
    8880022    1    1    2    0    0 -0.25124182492E+03 -0.10904070011E+03  0.17693250499E+03  0.36015148647E+03  0.15294330000E+03 0.  0.
    8880022    1    1    2    0    0  0.25124182492E+03  0.10904070011E+03 -0.14312743585E+04  0.14652475119E+04  0.15294330000E+03 0.  0.
<mgrwt>
<rscale>  0 0.31369409E+03</rscale>
<asrwt>0</asrwt>
<pdfrwt beam="1">  1        2 0.23690314E+00 0.31369409E+03</pdfrwt>
<pdfrwt beam="2">  1       -2 0.43927473E-01 0.31369409E+03</pdfrwt>
<totfact> 0.64699703E+01</totfact>
</mgrwt>
</event>
<event>
 4    1  0.4880711E-008  0.4564924E+03  0.7818608E-02  0.1025803E+00
          2   -1    0    0  501    0  0.00000000000E+00  0.00000000000E+00  0.23681042700E+04  0.23681042700E+04  0.25500000000E-02 0. -1.
         -2   -1    0    0    0  501 -0.00000000000E+00 -0.00000000000E+00 -0.64133703583E+03  0.64133703583E+03  0.25500000000E-02 0.  1.
    8880022    1    1    2    0    0  0.33709554170E+03 -0.26713345019E+03 -0.53430005060E+03  0.70275307295E+03  0.15294330000E+03 0.  0.
    8880022    1    1    2    0    0 -0.33709554170E+03  0.26713345019E+03  0.22610672848E+04  0.23066882329E+04  0.15294330000E+03 0.  0.
<mgrwt>
<rscale>  0 0.45649243E+03</rscale>
<asrwt>0</asrwt>
<pdfrwt beam="1">  1        2 0.36432372E+00 0.45649243E+03</pdfrwt>
<pdfrwt beam="2">  1       -2 0.98667240E-01 0.45649243E+03</pdfrwt>
<totfact> 0.39618085E+00</totfact>
</mgrwt>
</event>
<event>
 4    1  0.4880711E-008  0.1981523E+03  0.7818608E-02  0.1151307E+00
         -2   -1    0    0    0  501 -0.00000000000E+00  0.00000000000E+00  0.59784360400E+03  0.59784360401E+03  0.25500000000E-02 0.  1.
          2   -1    0    0  501    0  0.00000000000E+00 -0.00000000000E+00 -0.26778321910E+03  0.26778321911E+03  0.25500000000E-02 0. -1.
    8880022    1    1    2    0    0  0.12281832673E+03 -0.28077116144E+02 -0.21097975007E+03  0.28944217693E+03  0.15294330000E+03 0.  0.
    8880022    1    1    2    0    0 -0.12281832673E+03  0.28077116144E+02  0.54104013498E+03  0.57618464619E+03  0.15294330000E+03 0.  1.
<mgrwt>
<rscale>  0 0.19815226E+03</rscale>
<asrwt>0</asrwt>
<pdfrwt beam="1">  1        2 0.41197418E-01 0.19815226E+03</pdfrwt>
<pdfrwt beam="2">  1       -2 0.91975939E-01 0.19815226E+03</pdfrwt>
<totfact> 0.13060306E+02</totfact>
</mgrwt>
</event>
<event>
 4    1  0.4880711E-008  0.7362826E+03  0.7818608E-02  0.9657120E-01
          2   -1    0    0  501    0  0.00000000000E+00  0.00000000000E+00  0.11932448240E+04  0.11932448240E+04  0.25500000000E-02 0. -1.
         -2   -1    0    0    0  501 -0.00000000000E+00 -0.00000000000E+00 -0.81277731757E+03  0.81277731757E+03  0.25500000000E-02 0.  1.
    8880022    1    1    2    0    0 -0.71204805981E+03  0.10820318898E+03 -0.47586737614E+03  0.87667655510E+03  0.15294330000E+03 0.  0.
    8880022    1    1    2    0    0  0.71204805981E+03 -0.10820318898E+03  0.85633488261E+03  0.11293455865E+04  0.15294330000E+03 0.  0.
<mgrwt>
<rscale>  0 0.73628257E+03</rscale>
<asrwt>0</asrwt>
<pdfrwt beam="1">  1        2 0.18357613E+00 0.73628257E+03</pdfrwt>
<pdfrwt beam="2">  1       -2 0.12504266E+00 0.73628257E+03</pdfrwt>
<totfact> 0.93573392E+00</totfact>
</mgrwt>
</event>
<event>
 4    1  0.4880711E-008  0.1029352E+04  0.7818608E-02  0.9276925E-01
          2   -1    0    0  501    0  0.00000000000E+00  0.00000000000E+00  0.18247877896E+04  0.18247877896E+04  0.25500000000E-02 0. -1.
         -2   -1    0    0    0  501 -0.00000000000E+00 -0.00000000000E+00 -0.78815705150E+03  0.78815705150E+03  0.25500000000E-02 0.  1.
    8880022    1    1    2    0    0  0.87383364501E+03  0.52210025287E+03 -0.15204578331E+03  0.10405207765E+04  0.15294330000E+03 0.  0.
    8880022    1    1    2    0    0 -0.87383364501E+03 -0.52210025287E+03  0.11886765214E+04  0.15724240645E+04  0.15294330000E+03 0.  0.
<mgrwt>
<rscale>  0 0.10293520E+04</rscale>
<asrwt>0</asrwt>
<pdfrwt beam="1">  1        2 0.28073658E+00 0.10293520E+04</pdfrwt>
<pdfrwt beam="2">  1       -2 0.12125493E+00 0.10293520E+04</pdfrwt>
<totfact> 0.42966850E+00</totfact>
</mgrwt>
</event>
<event>
 4    1  0.7716772E-008  0.6933219E+03  0.7818608E-02  0.9728721E-01
          2   -1    0    0  501    0  0.00000000000E+00  0.00000000000E+00  0.19371650815E+04  0.19371650815E+04  0.25500000000E-02 0. -1.
         -2   -1    0    0    0  501 -0.00000000000E+00 -0.00000000000E+00 -0.77647030348E+03  0.77647030348E+03  0.25500000000E-02 0.  1.
    8880022    1    1    2    0    0 -0.67199811693E+03  0.75645190069E+02 -0.53885933675E+03  0.87810289930E+03  0.15294330000E+03 0.  0.
    8880022    1    1    2    0    0  0.67199811693E+03 -0.75645190069E+02  0.16995541147E+04  0.18355324857E+04  0.15294330000E+03 0.  0.
<mgrwt>
<rscale>  0 0.69332194E+03</rscale>
<asrwt>0</asrwt>
<pdfrwt beam="1">  1        2 0.29802539E+00 0.69332194E+03</pdfrwt>
<pdfrwt beam="2">  1       -2 0.11945697E+00 0.69332194E+03</pdfrwt>
<totfact> 0.40641188E+00</totfact>
</mgrwt>
</event>
<event>
 4    1  0.4880711E-008  0.5482099E+03  0.7818608E-02  0.1001909E+00
         -2   -1    0    0    0  501 -0.00000000000E+00  0.00000000000E+00  0.97359740064E+03  0.97359740064E+03  0.25500000000E-02 0.  1.
          2   -1    0    0  501    0  0.00000000000E+00 -0.00000000000E+00 -0.85363138958E+03  0.85363138958E+03  0.25500000000E-02 0. -1.
    8880022    1    1    2    0    0 -0.15153258225E+03  0.50416293375E+03 -0.66998696212E+03  0.86568849460E+03  0.15294330000E+03 0. -1.
    8880022    1    1    2    0    0  0.15153258225E+03 -0.50416293375E+03  0.78995297319E+03  0.96154029563E+03  0.15294330000E+03 0.  0.
<mgrwt>
<rscale>  0 0.54820985E+03</rscale>
<asrwt>0</asrwt>
<pdfrwt beam="1">  1        2 0.13132791E+00 0.54820985E+03</pdfrwt>
<pdfrwt beam="2">  1       -2 0.14978421E+00 0.54820985E+03</pdfrwt>
<totfact> 0.99161368E+00</totfact>
</mgrwt>
</event>
<event>
 4    1  0.4880711E-008  0.5418183E+03  0.7818608E-02  0.1003406E+00
          2   -1    0    0  501    0  0.00000000000E+00  0.00000000000E+00  0.11373509790E+04  0.11373509790E+04  0.25500000000E-02 0. -1.
         -2   -1    0    0    0  501 -0.00000000000E+00 -0.00000000000E+00 -0.29851944609E+03  0.29851944610E+03  0.25500000000E-02 0.  1.
    8880022    1    1    2    0    0 -0.26097504214E+03 -0.44951915957E+03  0.15528761659E+03  0.56363227757E+03  0.15294330000E+03 0.  0.
    8880022    1    1    2    0    0  0.26097504214E+03  0.44951915957E+03  0.68354391628E+03  0.87223814749E+03  0.15294330000E+03 0.  0.
<mgrwt>
<rscale>  0 0.54181833E+03</rscale>
<asrwt>0</asrwt>
<pdfrwt beam="1">  1        2 0.17497708E+00 0.54181833E+03</pdfrwt>
<pdfrwt beam="2">  1       -2 0.45926068E-01 0.54181833E+03</pdfrwt>
<totfact> 0.96125380E+01</totfact>
</mgrwt>
</event>
<event>
 4    1  0.4880711E-008  0.3652649E+03  0.7818608E-02  0.1056518E+00
         -2   -1    0    0    0  501 -0.00000000000E+00  0.00000000000E+00  0.38658099474E+03  0.38658099474E+03  0.25500000000E-02 0.  1.
          2   -1    0    0  501    0  0.00000000000E+00 -0.00000000000E+00 -0.17183178038E+04  0.17183178038E+04  0.25500000000E-02 0. -1.
    8880022    1    1    2    0    0 -0.25682331199E+03  0.20992526437E+03 -0.16067074976E+04  0.16477036949E+04  0.15294330000E+03 0.  0.
    8880022    1    1    2    0    0  0.25682331199E+03 -0.20992526437E+03  0.27497068858E+03  0.45719510364E+03  0.15294330000E+03 0.  1.
<mgrwt>
<rscale>  0 0.36526495E+03</rscale>
<asrwt>0</asrwt>
<pdfrwt beam="1">  1        2 0.26435658E+00 0.36526495E+03</pdfrwt>
<pdfrwt beam="2">  1       -2 0.59474000E-01 0.36526495E+03</pdfrwt>
<totfact> 0.27798583E+01</totfact>
</mgrwt>
</event>
<event>
 4    1  0.4880711E-008  0.1609608E+03  0.7818608E-02  0.1187616E+00
          2   -1    0    0  501    0  0.00000000000E+00  0.00000000000E+00  0.14286282130E+04  0.14286282130E+04  0.25500000000E-02 0. -1.
         -2   -1    0    0    0  501 -0.00000000000E+00 -0.00000000000E+00 -0.13755926780E+03  0.13755926782E+03  0.25500000000E-02 0.  1.
    8880022    1    1    2    0    0  0.91674574284E+01  0.49322160853E+02  0.13751849419E+04  0.13845728566E+04  0.15294330000E+03 0. -1.
    8880022    1    1    2    0    0 -0.91674574284E+01 -0.49322160853E+02 -0.84115996673E+02  0.18161462424E+03  0.15294330000E+03 0.  0.
<mgrwt>
<rscale>  0 0.16096077E+03</rscale>
<asrwt>0</asrwt>
<pdfrwt beam="1">  1        2 0.21978896E+00 0.16096077E+03</pdfrwt>
<pdfrwt beam="2">  1       -2 0.21162964E-01 0.16096077E+03</pdfrwt>
<totfact> 0.29304446E+02</totfact>
</mgrwt>
</event>
<event>
 4    1  0.4880711E-008  0.2832327E+03  0.7818608E-02  0.1093936E+00
         -2   -1    0    0    0  501 -0.00000000000E+00  0.00000000000E+00  0.92096932815E+02  0.92096932850E+02  0.25500000000E-02 0.  1.
          2   -1    0    0  501    0  0.00000000000E+00 -0.00000000000E+00 -0.13677186597E+04  0.13677186597E+04  0.25500000000E-02 0. -1.
    8880022    1    1    2    0    0 -0.16301019522E+03  0.17394477115E+03 -0.10776605547E+04  0.11142589606E+04  0.15294330000E+03 0. -1.
    8880022    1    1    2    0    0  0.16301019522E+03 -0.17394477115E+03 -0.19796117216E+03  0.34555663190E+03  0.15294330000E+03 0.  0.
<mgrwt>
<rscale>  0 0.28323270E+03</rscale>
<asrwt>0</asrwt>
<pdfrwt beam="1">  1        2 0.21041824E+00 0.28323270E+03</pdfrwt>
<pdfrwt beam="2">  1       -2 0.14168760E-01 0.28323270E+03</pdfrwt>
<totfact> 0.60730532E+02</totfact>
</mgrwt>
</event>
<event>
 4    1  0.4880711E-008  0.5049699E+03  0.7818608E-02  0.1012490E+00
         -2   -1    0    0    0  501 -0.00000000000E+00  0.00000000000E+00  0.26557250458E+03  0.26557250459E+03  0.25500000000E-02 0.  1.
          2   -1    0    0  501    0  0.00000000000E+00 -0.00000000000E+00 -0.13044101679E+04  0.13044101679E+04  0.25500000000E-02 0. -1.
    8880022    1    1    2    0    0  0.31667409946E+03  0.36238164908E+03 -0.92268233033E+03  0.10518256893E+04  0.15294330000E+03 0. -1.
    8880022    1    1    2    0    0 -0.31667409946E+03 -0.36238164908E+03 -0.11615533296E+03  0.51815698321E+03  0.15294330000E+03 0.  0.
<mgrwt>
<rscale>  0 0.50496990E+03</rscale>
<asrwt>0</asrwt>
<pdfrwt beam="1">  1        2 0.20067848E+00 0.50496990E+03</pdfrwt>
<pdfrwt beam="2">  1       -2 0.40857309E-01 0.50496990E+03</pdfrwt>
<totfact> 0.97174865E+01</totfact>
</mgrwt>
</event>
<event>
 4    1  0.4880711E-008  0.8362010E+03  0.7818608E-02  0.9509047E-01
         -2   -1    0    0    0  501 -0.00000000000E+00  0.00000000000E+00  0.66451892174E+03  0.66451892174E+03  0.25500000000E-02 0.  1.
          2   -1    0    0  501    0  0.00000000000E+00 -0.00000000000E+00 -0.22071412492E+04  0.22071412492E+04  0.25500000000E-02 0. -1.
    8880022    1    1    2    0    0  0.37638861244E+03  0.73087076713E+03 -0.18099409435E+04  0.19937698809E+04  0.15294330000E+03 0.  0.
    8880022    1    1    2    0    0 -0.37638861244E+03 -0.73087076713E+03  0.26731861609E+03  0.87789029004E+03  0.15294330000E+03 0.  0.
<mgrwt>
<rscale>  0 0.83620100E+03</rscale>
<asrwt>0</asrwt>
<pdfrwt beam="1">  1        2 0.33956019E+00 0.83620100E+03</pdfrwt>
<pdfrwt beam="2">  1       -2 0.10223368E+00 0.83620100E+03</pdfrwt>
<totfact> 0.41170983E+00</totfact>
</mgrwt>
</event>
<event>
 4    1  0.4880711E-008  0.7957879E+03  0.7818608E-02  0.9566134E-01
         -2   -1    0    0    0  501 -0.00000000000E+00  0.00000000000E+00  0.14342586333E+04  0.14342586333E+04  0.25500000000E-02 0.  1.
          2   -1    0    0  501    0  0.00000000000E+00 -0.00000000000E+00 -0.15216510188E+04  0.15216510188E+04  0.25500000000E-02 0. -1.
    8880022    1    1    2    0    0  0.76545843074E+03  0.15479037490E+03  0.12015018268E+04  0.14411401605E+04  0.15294330000E+03 0.  0.
    8880022    1    1    2    0    0 -0.76545843074E+03 -0.15479037490E+03 -0.12888942122E+04  0.15147694916E+04  0.15294330000E+03 0.  0.
<mgrwt>
<rscale>  0 0.79578786E+03</rscale>
<asrwt>0</asrwt>
<pdfrwt beam="1">  1        2 0.23410016E+00 0.79578786E+03</pdfrwt>
<pdfrwt beam="2">  1       -2 0.22065518E+00 0.79578786E+03</pdfrwt>
<totfact> 0.12417850E+00</totfact>
</mgrwt>
</event>
<event>
 4    1  0.4880711E-008  0.6398896E+03  0.7818608E-02  0.9825938E-01
          2   -1    0    0  501    0  0.00000000000E+00  0.00000000000E+00  0.18180601017E+04  0.18180601017E+04  0.25500000000E-02 0. -1.
         -2   -1    0    0    0  501 -0.00000000000E+00 -0.00000000000E+00 -0.40408038682E+03  0.40408038683E+03  0.25500000000E-02 0.  1.
    8880022    1    1    2    0    0 -0.63838686368E+02 -0.61805478210E+03  0.14461999487E+04  0.15814401779E+04  0.15294330000E+03 0.  0.
    8880022    1    1    2    0    0  0.63838686368E+02  0.61805478210E+03 -0.32220233848E+02  0.64070031063E+03  0.15294330000E+03 0.  0.
<mgrwt>
<rscale>  0 0.63988963E+03</rscale>
<asrwt>0</asrwt>
<pdfrwt beam="1">  1        2 0.27970155E+00 0.63988963E+03</pdfrwt>
<pdfrwt beam="2">  1       -2 0.62166214E-01 0.63988963E+03</pdfrwt>
<totfact> 0.21192660E+01</totfact>
</mgrwt>
</event>
<event>
 4    1  0.4880711E-008  0.6419513E+03  0.7818608E-02  0.9822000E-01
          2   -1    0    0  501    0  0.00000000000E+00  0.00000000000E+00  0.16064131924E+04  0.16064131924E+04  0.25500000000E-02 0. -1.
         -2   -1    0    0    0  501 -0.00000000000E+00 -0.00000000000E+00 -0.68156055741E+03  0.68156055742E+03  0.25500000000E-02 0.  1.
    8880022    1    1    2    0    0  0.35826615696E+03 -0.51025012544E+03  0.13658183429E+04  0.15091591131E+04  0.15294330000E+03 0.  0.
    8880022    1    1    2    0    0 -0.35826615696E+03  0.51025012544E+03 -0.44096570796E+03  0.77881463671E+03  0.15294330000E+03 0.  0.
<mgrwt>
<rscale>  0 0.64195131E+03</rscale>
<asrwt>0</asrwt>
<pdfrwt beam="1">  1        2 0.24714049E+00 0.64195131E+03</pdfrwt>
<pdfrwt beam="2">  1       -2 0.10485547E+00 0.64195131E+03</pdfrwt>
<totfact> 0.85176727E+00</totfact>
</mgrwt>
</event>
<event>
 4    1  0.4880711E-008  0.5419072E+03  0.7818608E-02  0.1003385E+00
          2   -1    0    0  501    0  0.00000000000E+00  0.00000000000E+00  0.69005410094E+03  0.69005410095E+03  0.25500000000E-02 0. -1.
         -2   -1    0    0    0  501 -0.00000000000E+00 -0.00000000000E+00 -0.55258777715E+03  0.55258777715E+03  0.25500000000E-02 0.  1.
    8880022    1    1    2    0    0 -0.12176446493E+03 -0.50541580573E+03  0.36662246818E+03  0.65427471966E+03  0.15294330000E+03 0. -1.
    8880022    1    1    2    0    0  0.12176446493E+03  0.50541580573E+03 -0.22915614439E+03  0.58836715844E+03  0.15294330000E+03 0.  0.
<mgrwt>
<rscale>  0 0.54190716E+03</rscale>
<asrwt>0</asrwt>
<pdfrwt beam="1">  1        2 0.10616217E+00 0.54190716E+03</pdfrwt>
<pdfrwt beam="2">  1       -2 0.85013504E-01 0.54190716E+03</pdfrwt>
<totfact> 0.51824925E+01</totfact>
</mgrwt>
</event>
<event>
 4    1  0.4880711E-008  0.9418812E+03  0.7818608E-02  0.9374691E-01
         -2   -1    0    0    0  501 -0.00000000000E+00  0.00000000000E+00  0.57484891922E+03  0.57484891922E+03  0.25500000000E-02 0.  1.
          2   -1    0    0  501    0  0.00000000000E+00 -0.00000000000E+00 -0.27177579774E+04  0.27177579774E+04  0.25500000000E-02 0. -1.
    8880022    1    1    2    0    0 -0.67103549193E+02 -0.92695505213E+03  0.10803957218E+02  0.94194316893E+03  0.15294330000E+03 0.  0.
    8880022    1    1    2    0    0  0.67103549193E+02  0.92695505213E+03 -0.21537130154E+04  0.23506637277E+04  0.15294330000E+03 0.  0.
<mgrwt>
<rscale>  0 0.94188121E+03</rscale>
<asrwt>0</asrwt>
<pdfrwt beam="1">  1        2 0.41811661E+00 0.94188121E+03</pdfrwt>
<pdfrwt beam="2">  1       -2 0.88438297E-01 0.94188121E+03</pdfrwt>
<totfact> 0.29165044E+00</totfact>
</mgrwt>
</event>
<event>
 4    1  0.4880711E-008  0.1157947E+04  0.7818608E-02  0.9150484E-01
         -2   -1    0    0    0  501 -0.00000000000E+00  0.00000000000E+00  0.15547020117E+04  0.15547020117E+04  0.25500000000E-02 0.  1.
          2   -1    0    0  501    0  0.00000000000E+00 -0.00000000000E+00 -0.10613249999E+04  0.10613249999E+04  0.25500000000E-02 0. -1.
    8880022    1    1    2    0    0 -0.94273097537E+03 -0.65475706367E+03 -0.31953379613E+03  0.12012252096E+04  0.15294330000E+03 0.  0.
    8880022    1    1    2    0    0  0.94273097537E+03  0.65475706367E+03  0.81291080796E+03  0.14148018020E+04  0.15294330000E+03 0.  0.
<mgrwt>
<rscale>  0 0.11579465E+04</rscale>
<asrwt>0</asrwt>
<pdfrwt beam="1">  1        2 0.16328077E+00 0.11579465E+04</pdfrwt>
<pdfrwt beam="2">  1       -2 0.23918493E+00 0.11579465E+04</pdfrwt>
<totfact> 0.16867962E+00</totfact>
</mgrwt>
</event>
<event>
 4    1  0.4880711E-008  0.5637101E+03  0.7818608E-02  0.9983695E-01
         -2   -1    0    0    0  501 -0.00000000000E+00  0.00000000000E+00  0.62172663566E+03  0.62172663567E+03  0.25500000000E-02 0.  1.
          2   -1    0    0  501    0  0.00000000000E+00 -0.00000000000E+00 -0.58368868960E+03  0.58368868961E+03  0.25500000000E-02 0. -1.
    8880022    1    1    2    0    0 -0.59359787134E+02 -0.53930867069E+03  0.23155298312E+03  0.60941436118E+03  0.15294330000E+03 0.  0.
    8880022    1    1    2    0    0  0.59359787134E+02  0.53930867069E+03 -0.19351503706E+03  0.59600096409E+03  0.15294330000E+03 0.  0.
<mgrwt>
<rscale>  0 0.56371010E+03</rscale>
<asrwt>0</asrwt>
<pdfrwt beam="1">  1        2 0.89798260E-01 0.56371010E+03</pdfrwt>
<pdfrwt beam="2">  1       -2 0.95650252E-01 0.56371010E+03</pdfrwt>
<totfact> 0.48335964E+01</totfact>
</mgrwt>
</event>
<event>
 4    1  0.4880711E-008  0.1210940E+04  0.7818608E-02  0.9103334E-01
          2   -1    0    0  501    0  0.00000000000E+00  0.00000000000E+00  0.20063102033E+04  0.20063102033E+04  0.25500000000E-02 0. -1.
         -2   -1    0    0    0  501 -0.00000000000E+00 -0.00000000000E+00 -0.11075282271E+04  0.11075282271E+04  0.25500000000E-02 0.  1.
    8880022    1    1    2    0    0 -0.12005794411E+04 -0.39912051915E+02  0.13573277503E+04  0.18189871470E+04  0.15294330000E+03 0.  0.
    8880022    1    1    2    0    0  0.12005794411E+04  0.39912051915E+02 -0.45854577408E+03  0.12948512834E+04  0.15294330000E+03 0.  0.
<mgrwt>
<rscale>  0 0.12109400E+04</rscale>
<asrwt>0</asrwt>
<pdfrwt beam="1">  1        2 0.30866311E+00 0.12109400E+04</pdfrwt>
<pdfrwt beam="2">  1       -2 0.17038896E+00 0.12109400E+04</pdfrwt>
<totfact> 0.13626563E+00</totfact>
</mgrwt>
</event>
<event>
 4    1  0.4880711E-008  0.9318967E+03  0.7818608E-02  0.9386565E-01
         -2   -1    0    0    0  501 -0.00000000000E+00  0.00000000000E+00  0.39174751815E+03  0.39174751816E+03  0.25500000000E-02 0.  1.
          2   -1    0    0  501    0  0.00000000000E+00 -0.00000000000E+00 -0.30790027840E+04  0.30790027840E+04  0.25500000000E-02 0. -1.
    8880022    1    1    2    0    0  0.83268276754E+03  0.38946005627E+03 -0.22619380694E+04  0.24463841092E+04  0.15294330000E+03 0.  0.
    8880022    1    1    2    0    0 -0.83268276754E+03 -0.38946005627E+03 -0.42531719648E+03  0.10243661930E+04  0.15294330000E+03 0.  0.
<mgrwt>
<rscale>  0 0.93189666E+03</rscale>
<asrwt>0</asrwt>
<pdfrwt beam="1">  1        2 0.47369272E+00 0.93189666E+03</pdfrwt>
<pdfrwt beam="2">  1       -2 0.60268851E-01 0.93189666E+03</pdfrwt>
<totfact> 0.41227346E+00</totfact>
</mgrwt>
</event>
<event>
 4    1  0.5641869E-008  0.5026326E+03  0.7818608E-02  0.1013094E+00
         -2   -1    0    0    0  501 -0.00000000000E+00  0.00000000000E+00  0.70457112356E+03  0.70457112357E+03  0.25500000000E-02 0.  1.
          2   -1    0    0  501    0  0.00000000000E+00 -0.00000000000E+00 -0.18296542948E+04  0.18296542948E+04  0.25500000000E-02 0. -1.
    8880022    1    1    2    0    0 -0.28243658570E+03 -0.38662311631E+03 -0.16987269852E+04  0.17715284029E+04  0.15294330000E+03 0.  0.
    8880022    1    1    2    0    0  0.28243658570E+03  0.38662311631E+03  0.57364381399E+03  0.76269701544E+03  0.15294330000E+03 0.  1.
<mgrwt>
<rscale>  0 0.50263258E+03</rscale>
<asrwt>0</asrwt>
<pdfrwt beam="1">  1        2 0.28148527E+00 0.50263258E+03</pdfrwt>
<pdfrwt beam="2">  1       -2 0.10839556E+00 0.50263258E+03</pdfrwt>
<totfact> 0.61212798E+00</totfact>
</mgrwt>
</event>
<event>
 4    1  0.4880711E-008  0.4613141E+03  0.7818608E-02  0.1024401E+00
         -2   -1    0    0    0  501 -0.00000000000E+00  0.00000000000E+00  0.27870487851E+03  0.27870487852E+03  0.25500000000E-02 0.  1.
          2   -1    0    0  501    0  0.00000000000E+00 -0.00000000000E+00 -0.12768275569E+04  0.12768275569E+04  0.25500000000E-02 0. -1.
    8880022    1    1    2    0    0 -0.38470657887E+03 -0.20351871801E+03 -0.99217909935E+03  0.10941800759E+04  0.15294330000E+03 0. -1.
    8880022    1    1    2    0    0  0.38470657887E+03  0.20351871801E+03 -0.59435790002E+01  0.46135235943E+03  0.15294330000E+03 0.  0.
<mgrwt>
<rscale>  0 0.46131407E+03</rscale>
<asrwt>0</asrwt>
<pdfrwt beam="1">  1        2 0.19643501E+00 0.46131407E+03</pdfrwt>
<pdfrwt beam="2">  1       -2 0.42877674E-01 0.46131407E+03</pdfrwt>
<totfact> 0.92217221E+01</totfact>
</mgrwt>
</event>
<event>
 4    1  0.4880711E-008  0.6742339E+03  0.7818608E-02  0.9762339E-01
          2   -1    0    0  501    0  0.00000000000E+00  0.00000000000E+00  0.22301672816E+04  0.22301672816E+04  0.25500000000E-02 0. -1.
         -2   -1    0    0    0  501 -0.00000000000E+00 -0.00000000000E+00 -0.39163016642E+03  0.39163016643E+03  0.25500000000E-02 0.  1.
    8880022    1    1    2    0    0  0.26159936545E+03 -0.60230014889E+03  0.11509523577E+02  0.67433212848E+03  0.15294330000E+03 0.  0.
    8880022    1    1    2    0    0 -0.26159936545E+03  0.60230014889E+03  0.18270275916E+04  0.19474653196E+04  0.15294330000E+03 0.  0.
<mgrwt>
<rscale>  0 0.67423390E+03</rscale>
<asrwt>0</asrwt>
<pdfrwt beam="1">  1        2 0.34310266E+00 0.67423390E+03</pdfrwt>
<pdfrwt beam="2">  1       -2 0.60250794E-01 0.67423390E+03</pdfrwt>
<totfact> 0.13428692E+01</totfact>
</mgrwt>
</event>
<event>
 4    1  0.4880711E-008  0.4871294E+03  0.7818608E-02  0.1017194E+00
         -2   -1    0    0    0  501 -0.00000000000E+00  0.00000000000E+00  0.14935664901E+03  0.14935664904E+03  0.25500000000E-02 0.  1.
          2   -1    0    0  501    0  0.00000000000E+00 -0.00000000000E+00 -0.25644874173E+04  0.25644874173E+04  0.25500000000E-02 0. -1.
    8880022    1    1    2    0    0  0.42681362497E+03  0.17813912870E+03 -0.20445434750E+04  0.21017737970E+04  0.15294330000E+03 0.  0.
    8880022    1    1    2    0    0 -0.42681362497E+03 -0.17813912870E+03 -0.37058729329E+03  0.61207026933E+03  0.15294330000E+03 0.  0.
<mgrwt>
<rscale>  0 0.48712942E+03</rscale>
<asrwt>0</asrwt>
<pdfrwt beam="1">  1        2 0.39453649E+00 0.48712942E+03</pdfrwt>
<pdfrwt beam="2">  1       -2 0.22977948E-01 0.48712942E+03</pdfrwt>
<totfact> 0.57952410E+01</totfact>
</mgrwt>
</event>
<event>
 4    1  0.4880711E-008  0.2315445E+03  0.7818608E-02  0.1125557E+00
         -2   -1    0    0    0  501 -0.00000000000E+00  0.00000000000E+00  0.20302433891E+03  0.20302433892E+03  0.25500000000E-02 0.  1.
          2   -1    0    0  501    0  0.00000000000E+00 -0.00000000000E+00 -0.21185907079E+04  0.21185907079E+04  0.25500000000E-02 0. -1.
    8880022    1    1    2    0    0  0.23483347592E+02  0.17224899216E+03 -0.20438396654E+04  0.20569135650E+04  0.15294330000E+03 0.  0.
    8880022    1    1    2    0    0 -0.23483347592E+02 -0.17224899216E+03  0.12827329639E+03  0.26470148186E+03  0.15294330000E+03 0.  1.
<mgrwt>
<rscale>  0 0.23154446E+03</rscale>
<asrwt>0</asrwt>
<pdfrwt beam="1">  1        2 0.32593702E+00 0.23154446E+03</pdfrwt>
<pdfrwt beam="2">  1       -2 0.31234515E-01 0.23154446E+03</pdfrwt>
<totfact> 0.62662789E+01</totfact>
</mgrwt>
</event>
<event>
 4    1  0.4880711E-008  0.8997313E+03  0.7818608E-02  0.9425917E-01
          2   -1    0    0  501    0  0.00000000000E+00  0.00000000000E+00  0.14876630624E+04  0.14876630624E+04  0.25500000000E-02 0. -1.
         -2   -1    0    0    0  501 -0.00000000000E+00 -0.00000000000E+00 -0.91418612876E+03  0.91418612877E+03  0.25500000000E-02 0.  1.
    8880022    1    1    2    0    0 -0.84988098884E+03 -0.25264020903E+03  0.10507830276E+04  0.13833515079E+04  0.15294330000E+03 0. -1.
    8880022    1    1    2    0    0  0.84988098884E+03  0.25264020903E+03 -0.47730609395E+03  0.10184976832E+04  0.15294330000E+03 0.  0.
<mgrwt>
<rscale>  0 0.89973131E+03</rscale>
<asrwt>0</asrwt>
<pdfrwt beam="1">  1        2 0.22887124E+00 0.89973131E+03</pdfrwt>
<pdfrwt beam="2">  1       -2 0.14064402E+00 0.89973131E+03</pdfrwt>
<totfact> 0.45998584E+00</totfact>
</mgrwt>
</event>
<event>
 4    1  0.4880711E-008  0.4975102E+03  0.7818608E-02  0.1014431E+00
         -2   -1    0    0    0  501 -0.00000000000E+00  0.00000000000E+00  0.20241959137E+03  0.20241959138E+03  0.25500000000E-02 0.  1.
          2   -1    0    0  501    0  0.00000000000E+00 -0.00000000000E+00 -0.21559316834E+04  0.21559316834E+04  0.25500000000E-02 0. -1.
    8880022    1    1    2    0    0 -0.39248275122E+03 -0.26473011258E+03 -0.20098227815E+03  0.53657270864E+03  0.15294330000E+03 0.  0.
    8880022    1    1    2    0    0  0.39248275122E+03  0.26473011258E+03 -0.17525298139E+04  0.18217785661E+04  0.15294330000E+03 0. -1.
<mgrwt>
<rscale>  0 0.49751020E+03</rscale>
<asrwt>0</asrwt>
<pdfrwt beam="1">  1        2 0.33168178E+00 0.49751020E+03</pdfrwt>
<pdfrwt beam="2">  1       -2 0.31141477E-01 0.49751020E+03</pdfrwt>
<totfact> 0.56044069E+01</totfact>
</mgrwt>
</event>
<event>
 4    1  0.4880711E-008  0.7061123E+03  0.7818608E-02  0.9706836E-01
          2   -1    0    0  501    0  0.00000000000E+00  0.00000000000E+00  0.75277982812E+03  0.75277982813E+03  0.25500000000E-02 0. -1.
         -2   -1    0    0    0  501 -0.00000000000E+00 -0.00000000000E+00 -0.80165337967E+03  0.80165337968E+03  0.25500000000E-02 0.  1.
    8880022    1    1    2    0    0 -0.49313203384E+03 -0.48168845717E+03 -0.34843931378E+03  0.78740369632E+03  0.15294330000E+03 0.  1.
    8880022    1    1    2    0    0  0.49313203384E+03  0.48168845717E+03  0.29956576223E+03  0.76702951149E+03  0.15294330000E+03 0.  0.
<mgrwt>
<rscale>  0 0.70611233E+03</rscale>
<asrwt>0</asrwt>
<pdfrwt beam="1">  1        2 0.11581228E+00 0.70611233E+03</pdfrwt>
<pdfrwt beam="2">  1       -2 0.12333129E+00 0.70611233E+03</pdfrwt>
<totfact> 0.18855531E+01</totfact>
</mgrwt>
</event>
<event>
 4    1  0.4880711E-008  0.4884544E+03  0.7818608E-02  0.1016837E+00
         -2   -1    0    0    0  501 -0.00000000000E+00  0.00000000000E+00  0.21808502157E+03  0.21808502159E+03  0.25500000000E-02 0.  1.
          2   -1    0    0  501    0  0.00000000000E+00 -0.00000000000E+00 -0.21954777946E+04  0.21954777946E+04  0.25500000000E-02 0. -1.
    8880022    1    1    2    0    0 -0.44812940087E+02  0.46172265625E+03 -0.13392581106E+03  0.50648177339E+03  0.15294330000E+03 0.  0.
    8880022    1    1    2    0    0  0.44812940087E+02 -0.46172265625E+03 -0.18434669619E+04  0.19070810428E+04  0.15294330000E+03 0.  0.
<mgrwt>
<rscale>  0 0.48845436E+03</rscale>
<asrwt>0</asrwt>
<pdfrwt beam="1">  1        2 0.33776580E+00 0.48845436E+03</pdfrwt>
<pdfrwt beam="2">  1       -2 0.33551543E-01 0.48845436E+03</pdfrwt>
<totfact> 0.46495966E+01</totfact>
</mgrwt>
</event>
<event>
 4    1  0.4880711E-008  0.4174034E+03  0.7818608E-02  0.1037915E+00
          2   -1    0    0  501    0  0.00000000000E+00  0.00000000000E+00  0.41702985847E+04  0.41702985847E+04  0.25500000000E-02 0. -1.
         -2   -1    0    0    0  501 -0.00000000000E+00 -0.00000000000E+00 -0.12634696013E+03  0.12634696015E+03  0.25500000000E-02 0.  1.
    8880022    1    1    2    0    0  0.28471231565E+03  0.26414552319E+03  0.37795890663E+04  0.38025674384E+04  0.15294330000E+03 0.  0.
    8880022    1    1    2    0    0 -0.28471231565E+03 -0.26414552319E+03  0.26436255830E+03  0.49407810652E+03  0.15294330000E+03 0.  0.
<mgrwt>
<rscale>  0 0.41740342E+03</rscale>
<asrwt>0</asrwt>
<pdfrwt beam="1">  1        2 0.64158447E+00 0.41740342E+03</pdfrwt>
<pdfrwt beam="2">  1       -2 0.19437992E-01 0.41740342E+03</pdfrwt>
<totfact> 0.67801589E+00</totfact>
</mgrwt>
</event>
<event>
 4    1  0.4880711E-008  0.6661089E+03  0.7818608E-02  0.9777013E-01
          2   -1    0    0  501    0  0.00000000000E+00  0.00000000000E+00  0.16342623585E+04  0.16342623585E+04  0.25500000000E-02 0. -1.
         -2   -1    0    0    0  501 -0.00000000000E+00 -0.00000000000E+00 -0.30364073900E+03  0.30364073901E+03  0.25500000000E-02 0.  1.
    8880022    1    1    2    0    0 -0.51881154157E+03  0.38877248095E+03  0.98056044982E+03  0.11854112815E+04  0.15294330000E+03 0.  0.
    8880022    1    1    2    0    0  0.51881154157E+03 -0.38877248095E+03  0.35006116969E+03  0.75249181600E+03  0.15294330000E+03 0.  0.
<mgrwt>
<rscale>  0 0.66610893E+03</rscale>
<asrwt>0</asrwt>
<pdfrwt beam="1">  1        2 0.25142498E+00 0.66610893E+03</pdfrwt>
<pdfrwt beam="2">  1       -2 0.46713960E-01 0.66610893E+03</pdfrwt>
<totfact> 0.47933346E+01</totfact>
</mgrwt>
</event>
<event>
 4    1  0.4880711E-008  0.7443152E+03  0.7818608E-02  0.9644311E-01
         -2   -1    0    0    0  501 -0.00000000000E+00  0.00000000000E+00  0.10553465569E+04  0.10553465569E+04  0.25500000000E-02 0.  1.
          2   -1    0    0  501    0  0.00000000000E+00 -0.00000000000E+00 -0.10702659108E+04  0.10702659108E+04  0.25500000000E-02 0. -1.
    8880022    1    1    2    0    0  0.45837674507E+03  0.56613089117E+03  0.75117377695E+03  0.10574814999E+04  0.15294330000E+03 0.  0.
    8880022    1    1    2    0    0 -0.45837674507E+03 -0.56613089117E+03 -0.76609313080E+03  0.10681309678E+04  0.15294330000E+03 0.  0.
<mgrwt>
<rscale>  0 0.74431517E+03</rscale>
<asrwt>0</asrwt>
<pdfrwt beam="1">  1        2 0.16465629E+00 0.74431517E+03</pdfrwt>
<pdfrwt beam="2">  1       -2 0.16236101E+00 0.74431517E+03</pdfrwt>
<totfact> 0.56181640E+00</totfact>
</mgrwt>
</event>
<event>
 4    1  0.4880711E-008  0.3681734E+03  0.7818608E-02  0.1055394E+00
         -2   -1    0    0    0  501 -0.00000000000E+00  0.00000000000E+00  0.28275162861E+03  0.28275162862E+03  0.25500000000E-02 0.  1.
          2   -1    0    0  501    0  0.00000000000E+00 -0.00000000000E+00 -0.14245889313E+04  0.14245889313E+04  0.25500000000E-02 0. -1.
    8880022    1    1    2    0    0  0.13677083728E+03 -0.30570198692E+03 -0.12662699906E+04  0.13187081970E+04  0.15294330000E+03 0. -1.
    8880022    1    1    2    0    0 -0.13677083728E+03  0.30570198692E+03  0.12443268784E+03  0.38863236298E+03  0.15294330000E+03 0.  0.
<mgrwt>
<rscale>  0 0.36817336E+03</rscale>
<asrwt>0</asrwt>
<pdfrwt beam="1">  1        2 0.21916752E+00 0.36817336E+03</pdfrwt>
<pdfrwt beam="2">  1       -2 0.43500252E-01 0.36817336E+03</pdfrwt>
<totfact> 0.75266631E+01</totfact>
</mgrwt>
</event>
<event>
 4    1  0.4880711E-008  0.4762220E+03  0.7818608E-02  0.1020179E+00
          2   -1    0    0  501    0  0.00000000000E+00  0.00000000000E+00  0.70917715090E+03  0.70917715090E+03  0.25500000000E-02 0. -1.
         -2   -1    0    0    0  501 -0.00000000000E+00 -0.00000000000E+00 -0.15148851875E+04  0.15148851875E+04  0.25500000000E-02 0.  1.
    8880022    1    1    2    0    0  0.64227607467E+02 -0.44639735653E+03 -0.13905617017E+04  0.14698466875E+04  0.15294330000E+03 0.  1.
    8880022    1    1    2    0    0 -0.64227607467E+02  0.44639735653E+03  0.58485366510E+03  0.75421565091E+03  0.15294330000E+03 0.  0.
<mgrwt>
<rscale>  0 0.47622205E+03</rscale>
<asrwt>0</asrwt>
<pdfrwt beam="1">  1        2 0.10910418E+00 0.47622205E+03</pdfrwt>
<pdfrwt beam="2">  1       -2 0.23305926E+00 0.47622205E+03</pdfrwt>
<totfact> 0.35569955E+00</totfact>
</mgrwt>
</event>
<event>
 4    1  0.4880711E-008  0.6026217E+03  0.7818608E-02  0.9899982E-01
          2   -1    0    0  501    0  0.00000000000E+00  0.00000000000E+00  0.11590945748E+04  0.11590945748E+04  0.25500000000E-02 0. -1.
         -2   -1    0    0    0  501 -0.00000000000E+00 -0.00000000000E+00 -0.49263892443E+03  0.49263892444E+03  0.25500000000E-02 0.  1.
    8880022    1    1    2    0    0  0.16467751381E+03 -0.55914448606E+03 -0.16505274769E+03  0.62481621488E+03  0.15294330000E+03 0.  0.
    8880022    1    1    2    0    0 -0.16467751381E+03  0.55914448606E+03  0.83150839803E+03  0.10269172843E+04  0.15294330000E+03 0.  0.
<mgrwt>
<rscale>  0 0.60262168E+03</rscale>
<asrwt>0</asrwt>
<pdfrwt beam="1">  1        2 0.17832224E+00 0.60262168E+03</pdfrwt>
<pdfrwt beam="2">  1       -2 0.75790603E-01 0.60262168E+03</pdfrwt>
<totfact> 0.32371477E+01</totfact>
</mgrwt>
</event>
<event>
 4    1  0.7415955E-008  0.7240719E+03  0.7818608E-02  0.9676929E-01
         -2   -1    0    0    0  501 -0.00000000000E+00  0.00000000000E+00  0.12555735047E+04  0.12555735047E+04  0.25500000000E-02 0.  1.
          2   -1    0    0  501    0  0.00000000000E+00 -0.00000000000E+00 -0.11705455080E+04  0.11705455080E+04  0.25500000000E-02 0. -1.
    8880022    1    1    2    0    0 -0.69664506052E+03  0.12479608009E+03 -0.93041382677E+03  0.11789613836E+04  0.15294330000E+03 0.  0.
    8880022    1    1    2    0    0  0.69664506052E+03 -0.12479608009E+03  0.10154418235E+04  0.12471576291E+04  0.15294330000E+03 0.  0.
<mgrwt>
<rscale>  0 0.72407186E+03</rscale>
<asrwt>0</asrwt>
<pdfrwt beam="1">  1        2 0.18008393E+00 0.72407186E+03</pdfrwt>
<pdfrwt beam="2">  1       -2 0.19316515E+00 0.72407186E+03</pdfrwt>
<totfact> 0.29989875E+00</totfact>
</mgrwt>
</event>
<event>
 4    1  0.4880711E-008  0.7037013E+03  0.7818608E-02  0.9710923E-01
          2   -1    0    0  501    0  0.00000000000E+00  0.00000000000E+00  0.55376010456E+03  0.55376010456E+03  0.25500000000E-02 0. -1.
         -2   -1    0    0    0  501 -0.00000000000E+00 -0.00000000000E+00 -0.10977764510E+04  0.10977764510E+04  0.25500000000E-02 0.  1.
    8880022    1    1    2    0    0 -0.40370801589E+02 -0.68569237306E+03 -0.62757424808E+03  0.94289178698E+03  0.15294330000E+03 0.  0.
    8880022    1    1    2    0    0  0.40370801589E+02  0.68569237306E+03  0.83557901643E+02  0.70864476858E+03  0.15294330000E+03 0.  0.
<mgrwt>
<rscale>  0 0.70370128E+03</rscale>
<asrwt>0</asrwt>
<pdfrwt beam="1">  1        2 0.85193862E-01 0.70370128E+03</pdfrwt>
<pdfrwt beam="2">  1       -2 0.16888868E+00 0.70370128E+03</pdfrwt>
<totfact> 0.12097994E+01</totfact>
</mgrwt>
</event>
<event>
 4    1  0.4880711E-008  0.6865290E+03  0.7818608E-02  0.9740551E-01
          2   -1    0    0  501    0  0.00000000000E+00  0.00000000000E+00  0.11565839732E+04  0.11565839732E+04  0.25500000000E-02 0. -1.
         -2   -1    0    0    0  501 -0.00000000000E+00 -0.00000000000E+00 -0.43092058084E+03  0.43092058085E+03  0.25500000000E-02 0.  1.
    8880022    1    1    2    0    0 -0.51782229492E+03 -0.42401703483E+03  0.54783201038E+03  0.87831767576E+03  0.15294330000E+03 0.  0.
    8880022    1    1    2    0    0  0.51782229492E+03  0.42401703483E+03  0.17783138200E+03  0.70918687832E+03  0.15294330000E+03 0.  0.
<mgrwt>
<rscale>  0 0.68652897E+03</rscale>
<asrwt>0</asrwt>
<pdfrwt beam="1">  1        2 0.17793600E+00 0.68652897E+03</pdfrwt>
<pdfrwt beam="2">  1       -2 0.66295473E-01 0.68652897E+03</pdfrwt>
<totfact> 0.43097459E+01</totfact>
</mgrwt>
</event>
<event>
 4    1  0.4880711E-008  0.1177805E+04  0.7818608E-02  0.9132509E-01
         -2   -1    0    0    0  501 -0.00000000000E+00  0.00000000000E+00  0.16672238375E+04  0.16672238375E+04  0.25500000000E-02 0.  1.
          2   -1    0    0  501    0  0.00000000000E+00 -0.00000000000E+00 -0.95871676668E+03  0.95871676668E+03  0.25500000000E-02 0. -1.
    8880022    1    1    2    0    0 -0.10497973530E+04 -0.51162285673E+03  0.83148635046E+03  0.14417328580E+04  0.15294330000E+03 0.  0.
    8880022    1    1    2    0    0  0.10497973530E+04  0.51162285673E+03 -0.12297927963E+03  0.11842077462E+04  0.15294330000E+03 0.  0.
<mgrwt>
<rscale>  0 0.11778048E+04</rscale>
<asrwt>0</asrwt>
<pdfrwt beam="1">  1        2 0.14749489E+00 0.11778048E+04</pdfrwt>
<pdfrwt beam="2">  1       -2 0.25649597E+00 0.11778048E+04</pdfrwt>
<totfact> 0.15350979E+00</totfact>
</mgrwt>
</event>
<event>
 4    1  0.4880711E-008  0.4261434E+03  0.7818608E-02  0.1035085E+00
          2   -1    0    0  501    0  0.00000000000E+00  0.00000000000E+00  0.13301959333E+04  0.13301959333E+04  0.25500000000E-02 0. -1.
         -2   -1    0    0    0  501 -0.00000000000E+00 -0.00000000000E+00 -0.30900851291E+03  0.30900851292E+03  0.25500000000E-02 0.  1.
    8880022    1    1    2    0    0 -0.12036264774E+03 -0.37910338235E+03  0.11229414805E+04  0.12010810810E+04  0.15294330000E+03 0.  0.
    8880022    1    1    2    0    0  0.12036264774E+03  0.37910338235E+03 -0.10175406003E+03  0.43812336531E+03  0.15294330000E+03 0.  0.
<mgrwt>
<rscale>  0 0.42614340E+03</rscale>
<asrwt>0</asrwt>
<pdfrwt beam="1">  1        2 0.20464553E+00 0.42614340E+03</pdfrwt>
<pdfrwt beam="2">  1       -2 0.47539771E-01 0.42614340E+03</pdfrwt>
<totfact> 0.70504755E+01</totfact>
</mgrwt>
</event>
<event>
 4    1  0.4880711E-008  0.8344982E+03  0.7818608E-02  0.9511382E-01
         -2   -1    0    0    0  501 -0.00000000000E+00  0.00000000000E+00  0.22060093660E+03  0.22060093661E+03  0.25500000000E-02 0.  1.
          2   -1    0    0  501    0  0.00000000000E+00 -0.00000000000E+00 -0.31593086733E+04  0.31593086733E+04  0.25500000000E-02 0. -1.
    8880022    1    1    2    0    0 -0.60767150260E+03 -0.55111795620E+03 -0.14214868165E+04  0.16483361548E+04  0.15294330000E+03 0.  0.
    8880022    1    1    2    0    0  0.60767150260E+03  0.55111795620E+03 -0.15172209202E+04  0.17315734551E+04  0.15294330000E+03 0.  0.
<mgrwt>
<rscale>  0 0.83449824E+03</rscale>
<asrwt>0</asrwt>
<pdfrwt beam="1">  1        2 0.48604745E+00 0.83449824E+03</pdfrwt>
<pdfrwt beam="2">  1       -2 0.33938608E-01 0.83449824E+03</pdfrwt>
<totfact> 0.11778699E+01</totfact>
</mgrwt>
</event>
<event>
 4    1  0.4880711E-008  0.5894544E+03  0.7818608E-02  0.9927530E-01
         -2   -1    0    0    0  501 -0.00000000000E+00  0.00000000000E+00  0.17544988820E+03  0.17544988822E+03  0.25500000000E-02 0.  1.
          2   -1    0    0  501    0  0.00000000000E+00 -0.00000000000E+00 -0.32412047498E+04  0.32412047498E+04  0.25500000000E-02 0. -1.
    8880022    1    1    2    0    0 -0.51010238105E+03  0.25270616961E+03 -0.46739535722E+03  0.75227316866E+03  0.15294330000E+03 0.  1.
    8880022    1    1    2    0    0  0.51010238105E+03 -0.25270616961E+03 -0.25983595043E+04  0.26643814693E+04  0.15294330000E+03 0.  0.
<mgrwt>
<rscale>  0 0.58945441E+03</rscale>
<asrwt>0</asrwt>
<pdfrwt beam="1">  1        2 0.49864684E+00 0.58945441E+03</pdfrwt>
<pdfrwt beam="2">  1       -2 0.26992293E-01 0.58945441E+03</pdfrwt>
<totfact> 0.16746435E+01</totfact>
</mgrwt>
</event>
<event>
 4    1  0.4880711E-008  0.3745225E+03  0.7818608E-02  0.1052977E+00
         -2   -1    0    0    0  501 -0.00000000000E+00  0.00000000000E+00  0.16419931860E+03  0.16419931862E+03  0.25500000000E-02 0.  1.
          2   -1    0    0  501    0  0.00000000000E+00 -0.00000000000E+00 -0.14827383822E+04  0.14827383822E+04  0.25500000000E-02 0. -1.
    8880022    1    1    2    0    0 -0.27362122622E+03  0.20495582507E+03 -0.11953918067E+04  0.12526885847E+04  0.15294330000E+03 0.  0.
    8880022    1    1    2    0    0  0.27362122622E+03 -0.20495582507E+03 -0.12314725688E+03  0.39424911612E+03  0.15294330000E+03 0.  0.
<mgrwt>
<rscale>  0 0.37452252E+03</rscale>
<asrwt>0</asrwt>
<pdfrwt beam="1">  1        2 0.22811359E+00 0.37452252E+03</pdfrwt>
<pdfrwt beam="2">  1       -2 0.25261435E-01 0.37452252E+03</pdfrwt>
<totfact> 0.19277573E+02</totfact>
</mgrwt>
</event>
<event>
 4    1  0.4880711E-008  0.3377514E+03  0.7818608E-02  0.1067758E+00
         -2   -1    0    0    0  501 -0.00000000000E+00  0.00000000000E+00  0.12803299043E+04  0.12803299043E+04  0.25500000000E-02 0.  1.
          2   -1    0    0  501    0  0.00000000000E+00 -0.00000000000E+00 -0.48320054646E+03  0.48320054647E+03  0.25500000000E-02 0. -1.
    8880022    1    1    2    0    0  0.15142689746E+03  0.26029643398E+03  0.11948952363E+04  0.12417127758E+04  0.15294330000E+03 0.  0.
    8880022    1    1    2    0    0 -0.15142689746E+03 -0.26029643398E+03 -0.39776587847E+03  0.52181767497E+03  0.15294330000E+03 0.  0.
<mgrwt>
<rscale>  0 0.33775138E+03</rscale>
<asrwt>0</asrwt>
<pdfrwt beam="1">  1        2 0.74338546E-01 0.33775138E+03</pdfrwt>
<pdfrwt beam="2">  1       -2 0.19697383E+00 0.33775138E+03</pdfrwt>
<totfact> 0.96975085E+00</totfact>
</mgrwt>
</event>
<event>
 4    1  0.4880711E-008  0.2214360E+03  0.7818608E-02  0.1132817E+00
         -2   -1    0    0    0  501 -0.00000000000E+00  0.00000000000E+00  0.50767500995E+02  0.50767501059E+02  0.25500000000E-02 0.  1.
          2   -1    0    0  501    0  0.00000000000E+00 -0.00000000000E+00 -0.18552121618E+04  0.18552121618E+04  0.25500000000E-02 0. -1.
    8880022    1    1    2    0    0  0.13615768996E+03  0.84281375419E+02 -0.15620494773E+04  0.15776667865E+04  0.15294330000E+03 0. -1.
    8880022    1    1    2    0    0 -0.13615768996E+03 -0.84281375419E+02 -0.24239518359E+03  0.32831287641E+03  0.15294330000E+03 0.  1.
<mgrwt>
<rscale>  0 0.22143604E+03</rscale>
<asrwt>0</asrwt>
<pdfrwt beam="1">  1        2 0.28541720E+00 0.22143604E+03</pdfrwt>
<pdfrwt beam="2">  1       -2 0.78103862E-02 0.22143604E+03</pdfrwt>
<totfact> 0.87557993E+02</totfact>
</mgrwt>
</event>
<event>
 4    1  0.4880711E-008  0.7108955E+03  0.7818608E-02  0.9698779E-01
          2   -1    0    0  501    0  0.00000000000E+00  0.00000000000E+00  0.17315373427E+04  0.17315373427E+04  0.25500000000E-02 0. -1.
         -2   -1    0    0    0  501 -0.00000000000E+00 -0.00000000000E+00 -0.91722333833E+03  0.91722333833E+03  0.25500000000E-02 0.  1.
    8880022    1    1    2    0    0 -0.15085795327E+03  0.67765965502E+03 -0.68639692275E+03  0.98818678329E+03  0.15294330000E+03 0.  0.
    8880022    1    1    2    0    0  0.15085795327E+03 -0.67765965502E+03  0.15007109271E+04  0.16605738978E+04  0.15294330000E+03 0. -1.
<mgrwt>
<rscale>  0 0.71089548E+03</rscale>
<asrwt>0</asrwt>
<pdfrwt beam="1">  1        2 0.26639036E+00 0.71089548E+03</pdfrwt>
<pdfrwt beam="2">  1       -2 0.14111128E+00 0.71089548E+03</pdfrwt>
<totfact> 0.34390367E+00</totfact>
</mgrwt>
</event>
<event>
 4    1  0.4880711E-008  0.4175129E+03  0.7818608E-02  0.1037879E+00
         -2   -1    0    0    0  501 -0.00000000000E+00  0.00000000000E+00  0.37697180892E+03  0.37697180893E+03  0.25500000000E-02 0.  1.
          2   -1    0    0  501    0  0.00000000000E+00 -0.00000000000E+00 -0.34873610818E+04  0.34873610818E+04  0.25500000000E-02 0. -1.
    8880022    1    1    2    0    0 -0.27162766506E+03  0.27774769016E+03 -0.33547075694E+04  0.33805886909E+04  0.15294330000E+03 0.  0.
    8880022    1    1    2    0    0  0.27162766506E+03 -0.27774769016E+03  0.24431829653E+03  0.48374419982E+03  0.15294330000E+03 0.  0.
<mgrwt>
<rscale>  0 0.41751290E+03</rscale>
<asrwt>0</asrwt>
<pdfrwt beam="1">  1        2 0.53651707E+00 0.41751290E+03</pdfrwt>
<pdfrwt beam="2">  1       -2 0.57995665E-01 0.41751290E+03</pdfrwt>
<totfact> 0.27672180E+00</totfact>
</mgrwt>
</event>
<event>
 4    1  0.4880711E-008  0.4077582E+03  0.7818608E-02  0.1041126E+00
         -2   -1    0    0    0  501 -0.00000000000E+00  0.00000000000E+00  0.22770331722E+03  0.22770331724E+03  0.25500000000E-02 0.  1.
          2   -1    0    0  501    0  0.00000000000E+00 -0.00000000000E+00 -0.19677607604E+04  0.19677607604E+04  0.25500000000E-02 0. -1.
    8880022    1    1    2    0    0  0.63357555865E+02  0.37264048145E+03  0.52415158628E+00  0.40775855117E+03  0.15294330000E+03 0.  0.
    8880022    1    1    2    0    0 -0.63357555865E+02 -0.37264048145E+03 -0.17405815948E+04  0.17877055265E+04  0.15294330000E+03 0.  0.
<mgrwt>
<rscale>  0 0.40775821E+03</rscale>
<asrwt>0</asrwt>
<pdfrwt beam="1">  1        2 0.30273241E+00 0.40775821E+03</pdfrwt>
<pdfrwt beam="2">  1       -2 0.35031281E-01 0.40775821E+03</pdfrwt>
<totfact> 0.57812007E+01</totfact>
</mgrwt>
</event>
<event>
 4    1  0.4880711E-008  0.2486839E+03  0.7818608E-02  0.1114139E+00
         -2   -1    0    0    0  501 -0.00000000000E+00  0.00000000000E+00  0.47824313751E+03  0.47824313752E+03  0.25500000000E-02 0.  1.
          2   -1    0    0  501    0  0.00000000000E+00 -0.00000000000E+00 -0.59463226520E+03  0.59463226521E+03  0.25500000000E-02 0. -1.
    8880022    1    1    2    0    0 -0.10215801306E+02  0.19582563404E+03 -0.53273142158E+03  0.58791705375E+03  0.15294330000E+03 0.  0.
    8880022    1    1    2    0    0  0.10215801306E+02 -0.19582563404E+03  0.41634229389E+03  0.48495834897E+03  0.15294330000E+03 0.  0.
<mgrwt>
<rscale>  0 0.24868393E+03</rscale>
<asrwt>0</asrwt>
<pdfrwt beam="1">  1        2 0.91481886E-01 0.24868393E+03</pdfrwt>
<pdfrwt beam="2">  1       -2 0.73575868E-01 0.24868393E+03</pdfrwt>
<totfact> 0.88694136E+01</totfact>
</mgrwt>
</event>
<event>
 4    1  0.4880711E-008  0.1338592E+04  0.7818608E-02  0.8999509E-01
         -2   -1    0    0    0  501 -0.00000000000E+00  0.00000000000E+00  0.96837433629E+03  0.96837433629E+03  0.25500000000E-02 0.  1.
          2   -1    0    0  501    0  0.00000000000E+00 -0.00000000000E+00 -0.23373905192E+04  0.23373905192E+04  0.25500000000E-02 0. -1.
    8880022    1    1    2    0    0 -0.58995813975E+03  0.11917996795E+04 -0.14390096158E+04  0.19653440945E+04  0.15294330000E+03 0.  0.
    8880022    1    1    2    0    0  0.58995813975E+03 -0.11917996795E+04  0.69993432892E+02  0.13404207609E+04  0.15294330000E+03 0.  0.
<mgrwt>
<rscale>  0 0.13385921E+04</rscale>
<asrwt>0</asrwt>
<pdfrwt beam="1">  1        2 0.35959854E+00 0.13385921E+04</pdfrwt>
<pdfrwt beam="2">  1       -2 0.14898067E+00 0.13385921E+04</pdfrwt>
<totfact> 0.12650290E+00</totfact>
</mgrwt>
</event>
<event>
 4    1  0.4880711E-008  0.1588747E+03  0.7818608E-02  0.1189973E+00
         -2   -1    0    0    0  501 -0.00000000000E+00  0.00000000000E+00  0.15446138438E+02  0.15446138648E+02  0.25500000000E-02 0.  1.
          2   -1    0    0  501    0  0.00000000000E+00 -0.00000000000E+00 -0.17244105239E+04  0.17244105239E+04  0.25500000000E-02 0. -1.
    8880022    1    1    2    0    0  0.37961798913E+02 -0.20209402491E+02 -0.65544544157E+03  0.67442560599E+03  0.15294330000E+03 0.  0.
    8880022    1    1    2    0    0 -0.37961798913E+02  0.20209402491E+02 -0.10535189439E+04  0.10654310565E+04  0.15294330000E+03 0.  1.
<mgrwt>
<rscale>  0 0.15887470E+03</rscale>
<asrwt>0</asrwt>
<pdfrwt beam="1">  1        2 0.26529377E+00 0.15887470E+03</pdfrwt>
<pdfrwt beam="2">  1       -2 0.23763304E-02 0.15887470E+03</pdfrwt>
<totfact> 0.61511196E+03</totfact>
</mgrwt>
</event>
<event>
 4    1  0.4880711E-008  0.7386933E+03  0.7818608E-02  0.9653258E-01
         -2   -1    0    0    0  501 -0.00000000000E+00  0.00000000000E+00  0.80198860186E+03  0.80198860186E+03  0.25500000000E-02 0.  1.
          2   -1    0    0  501    0  0.00000000000E+00 -0.00000000000E+00 -0.79804024073E+03  0.79804024073E+03  0.25500000000E-02 0. -1.
    8880022    1    1    2    0    0  0.61374081511E+03  0.38157346268E+03 -0.30519353076E+03  0.79925642931E+03  0.15294330000E+03 0.  0.
    8880022    1    1    2    0    0 -0.61374081511E+03 -0.38157346268E+03  0.30914189189E+03  0.80077241329E+03  0.15294330000E+03 0.  0.
<mgrwt>
<rscale>  0 0.73869327E+03</rscale>
<asrwt>0</asrwt>
<pdfrwt beam="1">  1        2 0.12277542E+00 0.73869327E+03</pdfrwt>
<pdfrwt beam="2">  1       -2 0.12338286E+00 0.73869327E+03</pdfrwt>
<totfact> 0.17393237E+01</totfact>
</mgrwt>
</event>
<event>
 4    1  0.4880711E-008  0.1874503E+03  0.7818608E-02  0.1160781E+00
         -2   -1    0    0    0  501 -0.00000000000E+00  0.00000000000E+00  0.25102325567E+03  0.25102325568E+03  0.25500000000E-02 0.  1.
          2   -1    0    0  501    0  0.00000000000E+00 -0.00000000000E+00 -0.40673188002E+03  0.40673188003E+03  0.25500000000E-02 0. -1.
    8880022    1    1    2    0    0 -0.69588520105E+01  0.10815514481E+03 -0.34419401105E+03  0.39192745659E+03  0.15294330000E+03 0. -1.
    8880022    1    1    2    0    0  0.69588520105E+01 -0.10815514481E+03  0.18848538670E+03  0.26582767912E+03  0.15294330000E+03 0.  0.
<mgrwt>
<rscale>  0 0.18745030E+03</rscale>
<asrwt>0</asrwt>
<pdfrwt beam="1">  1        2 0.62574135E-01 0.18745030E+03</pdfrwt>
<pdfrwt beam="2">  1       -2 0.38618963E-01 0.18745030E+03</pdfrwt>
<totfact> 0.50268557E+02</totfact>
</mgrwt>
</event>
<event>
 4    1  0.4880711E-008  0.4557943E+03  0.7818608E-02  0.1026008E+00
          2   -1    0    0  501    0  0.00000000000E+00  0.00000000000E+00  0.28606102521E+03  0.28606102523E+03  0.25500000000E-02 0. -1.
         -2   -1    0    0    0  501 -0.00000000000E+00 -0.00000000000E+00 -0.77134964593E+03  0.77134964593E+03  0.25500000000E-02 0.  1.
    8880022    1    1    2    0    0 -0.42935316240E+03  0.35509585620E+01 -0.11478505833E+03  0.47002554186E+03  0.15294330000E+03 0. -1.
    8880022    1    1    2    0    0  0.42935316240E+03 -0.35509585620E+01 -0.37050356238E+03  0.58738512930E+03  0.15294330000E+03 0.  1.
<mgrwt>
<rscale>  0 0.45579425E+03</rscale>
<asrwt>0</asrwt>
<pdfrwt beam="1">  1        2 0.44009389E-01 0.45579425E+03</pdfrwt>
<pdfrwt beam="2">  1       -2 0.11866918E+00 0.45579425E+03</pdfrwt>
<totfact> 0.65077458E+01</totfact>
</mgrwt>
</event>
<event>
 4    1  0.4880711E-008  0.2854177E+03  0.7818608E-02  0.1092766E+00
         -2   -1    0    0    0  501 -0.00000000000E+00  0.00000000000E+00  0.30248324659E+02  0.30248324767E+02  0.25500000000E-02 0.  1.
          2   -1    0    0  501    0  0.00000000000E+00 -0.00000000000E+00 -0.29317833605E+04  0.29317833605E+04  0.25500000000E-02 0. -1.
    8880022    1    1    2    0    0  0.19934848908E+03 -0.13539485142E+03 -0.10282346941E+04  0.10671128455E+04  0.15294330000E+03 0.  0.
    8880022    1    1    2    0    0 -0.19934848908E+03  0.13539485142E+03 -0.18733003417E+04  0.18949188397E+04  0.15294330000E+03 0.  0.
<mgrwt>
<rscale>  0 0.28541766E+03</rscale>
<asrwt>0</asrwt>
<pdfrwt beam="1">  1        2 0.45104337E+00 0.28541766E+03</pdfrwt>
<pdfrwt beam="2">  1       -2 0.46535908E-02 0.28541766E+03</pdfrwt>
<totfact> 0.49771660E+02</totfact>
</mgrwt>
</event>
<event>
 4    1  0.4880711E-008  0.7960694E+03  0.7818608E-02  0.9565724E-01
         -2   -1    0    0    0  501 -0.00000000000E+00  0.00000000000E+00  0.74550926491E+03  0.74550926492E+03  0.25500000000E-02 0.  1.
          2   -1    0    0  501    0  0.00000000000E+00 -0.00000000000E+00 -0.11547788949E+04  0.11547788949E+04  0.25500000000E-02 0. -1.
    8880022    1    1    2    0    0 -0.42314176812E+03  0.65672356254E+03 -0.69271463079E+03  0.10552630034E+04  0.15294330000E+03 0.  0.
    8880022    1    1    2    0    0  0.42314176812E+03 -0.65672356254E+03  0.28344500082E+03  0.84502515645E+03  0.15294330000E+03 0.  0.
<mgrwt>
<rscale>  0 0.79606937E+03</rscale>
<asrwt>0</asrwt>
<pdfrwt beam="1">  1        2 0.17765829E+00 0.79606937E+03</pdfrwt>
<pdfrwt beam="2">  1       -2 0.11469373E+00 0.79606937E+03</pdfrwt>
<totfact> 0.12131066E+01</totfact>
</mgrwt>
</event>
<event>
 4    1  0.4880711E-008  0.1040142E+04  0.7818608E-02  0.9265582E-01
          2   -1    0    0  501    0  0.00000000000E+00  0.00000000000E+00  0.12118912687E+04  0.12118912687E+04  0.25500000000E-02 0. -1.
         -2   -1    0    0    0  501 -0.00000000000E+00 -0.00000000000E+00 -0.17094625681E+04  0.17094625681E+04  0.25500000000E-02 0.  1.
    8880022    1    1    2    0    0 -0.67785670415E+03 -0.77395970419E+03  0.76084745631E+03  0.12887140256E+04  0.15294330000E+03 0.  0.
    8880022    1    1    2    0    0  0.67785670415E+03  0.77395970419E+03 -0.12584187557E+04  0.16326398111E+04  0.15294330000E+03 0.  0.
<mgrwt>
<rscale>  0 0.10401418E+04</rscale>
<asrwt>0</asrwt>
<pdfrwt beam="1">  1        2 0.18644481E+00 0.10401418E+04</pdfrwt>
<pdfrwt beam="2">  1       -2 0.26299424E+00 0.10401418E+04</pdfrwt>
<totfact> 0.98976695E-01</totfact>
</mgrwt>
</event>
<event>
 4    1  0.4880711E-008  0.7503382E+03  0.7818608E-02  0.9634820E-01
          2   -1    0    0  501    0  0.00000000000E+00  0.00000000000E+00  0.32013984192E+04  0.32013984192E+04  0.25500000000E-02 0. -1.
         -2   -1    0    0    0  501 -0.00000000000E+00 -0.00000000000E+00 -0.49415181161E+03  0.49415181162E+03  0.25500000000E-02 0.  1.
    8880022    1    1    2    0    0  0.30769196317E+03 -0.66703933402E+03  0.28365839193E+04  0.29341465202E+04  0.15294330000E+03 0.  0.
    8880022    1    1    2    0    0 -0.30769196317E+03  0.66703933402E+03 -0.12933731177E+03  0.76140371063E+03  0.15294330000E+03 0.  0.
<mgrwt>
<rscale>  0 0.75033824E+03</rscale>
<asrwt>0</asrwt>
<pdfrwt beam="1">  1        2 0.49252283E+00 0.75033824E+03</pdfrwt>
<pdfrwt beam="2">  1       -2 0.76023356E-01 0.75033824E+03</pdfrwt>
<totfact> 0.21554404E+00</totfact>
</mgrwt>
</event>
<event>
 4    1  0.4880711E-008  0.5838143E+03  0.7818608E-02  0.9939567E-01
          2   -1    0    0  501    0  0.00000000000E+00  0.00000000000E+00  0.14786629691E+04  0.14786629691E+04  0.25500000000E-02 0. -1.
         -2   -1    0    0    0  501 -0.00000000000E+00 -0.00000000000E+00 -0.53949471685E+03  0.53949471685E+03  0.25500000000E-02 0.  1.
    8880022    1    1    2    0    0 -0.35447638535E+03 -0.43794284271E+03  0.12332503271E+04  0.13644579376E+04  0.15294330000E+03 0.  0.
    8880022    1    1    2    0    0  0.35447638535E+03  0.43794284271E+03 -0.29408207482E+03  0.65369974835E+03  0.15294330000E+03 0.  1.
<mgrwt>
<rscale>  0 0.58381426E+03</rscale>
<asrwt>0</asrwt>
<pdfrwt beam="1">  1        2 0.22748661E+00 0.58381426E+03</pdfrwt>
<pdfrwt beam="2">  1       -2 0.82999189E-01 0.58381426E+03</pdfrwt>
<totfact> 0.17400241E+01</totfact>
</mgrwt>
</event>
<event>
 4    1  0.4880711E-008  0.3926140E+03  0.7818608E-02  0.1046368E+00
          2   -1    0    0  501    0  0.00000000000E+00  0.00000000000E+00  0.22187988762E+04  0.22187988762E+04  0.25500000000E-02 0. -1.
         -2   -1    0    0    0  501 -0.00000000000E+00 -0.00000000000E+00 -0.88897025487E+02  0.88897025524E+02  0.25500000000E-02 0.  1.
    8880022    1    1    2    0    0  0.35733456802E+03  0.55372415465E+02  0.16043111776E+04  0.16516537487E+04  0.15294330000E+03 0.  0.
    8880022    1    1    2    0    0 -0.35733456802E+03 -0.55372415465E+02  0.52559067304E+03  0.65604215299E+03  0.15294330000E+03 0.  0.
<mgrwt>
<rscale>  0 0.39261400E+03</rscale>
<asrwt>0</asrwt>
<pdfrwt beam="1">  1        2 0.34135368E+00 0.39261400E+03</pdfrwt>
<pdfrwt beam="2">  1       -2 0.13676465E-01 0.39261400E+03</pdfrwt>
<totfact> 0.22216063E+02</totfact>
</mgrwt>
</event>
<event>
 4    1  0.4880711E-008  0.1615272E+04  0.7818608E-02  0.8811220E-01
         -2   -1    0    0    0  501 -0.00000000000E+00  0.00000000000E+00  0.10105645896E+04  0.10105645896E+04  0.25500000000E-02 0.  1.
          2   -1    0    0  501    0  0.00000000000E+00 -0.00000000000E+00 -0.32241679303E+04  0.32241679303E+04  0.25500000000E-02 0. -1.
    8880022    1    1    2    0    0  0.55530472914E+03 -0.15090885188E+04 -0.20518845357E+04  0.26113853221E+04  0.15294330000E+03 0.  0.
    8880022    1    1    2    0    0 -0.55530472914E+03  0.15090885188E+04 -0.16171880495E+03  0.16233471978E+04  0.15294330000E+03 0.  0.
<mgrwt>
<rscale>  0 0.16152719E+04</rscale>
<asrwt>0</asrwt>
<pdfrwt beam="1">  1        2 0.49602583E+00 0.16152719E+04</pdfrwt>
<pdfrwt beam="2">  1       -2 0.15547148E+00 0.16152719E+04</pdfrwt>
<totfact> 0.31886185E-01</totfact>
</mgrwt>
</event>
<event>
 4    1  0.4880711E-008  0.6248442E+03  0.7818608E-02  0.9855162E-01
         -2   -1    0    0    0  501 -0.00000000000E+00  0.00000000000E+00  0.29783116385E+03  0.29783116386E+03  0.25500000000E-02 0.  1.
          2   -1    0    0  501    0  0.00000000000E+00 -0.00000000000E+00 -0.43332900786E+04  0.43332900786E+04  0.25500000000E-02 0. -1.
    8880022    1    1    2    0    0 -0.26791594032E+03 -0.54337800640E+03 -0.39515746890E+04  0.40006715417E+04  0.15294330000E+03 0.  0.
    8880022    1    1    2    0    0  0.26791594032E+03  0.54337800640E+03 -0.83884225825E+02  0.63044970083E+03  0.15294330000E+03 0.  0.
<mgrwt>
<rscale>  0 0.62484419E+03</rscale>
<asrwt>0</asrwt>
<pdfrwt beam="1">  1        2 0.66665997E+00 0.62484419E+03</pdfrwt>
<pdfrwt beam="2">  1       -2 0.45820182E-01 0.62484419E+03</pdfrwt>
<totfact> 0.93641768E-01</totfact>
</mgrwt>
</event>
<event>
 4    1  0.4880711E-008  0.8388968E+03  0.7818608E-02  0.9505362E-01
          2   -1    0    0  501    0  0.00000000000E+00  0.00000000000E+00  0.28962457484E+04  0.28962457484E+04  0.25500000000E-02 0. -1.
         -2   -1    0    0    0  501 -0.00000000000E+00 -0.00000000000E+00 -0.88059030609E+03  0.88059030610E+03  0.25500000000E-02 0.  1.
    8880022    1    1    2    0    0  0.66088353018E+03 -0.49354744763E+03  0.26147198997E+04  0.27459985306E+04  0.15294330000E+03 0.  0.
    8880022    1    1    2    0    0 -0.66088353018E+03  0.49354744763E+03 -0.59906445736E+03  0.10308375239E+04  0.15294330000E+03 0.  0.
<mgrwt>
<rscale>  0 0.83889676E+03</rscale>
<asrwt>0</asrwt>
<pdfrwt beam="1">  1        2 0.44557627E+00 0.83889676E+03</pdfrwt>
<pdfrwt beam="2">  1       -2 0.13547543E+00 0.83889676E+03</pdfrwt>
<totfact> 0.82525695E-01</totfact>
</mgrwt>
</event>
<event>
 4    1  0.4880711E-008  0.6784254E+03  0.7818608E-02  0.9754856E-01
         -2   -1    0    0    0  501 -0.00000000000E+00  0.00000000000E+00  0.92791851240E+03  0.92791851240E+03  0.25500000000E-02 0.  1.
          2   -1    0    0  501    0  0.00000000000E+00 -0.00000000000E+00 -0.17340309457E+04  0.17340309457E+04  0.25500000000E-02 0. -1.
    8880022    1    1    2    0    0 -0.86221903817E+02 -0.65531300832E+03 -0.15276731028E+04  0.16715400437E+04  0.15294330000E+03 0.  0.
    8880022    1    1    2    0    0  0.86221903817E+02  0.65531300832E+03  0.72156066945E+03  0.99040941448E+03  0.15294330000E+03 0.  0.
<mgrwt>
<rscale>  0 0.67842539E+03</rscale>
<asrwt>0</asrwt>
<pdfrwt beam="1">  1        2 0.26677399E+00 0.67842539E+03</pdfrwt>
<pdfrwt beam="2">  1       -2 0.14275669E+00 0.67842539E+03</pdfrwt>
<totfact> 0.33462076E+00</totfact>
</mgrwt>
</event>
<event>
 4    1  0.4880711E-008  0.4333379E+03  0.7818608E-02  0.1032811E+00
          2   -1    0    0  501    0  0.00000000000E+00  0.00000000000E+00  0.55200153972E+03  0.55200153973E+03  0.25500000000E-02 0. -1.
         -2   -1    0    0    0  501 -0.00000000000E+00 -0.00000000000E+00 -0.58138914428E+03  0.58138914429E+03  0.25500000000E-02 0.  1.
    8880022    1    1    2    0    0  0.22078390577E+03 -0.34006556342E+03  0.35032058758E+03  0.55723091046E+03  0.15294330000E+03 0.  0.
    8880022    1    1    2    0    0 -0.22078390577E+03  0.34006556342E+03 -0.37970819214E+03  0.57615977356E+03  0.15294330000E+03 0.  0.
<mgrwt>
<rscale>  0 0.43333794E+03</rscale>
<asrwt>0</asrwt>
<pdfrwt beam="1">  1        2 0.84923314E-01 0.43333794E+03</pdfrwt>
<pdfrwt beam="2">  1       -2 0.89444484E-01 0.43333794E+03</pdfrwt>
<totfact> 0.61062685E+01</totfact>
</mgrwt>
</event>
<event>
 4    1  0.4880711E-008  0.9171997E+03  0.7818608E-02  0.9404333E-01
          2   -1    0    0  501    0  0.00000000000E+00  0.00000000000E+00  0.31793549758E+04  0.31793549758E+04  0.25500000000E-02 0. -1.
         -2   -1    0    0    0  501 -0.00000000000E+00 -0.00000000000E+00 -0.66964149674E+03  0.66964149674E+03  0.25500000000E-02 0.  1.
    8880022    1    1    2    0    0 -0.70903703510E+03 -0.56136452230E+03 -0.24188351829E+03  0.94855834479E+03  0.15294330000E+03 0.  0.
    8880022    1    1    2    0    0  0.70903703510E+03  0.56136452230E+03  0.27515969974E+04  0.29004381278E+04  0.15294330000E+03 0.  0.
<mgrwt>
<rscale>  0 0.91719970E+03</rscale>
<asrwt>0</asrwt>
<pdfrwt beam="1">  1        2 0.48913154E+00 0.91719970E+03</pdfrwt>
<pdfrwt beam="2">  1       -2 0.10302177E+00 0.91719970E+03</pdfrwt>
<totfact> 0.10691648E+00</totfact>
</mgrwt>
</event>
<event>
 4    1  0.4880711E-008  0.4036906E+03  0.7818608E-02  0.1042509E+00
         -2   -1    0    0    0  501 -0.00000000000E+00  0.00000000000E+00  0.10071050594E+03  0.10071050597E+03  0.25500000000E-02 0.  1.
          2   -1    0    0  501    0  0.00000000000E+00 -0.00000000000E+00 -0.33344328593E+04  0.33344328593E+04  0.25500000000E-02 0. -1.
    8880022    1    1    2    0    0  0.37201207772E+03  0.34372173640E+02 -0.28491048061E+04  0.28775622116E+04  0.15294330000E+03 0.  0.
    8880022    1    1    2    0    0 -0.37201207772E+03 -0.34372173640E+02 -0.38461754727E+03  0.55758115371E+03  0.15294330000E+03 0.  0.
<mgrwt>
<rscale>  0 0.40369058E+03</rscale>
<asrwt>0</asrwt>
<pdfrwt beam="1">  1        2 0.51298959E+00 0.40369058E+03</pdfrwt>
<pdfrwt beam="2">  1       -2 0.15493927E-01 0.40369058E+03</pdfrwt>
<totfact> 0.40324652E+01</totfact>
</mgrwt>
</event>
<event>
 4    1  0.4880711E-008  0.4699947E+03  0.7818608E-02  0.1021922E+00
         -2   -1    0    0    0  501 -0.00000000000E+00  0.00000000000E+00  0.29666612222E+03  0.29666612223E+03  0.25500000000E-02 0.  1.
          2   -1    0    0  501    0  0.00000000000E+00 -0.00000000000E+00 -0.17475791684E+04  0.17475791684E+04  0.25500000000E-02 0. -1.
    8880022    1    1    2    0    0  0.10928765981E+03  0.43076620871E+03  0.48884826306E+02  0.47253010318E+03  0.15294330000E+03 0.  0.
    8880022    1    1    2    0    0 -0.10928765981E+03 -0.43076620871E+03 -0.14997978725E+04  0.15717151875E+04  0.15294330000E+03 0.  0.
<mgrwt>
<rscale>  0 0.46999465E+03</rscale>
<asrwt>0</asrwt>
<pdfrwt beam="1">  1        2 0.26885833E+00 0.46999465E+03</pdfrwt>
<pdfrwt beam="2">  1       -2 0.45640943E-01 0.46999465E+03</pdfrwt>
<totfact> 0.44896409E+01</totfact>
</mgrwt>
</event>
<event>
 4    1  0.4880711E-008  0.5430230E+03  0.7818608E-02  0.1003122E+00
          2   -1    0    0  501    0  0.00000000000E+00  0.00000000000E+00  0.26505881750E+04  0.26505881750E+04  0.25500000000E-02 0. -1.
         -2   -1    0    0    0  501 -0.00000000000E+00 -0.00000000000E+00 -0.16961775476E+03  0.16961775477E+03  0.25500000000E-02 0.  1.
    8880022    1    1    2    0    0 -0.43128950853E+03 -0.29235541279E+03  0.20676789024E+04  0.21377955992E+04  0.15294330000E+03 0.  0.
    8880022    1    1    2    0    0  0.43128950853E+03  0.29235541279E+03  0.41329151789E+03  0.68241033061E+03  0.15294330000E+03 0.  0.
<mgrwt>
<rscale>  0 0.54302300E+03</rscale>
<asrwt>0</asrwt>
<pdfrwt beam="1">  1        2 0.40778277E+00 0.54302300E+03</pdfrwt>
<pdfrwt beam="2">  1       -2 0.26095041E-01 0.54302300E+03</pdfrwt>
<totfact> 0.40787119E+01</totfact>
</mgrwt>
</event>
<event>
 4    1  0.4880711E-008  0.1570822E+03  0.7818608E-02  0.1192031E+00
         -2   -1    0    0    0  501 -0.00000000000E+00  0.00000000000E+00  0.26639906607E+03  0.26639906609E+03  0.25500000000E-02 0.  1.
          2   -1    0    0  501    0  0.00000000000E+00 -0.00000000000E+00 -0.19327332685E+03  0.19327332687E+03  0.25500000000E-02 0. -1.
    8880022    1    1    2    0    0 -0.32899117504E+02 -0.14170331410E+02  0.20242187901E+03  0.25622142834E+03  0.15294330000E+03 0.  1.
    8880022    1    1    2    0    0  0.32899117504E+02  0.14170331410E+02 -0.12929613978E+03  0.20345096461E+03  0.15294330000E+03 0.  0.
<mgrwt>
<rscale>  0 0.15708215E+03</rscale>
<asrwt>0</asrwt>
<pdfrwt beam="1">  1        2 0.29734358E-01 0.15708215E+03</pdfrwt>
<pdfrwt beam="2">  1       -2 0.40984472E-01 0.15708215E+03</pdfrwt>
<totfact> 0.99675511E+02</totfact>
</mgrwt>
</event>
<event>
 4    1  0.4880711E-008  0.1840813E+03  0.7818608E-02  0.1163911E+00
          2   -1    0    0  501    0  0.00000000000E+00  0.00000000000E+00  0.14023570149E+04  0.14023570149E+04  0.25500000000E-02 0. -1.
         -2   -1    0    0    0  501 -0.00000000000E+00 -0.00000000000E+00 -0.29347653347E+02  0.29347653458E+02  0.25500000000E-02 0.  1.
    8880022    1    1    2    0    0  0.77277521432E+02 -0.67249116335E+02  0.38563810940E+03  0.42732032880E+03  0.15294330000E+03 0.  0.
    8880022    1    1    2    0    0 -0.77277521432E+02  0.67249116335E+02  0.98737125212E+03  0.10043843395E+04  0.15294330000E+03 0. -1.
<mgrwt>
<rscale>  0 0.18408126E+03</rscale>
<asrwt>0</asrwt>
<pdfrwt beam="1">  1        2 0.21574720E+00 0.18408126E+03</pdfrwt>
<pdfrwt beam="2">  1       -2 0.45150243E-02 0.18408126E+03</pdfrwt>
<totfact> 0.35086152E+03</totfact>
</mgrwt>
</event>
<event>
 4    1  0.4880711E-008  0.2571298E+03  0.7818608E-02  0.1108880E+00
          2   -1    0    0  501    0  0.00000000000E+00  0.00000000000E+00  0.19712217554E+04  0.19712217554E+04  0.25500000000E-02 0. -1.
         -2   -1    0    0    0  501 -0.00000000000E+00 -0.00000000000E+00 -0.41119908006E+02  0.41119908085E+02  0.25500000000E-02 0.  1.
    8880022    1    1    2    0    0  0.16722453400E+03 -0.12149083597E+03  0.13970311966E+04  0.14204970557E+04  0.15294330000E+03 0.  0.
    8880022    1    1    2    0    0 -0.16722453400E+03  0.12149083597E+03  0.53307065073E+03  0.59184460771E+03  0.15294330000E+03 0.  0.
<mgrwt>
<rscale>  0 0.25712977E+03</rscale>
<asrwt>0</asrwt>
<pdfrwt beam="1">  1        2 0.30326491E+00 0.25712977E+03</pdfrwt>
<pdfrwt beam="2">  1       -2 0.63261392E-02 0.25712977E+03</pdfrwt>
<totfact> 0.10511322E+03</totfact>
</mgrwt>
</event>
<event>
 4    1  0.4880711E-008  0.1087951E+04  0.7818608E-02  0.9217016E-01
         -2   -1    0    0    0  501 -0.00000000000E+00  0.00000000000E+00  0.25514175756E+04  0.25514175756E+04  0.25500000000E-02 0.  1.
          2   -1    0    0  501    0  0.00000000000E+00 -0.00000000000E+00 -0.72221260132E+03  0.72221260132E+03  0.25500000000E-02 0. -1.
    8880022    1    1    2    0    0  0.82546932728E+03 -0.69198712333E+03 -0.64275156154E+02  0.10898480343E+04  0.15294330000E+03 0.  0.
    8880022    1    1    2    0    0 -0.82546932728E+03  0.69198712333E+03  0.18934801305E+04  0.21837821427E+04  0.15294330000E+03 0.  0.
<mgrwt>
<rscale>  0 0.10879510E+04</rscale>
<asrwt>0</asrwt>
<pdfrwt beam="1">  1        2 0.11110963E+00 0.10879510E+04</pdfrwt>
<pdfrwt beam="2">  1       -2 0.39252578E+00 0.10879510E+04</pdfrwt>
<totfact> 0.32839433E-01</totfact>
</mgrwt>
</event>
<event>
 4    1  0.4880711E-008  0.3262531E+03  0.7818608E-02  0.1072807E+00
          2   -1    0    0  501    0  0.00000000000E+00  0.00000000000E+00  0.25029333929E+04  0.25029333929E+04  0.25500000000E-02 0. -1.
         -2   -1    0    0    0  501 -0.00000000000E+00 -0.00000000000E+00 -0.61017119809E+02  0.61017119863E+02  0.25500000000E-02 0.  1.
    8880022    1    1    2    0    0  0.12474972267E+03 -0.25978253678E+03  0.51524373146E+03  0.60985015827E+03  0.15294330000E+03 0.  0.
    8880022    1    1    2    0    0 -0.12474972267E+03  0.25978253678E+03  0.19266725416E+04  0.19541003545E+04  0.15294330000E+03 0.  0.
<mgrwt>
<rscale>  0 0.32625314E+03</rscale>
<asrwt>0</asrwt>
<pdfrwt beam="1">  1        2 0.38506672E+00 0.32625314E+03</pdfrwt>
<pdfrwt beam="2">  1       -2 0.93872481E-02 0.32625314E+03</pdfrwt>
<totfact> 0.29014001E+02</totfact>
</mgrwt>
</event>
<event>
 4    1  0.4880711E-008  0.3543400E+03  0.7818608E-02  0.1060848E+00
          2   -1    0    0  501    0  0.00000000000E+00  0.00000000000E+00  0.13422917947E+04  0.13422917947E+04  0.25500000000E-02 0. -1.
         -2   -1    0    0    0  501 -0.00000000000E+00 -0.00000000000E+00 -0.18295398218E+03  0.18295398220E+03  0.25500000000E-02 0.  1.
    8880022    1    1    2    0    0  0.28296773574E+03 -0.14864207115E+03  0.46525992573E+02  0.35738148495E+03  0.15294330000E+03 0.  0.
    8880022    1    1    2    0    0 -0.28296773574E+03  0.14864207115E+03  0.11128118199E+04  0.11678642919E+04  0.15294330000E+03 0.  0.
<mgrwt>
<rscale>  0 0.35434003E+03</rscale>
<asrwt>0</asrwt>
<pdfrwt beam="1">  1        2 0.20650644E+00 0.35434003E+03</pdfrwt>
<pdfrwt beam="2">  1       -2 0.28146766E-01 0.35434003E+03</pdfrwt>
<totfact> 0.19013763E+02</totfact>
</mgrwt>
</event>
<event>
 4    1  0.4880711E-008  0.4553985E+03  0.7818608E-02  0.1026124E+00
         -2   -1    0    0    0  501 -0.00000000000E+00  0.00000000000E+00  0.70560535738E+03  0.70560535739E+03  0.25500000000E-02 0.  1.
          2   -1    0    0  501    0  0.00000000000E+00 -0.00000000000E+00 -0.99675604572E+03  0.99675604572E+03  0.25500000000E-02 0. -1.
    8880022    1    1    2    0    0  0.22312807579E+03  0.36634687159E+03  0.56917761964E+03  0.72893825819E+03  0.15294330000E+03 0.  1.
    8880022    1    1    2    0    0 -0.22312807579E+03 -0.36634687159E+03 -0.86032830798E+03  0.97342314492E+03  0.15294330000E+03 0.  0.
<mgrwt>
<rscale>  0 0.45539853E+03</rscale>
<asrwt>0</asrwt>
<pdfrwt beam="1">  1        2 0.15334708E+00 0.45539853E+03</pdfrwt>
<pdfrwt beam="2">  1       -2 0.10855467E+00 0.45539853E+03</pdfrwt>
<totfact> 0.18174176E+01</totfact>
</mgrwt>
</event>
<event>
 4    1  0.4880711E-008  0.8693809E+03  0.7818608E-02  0.9464687E-01
         -2   -1    0    0    0  501 -0.00000000000E+00  0.00000000000E+00  0.52580122230E+03  0.52580122231E+03  0.25500000000E-02 0.  1.
          2   -1    0    0  501    0  0.00000000000E+00 -0.00000000000E+00 -0.16566714305E+04  0.16566714305E+04  0.25500000000E-02 0. -1.
    8880022    1    1    2    0    0  0.32004066530E+03  0.79372885669E+03 -0.16849691010E+03  0.88555879935E+03  0.15294330000E+03 0.  0.
    8880022    1    1    2    0    0 -0.32004066530E+03 -0.79372885669E+03 -0.96237329810E+03  0.12969138535E+04  0.15294330000E+03 0.  0.
<mgrwt>
<rscale>  0 0.86938092E+03</rscale>
<asrwt>0</asrwt>
<pdfrwt beam="1">  1        2 0.25487253E+00 0.86938092E+03</pdfrwt>
<pdfrwt beam="2">  1       -2 0.80892497E-01 0.86938092E+03</pdfrwt>
<totfact> 0.14148290E+01</totfact>
</mgrwt>
</event>
<event>
 4    1  0.4880711E-008  0.6992933E+03  0.7818608E-02  0.9718441E-01
         -2   -1    0    0    0  501 -0.00000000000E+00  0.00000000000E+00  0.87480026583E+03  0.87480026583E+03  0.25500000000E-02 0.  1.
          2   -1    0    0  501    0  0.00000000000E+00 -0.00000000000E+00 -0.10886599660E+04  0.10886599660E+04  0.25500000000E-02 0. -1.
    8880022    1    1    2    0    0 -0.31074312040E+03 -0.60750163700E+03 -0.79170119503E+03  0.10563152754E+04  0.15294330000E+03 0.  0.
    8880022    1    1    2    0    0  0.31074312040E+03  0.60750163700E+03  0.57784149484E+03  0.90714495645E+03  0.15294330000E+03 0.  0.
<mgrwt>
<rscale>  0 0.69929334E+03</rscale>
<asrwt>0</asrwt>
<pdfrwt beam="1">  1        2 0.16748615E+00 0.69929334E+03</pdfrwt>
<pdfrwt beam="2">  1       -2 0.13458466E+00 0.69929334E+03</pdfrwt>
<totfact> 0.90278693E+00</totfact>
</mgrwt>
</event>
<event>
 4    1  0.4880711E-008  0.9588691E+03  0.7818608E-02  0.9354844E-01
         -2   -1    0    0    0  501 -0.00000000000E+00  0.00000000000E+00  0.61030069610E+03  0.61030069611E+03  0.25500000000E-02 0.  1.
          2   -1    0    0  501    0  0.00000000000E+00 -0.00000000000E+00 -0.18306604624E+04  0.18306604624E+04  0.25500000000E-02 0. -1.
    8880022    1    1    2    0    0  0.45909017179E+03 -0.82781313811E+03 -0.96616812302E+02  0.96372446212E+03  0.15294330000E+03 0.  0.
    8880022    1    1    2    0    0 -0.45909017179E+03  0.82781313811E+03 -0.11237429539E+04  0.14772366963E+04  0.15294330000E+03 0.  0.
<mgrwt>
<rscale>  0 0.95886914E+03</rscale>
<asrwt>0</asrwt>
<pdfrwt beam="1">  1        2 0.28164007E+00 0.95886914E+03</pdfrwt>
<pdfrwt beam="2">  1       -2 0.93892415E-01 0.95886914E+03</pdfrwt>
<totfact> 0.79766554E+00</totfact>
</mgrwt>
</event>
<event>
 4    1  0.4880711E-008  0.7074604E+03  0.7818608E-02  0.9704558E-01
          2   -1    0    0  501    0  0.00000000000E+00  0.00000000000E+00  0.21643158930E+04  0.21643158930E+04  0.25500000000E-02 0. -1.
         -2   -1    0    0    0  501 -0.00000000000E+00 -0.00000000000E+00 -0.49007545633E+03  0.49007545634E+03  0.25500000000E-02 0.  1.
    8880022    1    1    2    0    0 -0.24155264517E+03  0.64711734915E+03  0.18016289046E+04  0.19355533852E+04  0.15294330000E+03 0.  0.
    8880022    1    1    2    0    0  0.24155264517E+03 -0.64711734915E+03 -0.12738846793E+03  0.71883796417E+03  0.15294330000E+03 0.  0.
<mgrwt>
<rscale>  0 0.70746039E+03</rscale>
<asrwt>0</asrwt>
<pdfrwt beam="1">  1        2 0.33297167E+00 0.70746039E+03</pdfrwt>
<pdfrwt beam="2">  1       -2 0.75396225E-01 0.70746039E+03</pdfrwt>
<totfact> 0.89354842E+00</totfact>
</mgrwt>
</event>
<event>
 4    1  0.4880711E-008  0.8143819E+03  0.7818608E-02  0.9539430E-01
         -2   -1    0    0    0  501 -0.00000000000E+00  0.00000000000E+00  0.86095873363E+03  0.86095873364E+03  0.25500000000E-02 0.  1.
          2   -1    0    0  501    0  0.00000000000E+00 -0.00000000000E+00 -0.86860037036E+03  0.86860037036E+03  0.25500000000E-02 0. -1.
    8880022    1    1    2    0    0 -0.23998133577E+03  0.76304339146E+03  0.28706200141E+03  0.86349435693E+03  0.15294330000E+03 0.  0.
    8880022    1    1    2    0    0  0.23998133577E+03 -0.76304339146E+03 -0.29470363814E+03  0.86606474707E+03  0.15294330000E+03 0.  0.
<mgrwt>
<rscale>  0 0.81438192E+03</rscale>
<asrwt>0</asrwt>
<pdfrwt beam="1">  1        2 0.13363083E+00 0.81438192E+03</pdfrwt>
<pdfrwt beam="2">  1       -2 0.13245519E+00 0.81438192E+03</pdfrwt>
<totfact> 0.12874440E+01</totfact>
</mgrwt>
</event>
<event>
 4    1  0.4880711E-008  0.4441481E+03  0.7818608E-02  0.1029482E+00
         -2   -1    0    0    0  501 -0.00000000000E+00  0.00000000000E+00  0.12343074896E+04  0.12343074896E+04  0.25500000000E-02 0.  1.
          2   -1    0    0  501    0  0.00000000000E+00 -0.00000000000E+00 -0.28071944152E+03  0.28071944153E+03  0.25500000000E-02 0. -1.
    8880022    1    1    2    0    0  0.31522615832E+03 -0.27296225938E+03 -0.20330799699E+02  0.44461322558E+03  0.15294330000E+03 0.  0.
    8880022    1    1    2    0    0 -0.31522615832E+03  0.27296225938E+03  0.97391884778E+03  0.10704137055E+04  0.15294330000E+03 0.  0.
<mgrwt>
<rscale>  0 0.44414815E+03</rscale>
<asrwt>0</asrwt>
<pdfrwt beam="1">  1        2 0.43187606E-01 0.44414815E+03</pdfrwt>
<pdfrwt beam="2">  1       -2 0.18989346E+00 0.44414815E+03</pdfrwt>
<totfact> 0.19262575E+01</totfact>
</mgrwt>
</event>
<event>
 4    1  0.4880711E-008  0.7369568E+03  0.7818608E-02  0.9656038E-01
          2   -1    0    0  501    0  0.00000000000E+00  0.00000000000E+00  0.48310678307E+04  0.48310678307E+04  0.25500000000E-02 0. -1.
         -2   -1    0    0    0  501 -0.00000000000E+00 -0.00000000000E+00 -0.31461928137E+03  0.31461928139E+03  0.25500000000E-02 0.  1.
    8880022    1    1    2    0    0 -0.71277112065E+03 -0.10803232565E+03  0.19564210998E+03  0.76248353558E+03  0.15294330000E+03 0.  0.
    8880022    1    1    2    0    0  0.71277112065E+03  0.10803232565E+03  0.43208064393E+04  0.43832035765E+04  0.15294330000E+03 0.  0.
<mgrwt>
<rscale>  0 0.73695679E+03</rscale>
<asrwt>0</asrwt>
<pdfrwt beam="1">  1        2 0.74324118E+00 0.73695679E+03</pdfrwt>
<pdfrwt beam="2">  1       -2 0.48402968E-01 0.73695679E+03</pdfrwt>
<totfact> 0.25986651E-01</totfact>
</mgrwt>
</event>
<event>
 4    1  0.4880711E-008  0.6556173E+03  0.7818608E-02  0.9796296E-01
          2   -1    0    0  501    0  0.00000000000E+00  0.00000000000E+00  0.46887641423E+03  0.46887641424E+03  0.25500000000E-02 0. -1.
         -2   -1    0    0    0  501 -0.00000000000E+00 -0.00000000000E+00 -0.16246325407E+04  0.16246325407E+04  0.25500000000E-02 0.  1.
    8880022    1    1    2    0    0  0.41307288250E+03 -0.48560594662E+03  0.11308270171E+03  0.66529819788E+03  0.15294330000E+03 0. -1.
    8880022    1    1    2    0    0 -0.41307288250E+03  0.48560594662E+03 -0.12688388282E+04  0.14282107571E+04  0.15294330000E+03 0.  0.
<mgrwt>
<rscale>  0 0.65561726E+03</rscale>
<asrwt>0</asrwt>
<pdfrwt beam="1">  1        2 0.72134834E-01 0.65561726E+03</pdfrwt>
<pdfrwt beam="2">  1       -2 0.24994346E+00 0.65561726E+03</pdfrwt>
<totfact> 0.44485372E+00</totfact>
</mgrwt>
</event>
<event>
 4    1  0.4880711E-008  0.5590340E+03  0.7818608E-02  0.9994243E-01
          2   -1    0    0  501    0  0.00000000000E+00  0.00000000000E+00  0.22241229128E+04  0.22241229128E+04  0.25500000000E-02 0. -1.
         -2   -1    0    0    0  501 -0.00000000000E+00 -0.00000000000E+00 -0.50372251662E+03  0.50372251663E+03  0.25500000000E-02 0.  1.
    8880022    1    1    2    0    0  0.39690392229E+03 -0.36275971300E+03 -0.29797023501E+03  0.63348657986E+03  0.15294330000E+03 0.  0.
    8880022    1    1    2    0    0 -0.39690392229E+03  0.36275971300E+03  0.20183706312E+04  0.20943588496E+04  0.15294330000E+03 0.  0.
<mgrwt>
<rscale>  0 0.55903398E+03</rscale>
<asrwt>0</asrwt>
<pdfrwt beam="1">  1        2 0.34217276E+00 0.55903398E+03</pdfrwt>
<pdfrwt beam="2">  1       -2 0.77495770E-01 0.55903398E+03</pdfrwt>
<totfact> 0.80233871E+00</totfact>
</mgrwt>
</event>
<event>
 4    1  0.4880711E-008  0.3395084E+03  0.7818608E-02  0.1067006E+00
         -2   -1    0    0    0  501 -0.00000000000E+00  0.00000000000E+00  0.20234790912E+03  0.20234790914E+03  0.25500000000E-02 0.  1.
          2   -1    0    0  501    0  0.00000000000E+00 -0.00000000000E+00 -0.12340136747E+04  0.12340136747E+04  0.25500000000E-02 0. -1.
    8880022    1    1    2    0    0  0.25779011924E+03  0.15943193015E+03 -0.10427948095E+04  0.10966708502E+04  0.15294330000E+03 0.  0.
    8880022    1    1    2    0    0 -0.25779011924E+03 -0.15943193015E+03  0.11129043876E+02  0.33969073370E+03  0.15294330000E+03 0.  0.
<mgrwt>
<rscale>  0 0.33950838E+03</rscale>
<asrwt>0</asrwt>
<pdfrwt beam="1">  1        2 0.18984825E+00 0.33950838E+03</pdfrwt>
<pdfrwt beam="2">  1       -2 0.31130448E-01 0.33950838E+03</pdfrwt>
<totfact> 0.18236677E+02</totfact>
</mgrwt>
</event>
<event>
 4    1  0.4880711E-008  0.2810204E+03  0.7818608E-02  0.1095133E+00
          2   -1    0    0  501    0  0.00000000000E+00  0.00000000000E+00  0.21068984197E+03  0.21068984198E+03  0.25500000000E-02 0. -1.
         -2   -1    0    0    0  501 -0.00000000000E+00 -0.00000000000E+00 -0.44378861116E+03  0.44378861117E+03  0.25500000000E-02 0.  1.
    8880022    1    1    2    0    0  0.99868838743E+01  0.23554423509E+03  0.12446974185E+02  0.28129593796E+03  0.15294330000E+03 0.  0.
    8880022    1    1    2    0    0 -0.99868838743E+01 -0.23554423509E+03 -0.24554574338E+03  0.37318251519E+03  0.15294330000E+03 0. -1.
<mgrwt>
<rscale>  0 0.28102042E+03</rscale>
<asrwt>0</asrwt>
<pdfrwt beam="1">  1        2 0.32413822E-01 0.28102042E+03</pdfrwt>
<pdfrwt beam="2">  1       -2 0.68275171E-01 0.28102042E+03</pdfrwt>
<totfact> 0.32545922E+02</totfact>
</mgrwt>
</event>
<event>
 4    1  0.4880711E-008  0.6345405E+03  0.7818608E-02  0.9836228E-01
          2   -1    0    0  501    0  0.00000000000E+00  0.00000000000E+00  0.82187553328E+03  0.82187553328E+03  0.25500000000E-02 0. -1.
         -2   -1    0    0    0  501 -0.00000000000E+00 -0.00000000000E+00 -0.55861638149E+03  0.55861638149E+03  0.25500000000E-02 0.  1.
    8880022    1    1    2    0    0 -0.45889734405E+03  0.41068621735E+03 -0.11045038203E+03  0.64408142451E+03  0.15294330000E+03 0.  0.
    8880022    1    1    2    0    0  0.45889734405E+03 -0.41068621735E+03  0.37370953382E+03  0.73641049026E+03  0.15294330000E+03 0.  0.
<mgrwt>
<rscale>  0 0.63454046E+03</rscale>
<asrwt>0</asrwt>
<pdfrwt beam="1">  1        2 0.12644239E+00 0.63454046E+03</pdfrwt>
<pdfrwt beam="2">  1       -2 0.85940982E-01 0.63454046E+03</pdfrwt>
<totfact> 0.40008283E+01</totfact>
</mgrwt>
</event>
<event>
 4    1  0.4880711E-008  0.1238312E+04  0.7818608E-02  0.9079968E-01
         -2   -1    0    0    0  501 -0.00000000000E+00  0.00000000000E+00  0.13878319996E+04  0.13878319996E+04  0.25500000000E-02 0.  1.
          2   -1    0    0  501    0  0.00000000000E+00 -0.00000000000E+00 -0.12784172245E+04  0.12784172245E+04  0.25500000000E-02 0. -1.
    8880022    1    1    2    0    0  0.80786630932E+02  0.12261720763E+04  0.54584734649E+03  0.13532795052E+04  0.15294330000E+03 0.  0.
    8880022    1    1    2    0    0 -0.80786630932E+02 -0.12261720763E+04 -0.43643257140E+03  0.13129697189E+04  0.15294330000E+03 0.  0.
<mgrwt>
<rscale>  0 0.12383118E+04</rscale>
<asrwt>0</asrwt>
<pdfrwt beam="1">  1        2 0.19667957E+00 0.12383118E+04</pdfrwt>
<pdfrwt beam="2">  1       -2 0.21351261E+00 0.12383118E+04</pdfrwt>
<totfact> 0.17889683E+00</totfact>
</mgrwt>
</event>
<event>
 4    1  0.4880711E-008  0.3786500E+03  0.7818608E-02  0.1051434E+00
         -2   -1    0    0    0  501 -0.00000000000E+00  0.00000000000E+00  0.10026028734E+03  0.10026028737E+03  0.25500000000E-02 0.  1.
          2   -1    0    0  501    0  0.00000000000E+00 -0.00000000000E+00 -0.20241880925E+04  0.20241880925E+04  0.25500000000E-02 0. -1.
    8880022    1    1    2    0    0  0.18449659911E+03  0.29316410844E+03 -0.38647164033E+03  0.54105098776E+03  0.15294330000E+03 0.  0.
    8880022    1    1    2    0    0 -0.18449659911E+03 -0.29316410844E+03 -0.15374561648E+04  0.15833973921E+04  0.15294330000E+03 0.  0.
<mgrwt>
<rscale>  0 0.37865003E+03</rscale>
<asrwt>0</asrwt>
<pdfrwt beam="1">  1        2 0.31141352E+00 0.37865003E+03</pdfrwt>
<pdfrwt beam="2">  1       -2 0.15424661E-01 0.37865003E+03</pdfrwt>
<totfact> 0.23181165E+02</totfact>
</mgrwt>
</event>
<event>
 4    1  0.4880711E-008  0.5642995E+03  0.7818608E-02  0.9982373E-01
         -2   -1    0    0    0  501 -0.00000000000E+00  0.00000000000E+00  0.90094908944E+03  0.90094908945E+03  0.25500000000E-02 0.  1.
          2   -1    0    0  501    0  0.00000000000E+00 -0.00000000000E+00 -0.10775964404E+04  0.10775964404E+04  0.25500000000E-02 0. -1.
    8880022    1    1    2    0    0 -0.40107212813E+03 -0.36631048696E+03 -0.89929102300E+03  0.10616770799E+04  0.15294330000E+03 0.  0.
    8880022    1    1    2    0    0  0.40107212813E+03  0.36631048696E+03  0.72264367205E+03  0.91686844999E+03  0.15294330000E+03 0.  0.
<mgrwt>
<rscale>  0 0.56429946E+03</rscale>
<asrwt>0</asrwt>
<pdfrwt beam="1">  1        2 0.16578407E+00 0.56429946E+03</pdfrwt>
<pdfrwt beam="2">  1       -2 0.13860755E+00 0.56429946E+03</pdfrwt>
<totfact> 0.86782489E+00</totfact>
</mgrwt>
</event>
<event>
 4    1  0.4880711E-008  0.2529394E+03  0.7818608E-02  0.1111461E+00
          2   -1    0    0  501    0  0.00000000000E+00  0.00000000000E+00  0.19563362146E+04  0.19563362146E+04  0.25500000000E-02 0. -1.
         -2   -1    0    0    0  501 -0.00000000000E+00 -0.00000000000E+00 -0.10554973370E+03  0.10554973373E+03  0.25500000000E-02 0.  1.
    8880022    1    1    2    0    0  0.19186811022E+03 -0.61427471570E+02  0.17818602984E+04  0.17997234460E+04  0.15294330000E+03 0. -1.
    8880022    1    1    2    0    0 -0.19186811022E+03  0.61427471570E+02  0.68926182481E+02  0.26216250233E+03  0.15294330000E+03 0.  0.
<mgrwt>
<rscale>  0 0.25293944E+03</rscale>
<asrwt>0</asrwt>
<pdfrwt beam="1">  1        2 0.30097480E+00 0.25293944E+03</pdfrwt>
<pdfrwt beam="2">  1       -2 0.16238420E-01 0.25293944E+03</pdfrwt>
<totfact> 0.23703082E+02</totfact>
</mgrwt>
</event>
<event>
 4    1  0.6159611E-008  0.6592412E+03  0.7818608E-02  0.9789592E-01
          2   -1    0    0  501    0  0.00000000000E+00  0.00000000000E+00  0.17998627688E+04  0.17998627688E+04  0.25500000000E-02 0. -1.
         -2   -1    0    0    0  501 -0.00000000000E+00 -0.00000000000E+00 -0.72830019151E+03  0.72830019152E+03  0.25500000000E-02 0.  1.
    8880022    1    1    2    0    0 -0.64858132762E+02 -0.63796606417E+03 -0.49772247231E+03  0.82603062224E+03  0.15294330000E+03 0.  0.
    8880022    1    1    2    0    0  0.64858132762E+02  0.63796606417E+03  0.15692850496E+04  0.17021323381E+04  0.15294330000E+03 0.  0.
<mgrwt>
<rscale>  0 0.65924118E+03</rscale>
<asrwt>0</asrwt>
<pdfrwt beam="1">  1        2 0.27690196E+00 0.65924118E+03</pdfrwt>
<pdfrwt beam="2">  1       -2 0.11204618E+00 0.65924118E+03</pdfrwt>
<totfact> 0.56780557E+00</totfact>
</mgrwt>
</event>
<event>
 4    1  0.4880711E-008  0.7437971E+03  0.7818608E-02  0.9645132E-01
         -2   -1    0    0    0  501 -0.00000000000E+00  0.00000000000E+00  0.10896975152E+04  0.10896975152E+04  0.25500000000E-02 0.  1.
          2   -1    0    0  501    0  0.00000000000E+00 -0.00000000000E+00 -0.80613017909E+03  0.80613017910E+03  0.25500000000E-02 0. -1.
    8880022    1    1    2    0    0 -0.23734449109E+03 -0.68812072357E+03 -0.43497103508E+03  0.86164609442E+03  0.15294330000E+03 0.  0.
    8880022    1    1    2    0    0  0.23734449109E+03  0.68812072357E+03  0.71853837121E+03  0.10341815999E+04  0.15294330000E+03 0.  0.
<mgrwt>
<rscale>  0 0.74379714E+03</rscale>
<asrwt>0</asrwt>
<pdfrwt beam="1">  1        2 0.12402003E+00 0.74379714E+03</pdfrwt>
<pdfrwt beam="2">  1       -2 0.16764577E+00 0.74379714E+03</pdfrwt>
<totfact> 0.76944074E+00</totfact>
</mgrwt>
</event>
<event>
 4    1  0.4880711E-008  0.2057010E+03  0.7818608E-02  0.1145016E+00
         -2   -1    0    0    0  501 -0.00000000000E+00  0.00000000000E+00  0.26892889178E+03  0.26892889180E+03  0.25500000000E-02 0.  1.
          2   -1    0    0  501    0  0.00000000000E+00 -0.00000000000E+00 -0.10182906469E+04  0.10182906469E+04  0.25500000000E-02 0. -1.
    8880022    1    1    2    0    0 -0.81692738815E+02 -0.11066854210E+03  0.21712087025E+03  0.29908920927E+03  0.15294330000E+03 0.  1.
    8880022    1    1    2    0    0  0.81692738815E+02  0.11066854210E+03 -0.96648262538E+03  0.98813032944E+03  0.15294330000E+03 0.  0.
<mgrwt>
<rscale>  0 0.20570095E+03</rscale>
<asrwt>0</asrwt>
<pdfrwt beam="1">  1        2 0.15666010E+00 0.20570095E+03</pdfrwt>
<pdfrwt beam="2">  1       -2 0.41373676E-01 0.20570095E+03</pdfrwt>
<totfact> 0.14634188E+02</totfact>
</mgrwt>
</event>
<event>
 4    1  0.4880711E-008  0.1051167E+04  0.7818608E-02  0.9254140E-01
         -2   -1    0    0    0  501 -0.00000000000E+00  0.00000000000E+00  0.12647644979E+04  0.12647644979E+04  0.25500000000E-02 0.  1.
          2   -1    0    0  501    0  0.00000000000E+00 -0.00000000000E+00 -0.42549399184E+04  0.42549399184E+04  0.25500000000E-02 0. -1.
    8880022    1    1    2    0    0 -0.94079199100E+03 -0.44325083891E+03  0.96517095672E+03  0.14270625443E+04  0.15294330000E+03 0.  0.
    8880022    1    1    2    0    0  0.94079199100E+03  0.44325083891E+03 -0.39553463772E+04  0.40926418721E+04  0.15294330000E+03 0.  0.
<mgrwt>
<rscale>  0 0.10511672E+04</rscale>
<asrwt>0</asrwt>
<pdfrwt beam="1">  1        2 0.65460614E+00 0.10511672E+04</pdfrwt>
<pdfrwt beam="2">  1       -2 0.19457916E+00 0.10511672E+04</pdfrwt>
<totfact> 0.31451808E-02</totfact>
</mgrwt>
</event>
<event>
 4    1  0.4880711E-008  0.3235541E+03  0.7818608E-02  0.1074025E+00
          2   -1    0    0  501    0  0.00000000000E+00  0.00000000000E+00  0.11058915691E+04  0.11058915691E+04  0.25500000000E-02 0. -1.
         -2   -1    0    0    0  501 -0.00000000000E+00 -0.00000000000E+00 -0.26465324805E+03  0.26465324806E+03  0.25500000000E-02 0.  1.
    8880022    1    1    2    0    0 -0.30426580449E+02  0.28349574565E+03  0.96982651234E+03  0.10223750445E+04  0.15294330000E+03 0.  0.
    8880022    1    1    2    0    0  0.30426580449E+02 -0.28349574565E+03 -0.12858819132E+03  0.34816977262E+03  0.15294330000E+03 0.  0.
<mgrwt>
<rscale>  0 0.32355412E+03</rscale>
<asrwt>0</asrwt>
<pdfrwt beam="1">  1        2 0.17013717E+00 0.32355412E+03</pdfrwt>
<pdfrwt beam="2">  1       -2 0.40715883E-01 0.32355412E+03</pdfrwt>
<totfact> 0.13081121E+02</totfact>
</mgrwt>
</event>
<event>
 4    1  0.4880711E-008  0.3734179E+03  0.7818608E-02  0.1053394E+00
          2   -1    0    0  501    0  0.00000000000E+00  0.00000000000E+00  0.21037652317E+04  0.21037652317E+04  0.25500000000E-02 0. -1.
         -2   -1    0    0    0  501 -0.00000000000E+00 -0.00000000000E+00 -0.96520859500E+02  0.96520859534E+02  0.25500000000E-02 0.  1.
    8880022    1    1    2    0    0 -0.32700645100E+03  0.95477946669E+02  0.38784414789E+03  0.53839018692E+03  0.15294330000E+03 0.  0.
    8880022    1    1    2    0    0  0.32700645100E+03 -0.95477946669E+02  0.16194002243E+04  0.16618959043E+04  0.15294330000E+03 0.  0.
<mgrwt>
<rscale>  0 0.37341788E+03</rscale>
<asrwt>0</asrwt>
<pdfrwt beam="1">  1        2 0.32365621E+00 0.37341788E+03</pdfrwt>
<pdfrwt beam="2">  1       -2 0.14849362E-01 0.37341788E+03</pdfrwt>
<totfact> 0.22418697E+02</totfact>
</mgrwt>
</event>
<event>
 4    1  0.4880711E-008  0.7484694E+03  0.7818608E-02  0.9637755E-01
          2   -1    0    0  501    0  0.00000000000E+00  0.00000000000E+00  0.15060743055E+04  0.15060743055E+04  0.25500000000E-02 0. -1.
         -2   -1    0    0    0  501 -0.00000000000E+00 -0.00000000000E+00 -0.62879492588E+03  0.62879492588E+03  0.25500000000E-02 0.  1.
    8880022    1    1    2    0    0  0.56099191229E+03  0.47127785827E+03  0.11208368061E+04  0.13477690990E+04  0.15294330000E+03 0.  0.
    8880022    1    1    2    0    0 -0.56099191229E+03 -0.47127785827E+03 -0.24355742649E+03  0.78710013236E+03  0.15294330000E+03 0.  1.
<mgrwt>
<rscale>  0 0.74846937E+03</rscale>
<asrwt>0</asrwt>
<pdfrwt beam="1">  1        2 0.23170374E+00 0.74846937E+03</pdfrwt>
<pdfrwt beam="2">  1       -2 0.96737682E-01 0.74846937E+03</pdfrwt>
<totfact> 0.11528933E+01</totfact>
</mgrwt>
</event>
<event>
 4    1  0.4880711E-008  0.4568336E+03  0.7818608E-02  0.1025704E+00
          2   -1    0    0  501    0  0.00000000000E+00  0.00000000000E+00  0.57904984644E+03  0.57904984644E+03  0.25500000000E-02 0. -1.
         -2   -1    0    0    0  501 -0.00000000000E+00 -0.00000000000E+00 -0.41528012271E+03  0.41528012272E+03  0.25500000000E-02 0.  1.
    8880022    1    1    2    0    0 -0.42975995049E+03 -0.24731477288E+02  0.26259697860E+03  0.52692892045E+03  0.15294330000E+03 0.  0.
    8880022    1    1    2    0    0  0.42975995049E+03  0.24731477288E+02 -0.98827254874E+02  0.46740104871E+03  0.15294330000E+03 0.  0.
<mgrwt>
<rscale>  0 0.45683357E+03</rscale>
<asrwt>0</asrwt>
<pdfrwt beam="1">  1        2 0.89084592E-01 0.45683357E+03</pdfrwt>
<pdfrwt beam="2">  1       -2 0.63889250E-01 0.45683357E+03</pdfrwt>
<totfact> 0.12090911E+02</totfact>
</mgrwt>
</event>
<event>
 4    1  0.4880711E-008  0.1050194E+04  0.7818608E-02  0.9255143E-01
          2   -1    0    0  501    0  0.00000000000E+00  0.00000000000E+00  0.13193223596E+04  0.13193223596E+04  0.25500000000E-02 0. -1.
         -2   -1    0    0    0  501 -0.00000000000E+00 -0.00000000000E+00 -0.16218492678E+04  0.16218492678E+04  0.25500000000E-02 0.  1.
    8880022    1    1    2    0    0 -0.29372057872E+02 -0.10385826053E+04  0.87241659742E+03  0.13652907816E+04  0.15294330000E+03 0.  0.
    8880022    1    1    2    0    0  0.29372057872E+02  0.10385826053E+04 -0.11749435056E+04  0.15758808458E+04  0.15294330000E+03 0.  0.
<mgrwt>
<rscale>  0 0.10501944E+04</rscale>
<asrwt>0</asrwt>
<pdfrwt beam="1">  1        2 0.20297267E+00 0.10501944E+04</pdfrwt>
<pdfrwt beam="2">  1       -2 0.24951527E+00 0.10501944E+04</pdfrwt>
<totfact> 0.10322021E+00</totfact>
</mgrwt>
</event>
<event>
 4    1  0.4880711E-008  0.2067094E+03  0.7818608E-02  0.1144199E+00
         -2   -1    0    0    0  501 -0.00000000000E+00  0.00000000000E+00  0.58285143434E+02  0.58285143490E+02  0.25500000000E-02 0.  1.
          2   -1    0    0  501    0  0.00000000000E+00 -0.00000000000E+00 -0.20180061713E+04  0.20180061713E+04  0.25500000000E-02 0. -1.
    8880022    1    1    2    0    0  0.12398750649E+03 -0.62962093651E+02 -0.18082468451E+04  0.18200234704E+04  0.15294330000E+03 0. -1.
    8880022    1    1    2    0    0 -0.12398750649E+03  0.62962093651E+02 -0.15147418274E+03  0.25626784436E+03  0.15294330000E+03 0.  0.
<mgrwt>
<rscale>  0 0.20670941E+03</rscale>
<asrwt>0</asrwt>
<pdfrwt beam="1">  1        2 0.31046243E+00 0.20670941E+03</pdfrwt>
<pdfrwt beam="2">  1       -2 0.89669467E-02 0.20670941E+03</pdfrwt>
<totfact> 0.58167646E+02</totfact>
</mgrwt>
</event>
<event>
 4    1  0.4880711E-008  0.4726334E+03  0.7818608E-02  0.1021180E+00
         -2   -1    0    0    0  501 -0.00000000000E+00  0.00000000000E+00  0.15014978805E+04  0.15014978805E+04  0.25500000000E-02 0.  1.
          2   -1    0    0  501    0  0.00000000000E+00 -0.00000000000E+00 -0.10481004694E+04  0.10481004694E+04  0.25500000000E-02 0. -1.
    8880022    1    1    2    0    0 -0.14878602634E+03  0.42172666924E+03 -0.95416357261E+03  0.10648053538E+04  0.15294330000E+03 0. -1.
    8880022    1    1    2    0    0  0.14878602634E+03 -0.42172666924E+03  0.14075609838E+04  0.14847929961E+04  0.15294330000E+03 0.  0.
<mgrwt>
<rscale>  0 0.47263339E+03</rscale>
<asrwt>0</asrwt>
<pdfrwt beam="1">  1        2 0.16124623E+00 0.47263339E+03</pdfrwt>
<pdfrwt beam="2">  1       -2 0.23099967E+00 0.47263339E+03</pdfrwt>
<totfact> 0.21601234E+00</totfact>
</mgrwt>
</event>
<event>
 4    1  0.4880711E-008  0.9676946E+03  0.7818608E-02  0.9344704E-01
         -2   -1    0    0    0  501 -0.00000000000E+00  0.00000000000E+00  0.11535906805E+04  0.11535906805E+04  0.25500000000E-02 0.  1.
          2   -1    0    0  501    0  0.00000000000E+00 -0.00000000000E+00 -0.22115098772E+04  0.22115098772E+04  0.25500000000E-02 0. -1.
    8880022    1    1    2    0    0 -0.12861260964E+03  0.94683685358E+03 -0.18675558974E+04  0.21033777392E+04  0.15294330000E+03 0.  0.
    8880022    1    1    2    0    0  0.12861260964E+03 -0.94683685358E+03  0.80963670074E+03  0.12617228186E+04  0.15294330000E+03 0.  0.
<mgrwt>
<rscale>  0 0.96769462E+03</rscale>
<asrwt>0</asrwt>
<pdfrwt beam="1">  1        2 0.34023229E+00 0.96769462E+03</pdfrwt>
<pdfrwt beam="2">  1       -2 0.17747549E+00 0.96769462E+03</pdfrwt>
<totfact> 0.96609394E-01</totfact>
</mgrwt>
</event>
<event>
 4    1  0.4880711E-008  0.4605926E+03  0.7818608E-02  0.1024609E+00
         -2   -1    0    0    0  501 -0.00000000000E+00  0.00000000000E+00  0.53062458107E+03  0.53062458107E+03  0.25500000000E-02 0.  1.
          2   -1    0    0  501    0  0.00000000000E+00 -0.00000000000E+00 -0.11255765537E+04  0.11255765537E+04  0.25500000000E-02 0. -1.
    8880022    1    1    2    0    0  0.14689391503E+02  0.43420974832E+03 -0.96243671718E+03  0.10669723386E+04  0.15294330000E+03 0.  0.
    8880022    1    1    2    0    0 -0.14689391503E+02 -0.43420974832E+03  0.36748474454E+03  0.58922879618E+03  0.15294330000E+03 0.  0.
<mgrwt>
<rscale>  0 0.46059259E+03</rscale>
<asrwt>0</asrwt>
<pdfrwt beam="1">  1        2 0.17316562E+00 0.46059259E+03</pdfrwt>
<pdfrwt beam="2">  1       -2 0.81634551E-01 0.46059259E+03</pdfrwt>
<totfact> 0.29322256E+01</totfact>
</mgrwt>
</event>
<event>
 4    1  0.4880711E-008  0.1949351E+03  0.7818608E-02  0.1154084E+00
         -2   -1    0    0    0  501 -0.00000000000E+00  0.00000000000E+00  0.33588960706E+03  0.33588960707E+03  0.25500000000E-02 0.  1.
          2   -1    0    0  501    0  0.00000000000E+00 -0.00000000000E+00 -0.11212260429E+04  0.11212260429E+04  0.25500000000E-02 0. -1.
    8880022    1    1    2    0    0 -0.15272834521E+02  0.11989489707E+03 -0.10834932537E+04  0.11008893358E+04  0.15294330000E+03 0. -1.
    8880022    1    1    2    0    0  0.15272834521E+02 -0.11989489707E+03  0.29815681790E+03  0.35622631415E+03  0.15294330000E+03 0.  0.
<mgrwt>
<rscale>  0 0.19493511E+03</rscale>
<asrwt>0</asrwt>
<pdfrwt beam="1">  1        2 0.17249631E+00 0.19493511E+03</pdfrwt>
<pdfrwt beam="2">  1       -2 0.51675325E-01 0.19493511E+03</pdfrwt>
<totfact> 0.82522173E+01</totfact>
</mgrwt>
</event>
<event>
 4    1  0.4880711E-008  0.6237326E+03  0.7818608E-02  0.9857356E-01
         -2   -1    0    0    0  501 -0.00000000000E+00  0.00000000000E+00  0.43267753781E+03  0.43267753782E+03  0.25500000000E-02 0.  1.
          2   -1    0    0  501    0  0.00000000000E+00 -0.00000000000E+00 -0.16419953670E+04  0.16419953670E+04  0.25500000000E-02 0. -1.
    8880022    1    1    2    0    0  0.58172673204E+03 -0.16505988228E+03 -0.13023812323E+04  0.14440357623E+04  0.15294330000E+03 0.  0.
    8880022    1    1    2    0    0 -0.58172673204E+03  0.16505988228E+03  0.93063403121E+02  0.63063714252E+03  0.15294330000E+03 0.  0.
<mgrwt>
<rscale>  0 0.62373264E+03</rscale>
<asrwt>0</asrwt>
<pdfrwt beam="1">  1        2 0.25261467E+00 0.62373264E+03</pdfrwt>
<pdfrwt beam="2">  1       -2 0.66565776E-01 0.62373264E+03</pdfrwt>
<totfact> 0.22881202E+01</totfact>
</mgrwt>
</event>
<event>
 4    1  0.4880711E-008  0.3378970E+03  0.7818608E-02  0.1067695E+00
         -2   -1    0    0    0  501 -0.00000000000E+00  0.00000000000E+00  0.42952418936E+03  0.42952418937E+03  0.25500000000E-02 0.  1.
          2   -1    0    0  501    0  0.00000000000E+00 -0.00000000000E+00 -0.16415374319E+04  0.16415374319E+04  0.25500000000E-02 0. -1.
    8880022    1    1    2    0    0  0.27611297423E+03 -0.12060000949E+03  0.34198147928E+03  0.48075536608E+03  0.15294330000E+03 0.  1.
    8880022    1    1    2    0    0 -0.27611297423E+03  0.12060000949E+03 -0.15539947218E+04  0.15903062551E+04  0.15294330000E+03 0.  0.
<mgrwt>
<rscale>  0 0.33789701E+03</rscale>
<asrwt>0</asrwt>
<pdfrwt beam="1">  1        2 0.25254422E+00 0.33789701E+03</pdfrwt>
<pdfrwt beam="2">  1       -2 0.66080645E-01 0.33789701E+03</pdfrwt>
<totfact> 0.24648588E+01</totfact>
</mgrwt>
</event>
<event>
 4    1  0.4880711E-008  0.4670325E+03  0.7818608E-02  0.1022761E+00
          2   -1    0    0  501    0  0.00000000000E+00  0.00000000000E+00  0.30834123486E+04  0.30834123486E+04  0.25500000000E-02 0. -1.
         -2   -1    0    0    0  501 -0.00000000000E+00 -0.00000000000E+00 -0.72595823789E+02  0.72595823833E+02  0.25500000000E-02 0.  1.
    8880022    1    1    2    0    0  0.12099346379E+03 -0.42436810635E+03  0.12530791896E+04  0.13372833717E+04  0.15294330000E+03 0.  0.
    8880022    1    1    2    0    0 -0.12099346379E+03  0.42436810635E+03  0.17577373352E+04  0.18187248007E+04  0.15294330000E+03 0.  0.
<mgrwt>
<rscale>  0 0.46703251E+03</rscale>
<asrwt>0</asrwt>
<pdfrwt beam="1">  1        2 0.47437105E+00 0.46703251E+03</pdfrwt>
<pdfrwt beam="2">  1       -2 0.11168590E-01 0.46703251E+03</pdfrwt>
<totfact> 0.97987221E+01</totfact>
</mgrwt>
</event>
<event>
 4    1  0.4880711E-008  0.1955264E+03  0.7818608E-02  0.1153569E+00
          2   -1    0    0  501    0  0.00000000000E+00  0.00000000000E+00  0.40756061268E+03  0.40756061268E+03  0.25500000000E-02 0. -1.
         -2   -1    0    0    0  501 -0.00000000000E+00 -0.00000000000E+00 -0.19828146100E+03  0.19828146102E+03  0.25500000000E-02 0.  1.
    8880022    1    1    2    0    0 -0.12126021935E+03 -0.11614169457E+02 -0.11524809172E+03  0.22696410595E+03  0.15294330000E+03 0.  1.
    8880022    1    1    2    0    0  0.12126021935E+03  0.11614169457E+02  0.32452724339E+03  0.37887796775E+03  0.15294330000E+03 0. -1.
<mgrwt>
<rscale>  0 0.19552642E+03</rscale>
<asrwt>0</asrwt>
<pdfrwt beam="1">  1        2 0.62701632E-01 0.19552642E+03</pdfrwt>
<pdfrwt beam="2">  1       -2 0.30504840E-01 0.19552642E+03</pdfrwt>
<totfact> 0.77666186E+02</totfact>
</mgrwt>
</event>
<event>
 4    1  0.4880711E-008  0.2699732E+03  0.7818608E-02  0.1101295E+00
          2   -1    0    0  501    0  0.00000000000E+00  0.00000000000E+00  0.48776998295E+03  0.48776998295E+03  0.25500000000E-02 0. -1.
         -2   -1    0    0    0  501 -0.00000000000E+00 -0.00000000000E+00 -0.52881649605E+03  0.52881649605E+03  0.25500000000E-02 0.  1.
    8880022    1    1    2    0    0 -0.22148335482E+03 -0.20951777025E+02  0.41000838295E+03  0.49090974784E+03  0.15294330000E+03 0.  0.
    8880022    1    1    2    0    0  0.22148335482E+03  0.20951777025E+02 -0.45105489605E+03  0.52567673116E+03  0.15294330000E+03 0.  1.
<mgrwt>
<rscale>  0 0.26997316E+03</rscale>
<asrwt>0</asrwt>
<pdfrwt beam="1">  1        2 0.75041535E-01 0.26997316E+03</pdfrwt>
<pdfrwt beam="2">  1       -2 0.81356385E-01 0.26997316E+03</pdfrwt>
<totfact> 0.88850574E+01</totfact>
</mgrwt>
</event>
<event>
 4    1  0.4880711E-008  0.8013232E+03  0.7818608E-02  0.9558104E-01
          2   -1    0    0  501    0  0.00000000000E+00  0.00000000000E+00  0.27950830001E+04  0.27950830001E+04  0.25500000000E-02 0. -1.
         -2   -1    0    0    0  501 -0.00000000000E+00 -0.00000000000E+00 -0.42902410512E+03  0.42902410513E+03  0.25500000000E-02 0.  1.
    8880022    1    1    2    0    0  0.77817301068E+03  0.11477822319E+03  0.22817419999E+04  0.24183600811E+04  0.15294330000E+03 0.  0.
    8880022    1    1    2    0    0 -0.77817301068E+03 -0.11477822319E+03  0.84316895158E+02  0.80574702413E+03  0.15294330000E+03 0.  0.
<mgrwt>
<rscale>  0 0.80132324E+03</rscale>
<asrwt>0</asrwt>
<pdfrwt beam="1">  1        2 0.43001278E+00 0.80132324E+03</pdfrwt>
<pdfrwt beam="2">  1       -2 0.66003707E-01 0.80132324E+03</pdfrwt>
<totfact> 0.51604616E+00</totfact>
</mgrwt>
</event>
<event>
 4    1  0.4880711E-008  0.1935812E+03  0.7818608E-02  0.1155270E+00
          2   -1    0    0  501    0  0.00000000000E+00  0.00000000000E+00  0.66445869160E+03  0.66445869160E+03  0.25500000000E-02 0. -1.
         -2   -1    0    0    0  501 -0.00000000000E+00 -0.00000000000E+00 -0.14990484241E+03  0.14990484243E+03  0.25500000000E-02 0.  1.
    8880022    1    1    2    0    0 -0.82834753425E+02 -0.84973140327E+02 -0.64314001129E+02  0.20398523159E+03  0.15294330000E+03 0.  0.
    8880022    1    1    2    0    0  0.82834753425E+02  0.84973140327E+02  0.57886785031E+03  0.61037830244E+03  0.15294330000E+03 0. -1.
<mgrwt>
<rscale>  0 0.19358121E+03</rscale>
<asrwt>0</asrwt>
<pdfrwt beam="1">  1        2 0.10222441E+00 0.19358121E+03</pdfrwt>
<pdfrwt beam="2">  1       -2 0.23062283E-01 0.19358121E+03</pdfrwt>
<totfact> 0.73656250E+02</totfact>
</mgrwt>
</event>
<event>
 4    1  0.4880711E-008  0.3175816E+03  0.7818608E-02  0.1076768E+00
         -2   -1    0    0    0  501 -0.00000000000E+00  0.00000000000E+00  0.53599089316E+03  0.53599089316E+03  0.25500000000E-02 0.  1.
          2   -1    0    0  501    0  0.00000000000E+00 -0.00000000000E+00 -0.17855497185E+04  0.17855497185E+04  0.25500000000E-02 0. -1.
    8880022    1    1    2    0    0 -0.11781160662E+02  0.27807846921E+03  0.47312423275E+03  0.56982859126E+03  0.15294330000E+03 0.  0.
    8880022    1    1    2    0    0  0.11781160662E+02 -0.27807846921E+03 -0.17226830581E+04  0.17517120204E+04  0.15294330000E+03 0.  0.
<mgrwt>
<rscale>  0 0.31758162E+03</rscale>
<asrwt>0</asrwt>
<pdfrwt beam="1">  1        2 0.27469995E+00 0.31758162E+03</pdfrwt>
<pdfrwt beam="2">  1       -2 0.82460139E-01 0.31758162E+03</pdfrwt>
<totfact> 0.12831671E+01</totfact>
</mgrwt>
</event>
<event>
 4    1  0.4880711E-008  0.3291301E+03  0.7818608E-02  0.1071522E+00
          2   -1    0    0  501    0  0.00000000000E+00  0.00000000000E+00  0.14874078750E+04  0.14874078750E+04  0.25500000000E-02 0. -1.
         -2   -1    0    0    0  501 -0.00000000000E+00 -0.00000000000E+00 -0.64294411232E+03  0.64294411233E+03  0.25500000000E-02 0.  1.
    8880022    1    1    2    0    0  0.12508101865E+03  0.26322942183E+03  0.14252666323E+04  0.14627753129E+04  0.15294330000E+03 0.  0.
    8880022    1    1    2    0    0 -0.12508101865E+03 -0.26322942183E+03 -0.58080286969E+03  0.66757667440E+03  0.15294330000E+03 0.  0.
<mgrwt>
<rscale>  0 0.32913013E+03</rscale>
<asrwt>0</asrwt>
<pdfrwt beam="1">  1        2 0.22883198E+00 0.32913013E+03</pdfrwt>
<pdfrwt beam="2">  1       -2 0.98914478E-01 0.32913013E+03</pdfrwt>
<totfact> 0.12178562E+01</totfact>
</mgrwt>
</event>
<event>
 4    1  0.4880711E-008  0.7459924E+03  0.7818608E-02  0.9641659E-01
         -2   -1    0    0    0  501 -0.00000000000E+00  0.00000000000E+00  0.60723606789E+03  0.60723606790E+03  0.25500000000E-02 0.  1.
          2   -1    0    0  501    0  0.00000000000E+00 -0.00000000000E+00 -0.16229865605E+04  0.16229865605E+04  0.25500000000E-02 0. -1.
    8880022    1    1    2    0    0  0.62953813190E+03  0.36985766372E+03 -0.12436188693E+04  0.14502042946E+04  0.15294330000E+03 0.  0.
    8880022    1    1    2    0    0 -0.62953813190E+03 -0.36985766372E+03  0.22786837672E+03  0.78001833379E+03  0.15294330000E+03 0.  0.
<mgrwt>
<rscale>  0 0.74599236E+03</rscale>
<asrwt>0</asrwt>
<pdfrwt beam="1">  1        2 0.24969024E+00 0.74599236E+03</pdfrwt>
<pdfrwt beam="2">  1       -2 0.93420934E-01 0.74599236E+03</pdfrwt>
<totfact> 0.10781959E+01</totfact>
</mgrwt>
</event>
<event>
 4    1  0.4880711E-008  0.3358898E+03  0.7818608E-02  0.1068560E+00
         -2   -1    0    0    0  501 -0.00000000000E+00  0.00000000000E+00  0.21016773394E+03  0.21016773396E+03  0.25500000000E-02 0.  1.
          2   -1    0    0  501    0  0.00000000000E+00 -0.00000000000E+00 -0.24983243500E+04  0.24983243500E+04  0.25500000000E-02 0. -1.
    8880022    1    1    2    0    0 -0.17924654866E+02  0.29851134284E+03  0.55884946226E+02  0.34050711488E+03  0.15294330000E+03 0.  0.
    8880022    1    1    2    0    0  0.17924654866E+02 -0.29851134284E+03 -0.23440415623E+04  0.23679849691E+04  0.15294330000E+03 0. -1.
<mgrwt>
<rscale>  0 0.33588982E+03</rscale>
<asrwt>0</asrwt>
<pdfrwt beam="1">  1        2 0.38435757E+00 0.33588982E+03</pdfrwt>
<pdfrwt beam="2">  1       -2 0.32333499E-01 0.33588982E+03</pdfrwt>
<totfact> 0.35363370E+01</totfact>
</mgrwt>
</event>
<event>
 4    1  0.4880711E-008  0.6253740E+03  0.7818608E-02  0.9854118E-01
         -2   -1    0    0    0  501 -0.00000000000E+00  0.00000000000E+00  0.27311854104E+04  0.27311854104E+04  0.25500000000E-02 0.  1.
          2   -1    0    0  501    0  0.00000000000E+00 -0.00000000000E+00 -0.49212585823E+03  0.49212585824E+03  0.25500000000E-02 0. -1.
    8880022    1    1    2    0    0  0.12614903301E+03  0.59311671690E+03  0.24766043579E+04  0.25543417581E+04  0.15294330000E+03 0.  0.
    8880022    1    1    2    0    0 -0.12614903301E+03 -0.59311671690E+03 -0.23754480570E+03  0.66896951061E+03  0.15294330000E+03 0.  0.
<mgrwt>
<rscale>  0 0.62537403E+03</rscale>
<asrwt>0</asrwt>
<pdfrwt beam="1">  1        2 0.75711672E-01 0.62537403E+03</pdfrwt>
<pdfrwt beam="2">  1       -2 0.42018236E+00 0.62537403E+03</pdfrwt>
<totfact> 0.37582264E-01</totfact>
</mgrwt>
</event>
<event>
 4    1  0.4880711E-008  0.2337560E+03  0.7818608E-02  0.1124024E+00
         -2   -1    0    0    0  501 -0.00000000000E+00  0.00000000000E+00  0.23244645493E+03  0.23244645495E+03  0.25500000000E-02 0.  1.
          2   -1    0    0  501    0  0.00000000000E+00 -0.00000000000E+00 -0.69516196883E+03  0.69516196883E+03  0.25500000000E-02 0. -1.
    8880022    1    1    2    0    0 -0.12444798073E+03  0.12555036614E+03 -0.60868023131E+03  0.65202260033E+03  0.15294330000E+03 0.  0.
    8880022    1    1    2    0    0  0.12444798073E+03 -0.12555036614E+03  0.14596471741E+03  0.27558582345E+03  0.15294330000E+03 0.  1.
<mgrwt>
<rscale>  0 0.23375596E+03</rscale>
<asrwt>0</asrwt>
<pdfrwt beam="1">  1        2 0.10694799E+00 0.23375596E+03</pdfrwt>
<pdfrwt beam="2">  1       -2 0.35760993E-01 0.23375596E+03</pdfrwt>
<totfact> 0.31558255E+02</totfact>
</mgrwt>
</event>
<event>
 4    1  0.4880711E-008  0.2072987E+03  0.7818608E-02  0.1143723E+00
         -2   -1    0    0    0  501 -0.00000000000E+00  0.00000000000E+00  0.93764540985E+03  0.93764540985E+03  0.25500000000E-02 0.  1.
          2   -1    0    0  501    0  0.00000000000E+00 -0.00000000000E+00 -0.21866959161E+03  0.21866959163E+03  0.25500000000E-02 0. -1.
    8880022    1    1    2    0    0  0.43865672719E+02 -0.13287931321E+03  0.87349954379E+03  0.89776066696E+03  0.15294330000E+03 0.  0.
    8880022    1    1    2    0    0 -0.43865672719E+02  0.13287931321E+03 -0.15452372556E+03  0.25855433452E+03  0.15294330000E+03 0.  0.
<mgrwt>
<rscale>  0 0.20729873E+03</rscale>
<asrwt>0</asrwt>
<pdfrwt beam="1">  1        2 0.33641475E-01 0.20729873E+03</pdfrwt>
<pdfrwt beam="2">  1       -2 0.14425314E+00 0.20729873E+03</pdfrwt>
<totfact> 0.55100240E+01</totfact>
</mgrwt>
</event>
<event>
 4    1  0.4880711E-008  0.5015416E+03  0.7818608E-02  0.1013377E+00
         -2   -1    0    0    0  501 -0.00000000000E+00  0.00000000000E+00  0.23709295968E+04  0.23709295968E+04  0.25500000000E-02 0.  1.
          2   -1    0    0  501    0  0.00000000000E+00 -0.00000000000E+00 -0.74468894043E+03  0.74468894044E+03  0.25500000000E-02 0. -1.
    8880022    1    1    2    0    0 -0.45876789707E+03 -0.13298263782E+03  0.22556979578E+04  0.23107828317E+04  0.15294330000E+03 0.  0.
    8880022    1    1    2    0    0  0.45876789707E+03  0.13298263782E+03 -0.62945730152E+03  0.80483570547E+03  0.15294330000E+03 0.  0.
<mgrwt>
<rscale>  0 0.50154164E+03</rscale>
<asrwt>0</asrwt>
<pdfrwt beam="1">  1        2 0.11456753E+00 0.50154164E+03</pdfrwt>
<pdfrwt beam="2">  1       -2 0.36475841E+00 0.50154164E+03</pdfrwt>
<totfact> 0.53516422E-01</totfact>
</mgrwt>
</event>
<event>
 4    1  0.4880711E-008  0.4786397E+03  0.7818608E-02  0.1019510E+00
          2   -1    0    0  501    0  0.00000000000E+00  0.00000000000E+00  0.20517411932E+03  0.20517411933E+03  0.25500000000E-02 0. -1.
         -2   -1    0    0    0  501 -0.00000000000E+00 -0.00000000000E+00 -0.18569789204E+04  0.18569789204E+04  0.25500000000E-02 0.  1.
    8880022    1    1    2    0    0 -0.31319262932E+03  0.32804676681E+03 -0.17484912836E+03  0.50957646627E+03  0.15294330000E+03 0.  0.
    8880022    1    1    2    0    0  0.31319262932E+03 -0.32804676681E+03 -0.14769556728E+04  0.15525765735E+04  0.15294330000E+03 0.  1.
<mgrwt>
<rscale>  0 0.47863969E+03</rscale>
<asrwt>0</asrwt>
<pdfrwt beam="1">  1        2 0.31565250E-01 0.47863969E+03</pdfrwt>
<pdfrwt beam="2">  1       -2 0.28568905E+00 0.47863969E+03</pdfrwt>
<totfact> 0.70325106E+00</totfact>
</mgrwt>
</event>
<event>
 4    1  0.4880711E-008  0.8084910E+03  0.7818608E-02  0.9547807E-01
          2   -1    0    0  501    0  0.00000000000E+00  0.00000000000E+00  0.17592741557E+04  0.17592741557E+04  0.25500000000E-02 0. -1.
         -2   -1    0    0    0  501 -0.00000000000E+00 -0.00000000000E+00 -0.99429688090E+03  0.99429688090E+03  0.25500000000E-02 0.  1.
    8880022    1    1    2    0    0  0.72757041805E+03  0.31765909939E+03 -0.70710399665E+03  0.10740827397E+04  0.15294330000E+03 0.  0.
    8880022    1    1    2    0    0 -0.72757041805E+03 -0.31765909939E+03  0.14720812714E+04  0.16794882969E+04  0.15294330000E+03 0.  0.
<mgrwt>
<rscale>  0 0.80849098E+03</rscale>
<asrwt>0</asrwt>
<pdfrwt beam="1">  1        2 0.27065756E+00 0.80849098E+03</pdfrwt>
<pdfrwt beam="2">  1       -2 0.15296875E+00 0.80849098E+03</pdfrwt>
<totfact> 0.26429768E+00</totfact>
</mgrwt>
</event>
<event>
 4    1  0.4880711E-008  0.9624768E+03  0.7818608E-02  0.9350685E-01
         -2   -1    0    0    0  501 -0.00000000000E+00  0.00000000000E+00  0.52402472532E+03  0.52402472533E+03  0.25500000000E-02 0.  1.
          2   -1    0    0  501    0  0.00000000000E+00 -0.00000000000E+00 -0.24247922300E+04  0.24247922300E+04  0.25500000000E-02 0. -1.
    8880022    1    1    2    0    0  0.85118814779E+03 -0.42243194907E+03 -0.18290475551E+03  0.97970190218E+03  0.15294330000E+03 0.  0.
    8880022    1    1    2    0    0 -0.85118814779E+03  0.42243194907E+03 -0.17178627491E+04  0.19691150531E+04  0.15294330000E+03 0.  0.
<mgrwt>
<rscale>  0 0.96247684E+03</rscale>
<asrwt>0</asrwt>
<pdfrwt beam="1">  1        2 0.37304495E+00 0.96247684E+03</pdfrwt>
<pdfrwt beam="2">  1       -2 0.80619190E-01 0.96247684E+03</pdfrwt>
<totfact> 0.52989242E+00</totfact>
</mgrwt>
</event>
<event>
 4    1  0.4880711E-008  0.3447047E+03  0.7818608E-02  0.1064810E+00
         -2   -1    0    0    0  501 -0.00000000000E+00  0.00000000000E+00  0.36821604807E+03  0.36821604808E+03  0.25500000000E-02 0.  1.
          2   -1    0    0  501    0  0.00000000000E+00 -0.00000000000E+00 -0.49081929700E+03  0.49081929700E+03  0.25500000000E-02 0. -1.
    8880022    1    1    2    0    0 -0.30844190448E+03 -0.17125419543E+02  0.19008139676E+03  0.39363978311E+03  0.15294330000E+03 0.  0.
    8880022    1    1    2    0    0  0.30844190448E+03  0.17125419543E+02 -0.31268464569E+03  0.46539556197E+03  0.15294330000E+03 0.  0.
<mgrwt>
<rscale>  0 0.34470472E+03</rscale>
<asrwt>0</asrwt>
<pdfrwt beam="1">  1        2 0.75510661E-01 0.34470472E+03</pdfrwt>
<pdfrwt beam="2">  1       -2 0.56648623E-01 0.34470472E+03</pdfrwt>
<totfact> 0.18993672E+02</totfact>
</mgrwt>
</event>
<event>
 4    1  0.4880711E-008  0.3863831E+03  0.7818608E-02  0.1048599E+00
          2   -1    0    0  501    0  0.00000000000E+00  0.00000000000E+00  0.24929010960E+04  0.24929010960E+04  0.25500000000E-02 0. -1.
         -2   -1    0    0    0  501 -0.00000000000E+00 -0.00000000000E+00 -0.27095048613E+03  0.27095048614E+03  0.25500000000E-02 0.  1.
    8880022    1    1    2    0    0  0.35127271234E+03 -0.50077523986E+02  0.23306569531E+04  0.23624677273E+04  0.15294330000E+03 0.  0.
    8880022    1    1    2    0    0 -0.35127271234E+03  0.50077523986E+02 -0.10870634318E+03  0.40138385481E+03  0.15294330000E+03 0.  0.
<mgrwt>
<rscale>  0 0.38638314E+03</rscale>
<asrwt>0</asrwt>
<pdfrwt beam="1">  1        2 0.38352325E+00 0.38638314E+03</pdfrwt>
<pdfrwt beam="2">  1       -2 0.41684690E-01 0.38638314E+03</pdfrwt>
<totfact> 0.21640579E+01</totfact>
</mgrwt>
</event>
<event>
 4    1  0.4880711E-008  0.3460765E+03  0.7818608E-02  0.1064237E+00
          2   -1    0    0  501    0  0.00000000000E+00  0.00000000000E+00  0.37530608592E+04  0.37530608592E+04  0.25500000000E-02 0. -1.
         -2   -1    0    0    0  501 -0.00000000000E+00 -0.00000000000E+00 -0.12539572628E+03  0.12539572631E+03  0.25500000000E-02 0.  1.
    8880022    1    1    2    0    0 -0.18246552685E+03 -0.25116451455E+03  0.13944958589E+03  0.37311542702E+03  0.15294330000E+03 0.  0.
    8880022    1    1    2    0    0  0.18246552685E+03  0.25116451455E+03  0.34882155470E+04  0.35053411585E+04  0.15294330000E+03 0. -1.
<mgrwt>
<rscale>  0 0.34607649E+03</rscale>
<asrwt>0</asrwt>
<pdfrwt beam="1">  1        2 0.57739397E+00 0.34607649E+03</pdfrwt>
<pdfrwt beam="2">  1       -2 0.19291650E-01 0.34607649E+03</pdfrwt>
<totfact> 0.14772550E+01</totfact>
</mgrwt>
</event>
<event>
 4    1  0.4880711E-008  0.6178007E+03  0.7818608E-02  0.9869148E-01
          2   -1    0    0  501    0  0.00000000000E+00  0.00000000000E+00  0.17870325642E+04  0.17870325642E+04  0.25500000000E-02 0. -1.
         -2   -1    0    0    0  501 -0.00000000000E+00 -0.00000000000E+00 -0.37079120056E+03  0.37079120057E+03  0.25500000000E-02 0.  1.
    8880022    1    1    2    0    0  0.57921611116E+03 -0.15097909515E+03  0.14106436268E+04  0.15399977551E+04  0.15294330000E+03 0.  0.
    8880022    1    1    2    0    0 -0.57921611116E+03  0.15097909515E+03  0.55977367890E+01  0.61782600970E+03  0.15294330000E+03 0.  0.
<mgrwt>
<rscale>  0 0.61780065E+03</rscale>
<asrwt>0</asrwt>
<pdfrwt beam="1">  1        2 0.27492809E+00 0.61780065E+03</pdfrwt>
<pdfrwt beam="2">  1       -2 0.57044800E-01 0.61780065E+03</pdfrwt>
<totfact> 0.26486009E+01</totfact>
</mgrwt>
</event>
<event>
 4    1  0.4880711E-008  0.4967365E+03  0.7818608E-02  0.1014634E+00
         -2   -1    0    0    0  501 -0.00000000000E+00  0.00000000000E+00  0.12839048472E+03  0.12839048475E+03  0.25500000000E-02 0.  1.
          2   -1    0    0  501    0  0.00000000000E+00 -0.00000000000E+00 -0.20401943610E+04  0.20401943610E+04  0.25500000000E-02 0. -1.
    8880022    1    1    2    0    0 -0.46822791769E+03  0.64172870592E+02 -0.12170490886E+04  0.13145172792E+04  0.15294330000E+03 0.  0.
    8880022    1    1    2    0    0  0.46822791769E+03 -0.64172870592E+02 -0.69475478764E+03  0.85406756652E+03  0.15294330000E+03 0.  0.
<mgrwt>
<rscale>  0 0.49673654E+03</rscale>
<asrwt>0</asrwt>
<pdfrwt beam="1">  1        2 0.31387603E+00 0.49673654E+03</pdfrwt>
<pdfrwt beam="2">  1       -2 0.19752384E-01 0.49673654E+03</pdfrwt>
<totfact> 0.14633540E+02</totfact>
</mgrwt>
</event>
<event>
 4    1  0.4880711E-008  0.2854647E+03  0.7818608E-02  0.1092741E+00
         -2   -1    0    0    0  501 -0.00000000000E+00  0.00000000000E+00  0.15058739103E+04  0.15058739103E+04  0.25500000000E-02 0.  1.
          2   -1    0    0  501    0  0.00000000000E+00 -0.00000000000E+00 -0.20387735168E+03  0.20387735169E+03  0.25500000000E-02 0. -1.
    8880022    1    1    2    0    0 -0.17980892540E+03 -0.16052168443E+03 -0.81691299422E+02  0.29692352928E+03  0.15294330000E+03 0.  0.
    8880022    1    1    2    0    0  0.17980892540E+03  0.16052168443E+03  0.13836878580E+04  0.14128277327E+04  0.15294330000E+03 0.  0.
<mgrwt>
<rscale>  0 0.28546473E+03</rscale>
<asrwt>0</asrwt>
<pdfrwt beam="1">  1        2 0.31365748E-01 0.28546473E+03</pdfrwt>
<pdfrwt beam="2">  1       -2 0.23167290E+00 0.28546473E+03</pdfrwt>
<totfact> 0.15417907E+01</totfact>
</mgrwt>
</event>
<event>
 4    1  0.4880711E-008  0.2310876E+03  0.7818608E-02  0.1125877E+00
          2   -1    0    0  501    0  0.00000000000E+00  0.00000000000E+00  0.24109344737E+04  0.24109344737E+04  0.25500000000E-02 0. -1.
         -2   -1    0    0    0  501 -0.00000000000E+00 -0.00000000000E+00 -0.85373328909E+02  0.85373328947E+02  0.25500000000E-02 0.  1.
    8880022    1    1    2    0    0  0.86873695561E+02  0.14987592459E+03  0.22368855447E+04  0.22487904359E+04  0.15294330000E+03 0. -1.
    8880022    1    1    2    0    0 -0.86873695561E+02 -0.14987592459E+03  0.88675600106E+02  0.24751736670E+03  0.15294330000E+03 0.  0.
<mgrwt>
<rscale>  0 0.23108761E+03</rscale>
<asrwt>0</asrwt>
<pdfrwt beam="1">  1        2 0.37091296E+00 0.23108761E+03</pdfrwt>
<pdfrwt beam="2">  1       -2 0.13134360E-01 0.23108761E+03</pdfrwt>
<totfact> 0.19434721E+02</totfact>
</mgrwt>
</event>
<event>
 4    1  0.4880711E-008  0.3145529E+03  0.7818608E-02  0.1078184E+00
         -2   -1    0    0    0  501 -0.00000000000E+00  0.00000000000E+00  0.59985910193E+03  0.59985910193E+03  0.25500000000E-02 0.  1.
          2   -1    0    0  501    0  0.00000000000E+00 -0.00000000000E+00 -0.94744030661E+03  0.94744030661E+03  0.25500000000E-02 0. -1.
    8880022    1    1    2    0    0  0.27486039213E+03 -0.19099214231E+01  0.52929695070E+03  0.61570999504E+03  0.15294330000E+03 0.  0.
    8880022    1    1    2    0    0 -0.27486039213E+03  0.19099214231E+01 -0.87687815537E+03  0.93158941350E+03  0.15294330000E+03 0.  0.
<mgrwt>
<rscale>  0 0.31455291E+03</rscale>
<asrwt>0</asrwt>
<pdfrwt beam="1">  1        2 0.14576005E+00 0.31455291E+03</pdfrwt>
<pdfrwt beam="2">  1       -2 0.92286016E-01 0.31455291E+03</pdfrwt>
<totfact> 0.29394820E+01</totfact>
</mgrwt>
</event>
<event>
 4    1  0.4880711E-008  0.4688771E+03  0.7818608E-02  0.1022238E+00
          2   -1    0    0  501    0  0.00000000000E+00  0.00000000000E+00  0.13399303773E+04  0.13399303773E+04  0.25500000000E-02 0. -1.
         -2   -1    0    0    0  501 -0.00000000000E+00 -0.00000000000E+00 -0.31434836065E+03  0.31434836066E+03  0.25500000000E-02 0.  1.
    8880022    1    1    2    0    0  0.27892927629E+03 -0.34445979515E+03 -0.59105816122E+02  0.47258781424E+03  0.15294330000E+03 0.  0.
    8880022    1    1    2    0    0 -0.27892927629E+03  0.34445979515E+03  0.10846878328E+04  0.11816909237E+04  0.15294330000E+03 0.  0.
<mgrwt>
<rscale>  0 0.46887711E+03</rscale>
<asrwt>0</asrwt>
<pdfrwt beam="1">  1        2 0.20614314E+00 0.46887711E+03</pdfrwt>
<pdfrwt beam="2">  1       -2 0.48361286E-01 0.46887711E+03</pdfrwt>
<totfact> 0.66824901E+01</totfact>
</mgrwt>
</event>
<event>
 4    1  0.4880711E-008  0.2450633E+03  0.7818608E-02  0.1116465E+00
          2   -1    0    0  501    0  0.00000000000E+00  0.00000000000E+00  0.37859941480E+04  0.37859941480E+04  0.25500000000E-02 0. -1.
         -2   -1    0    0    0  501 -0.00000000000E+00 -0.00000000000E+00 -0.62372132423E+02  0.62372132475E+02  0.25500000000E-02 0.  1.
    8880022    1    1    2    0    0  0.18451876334E+03 -0.51158352061E+02  0.35233928362E+04  0.35319050217E+04  0.15294330000E+03 0. -1.
    8880022    1    1    2    0    0 -0.18451876334E+03  0.51158352061E+02  0.20022917931E+03  0.31646125872E+03  0.15294330000E+03 0.  0.
<mgrwt>
<rscale>  0 0.24506327E+03</rscale>
<asrwt>0</asrwt>
<pdfrwt beam="1">  1        2 0.58246054E+00 0.24506327E+03</pdfrwt>
<pdfrwt beam="2">  1       -2 0.95957144E-02 0.24506327E+03</pdfrwt>
<totfact> 0.46398819E+01</totfact>
</mgrwt>
</event>
<event>
 4    1  0.4880711E-008  0.7691407E+03  0.7818608E-02  0.9605791E-01
          2   -1    0    0  501    0  0.00000000000E+00  0.00000000000E+00  0.11418667800E+04  0.11418667800E+04  0.25500000000E-02 0. -1.
         -2   -1    0    0    0  501 -0.00000000000E+00 -0.00000000000E+00 -0.86205335751E+03  0.86205335751E+03  0.25500000000E-02 0.  1.
    8880022    1    1    2    0    0 -0.67363014658E+03  0.33824284150E+03  0.77282294800E+03  0.10903360749E+04  0.15294330000E+03 0.  0.
    8880022    1    1    2    0    0  0.67363014658E+03 -0.33824284150E+03 -0.49300952553E+03  0.91358406262E+03  0.15294330000E+03 0.  0.
<mgrwt>
<rscale>  0 0.76914072E+03</rscale>
<asrwt>0</asrwt>
<pdfrwt beam="1">  1        2 0.17567181E+00 0.76914072E+03</pdfrwt>
<pdfrwt beam="2">  1       -2 0.13262359E+00 0.76914072E+03</pdfrwt>
<totfact> 0.86207197E+00</totfact>
</mgrwt>
</event>
<event>
 4    1  0.4880711E-008  0.5255425E+03  0.7818608E-02  0.1007319E+00
         -2   -1    0    0    0  501 -0.00000000000E+00  0.00000000000E+00  0.17089504853E+04  0.17089504853E+04  0.25500000000E-02 0.  1.
          2   -1    0    0  501    0  0.00000000000E+00 -0.00000000000E+00 -0.44353000664E+03  0.44353000664E+03  0.25500000000E-02 0. -1.
    8880022    1    1    2    0    0 -0.20732065025E+03 -0.45806270287E+03  0.14907462394E+04  0.15806705207E+04  0.15294330000E+03 0.  1.
    8880022    1    1    2    0    0  0.20732065025E+03  0.45806270287E+03 -0.22532576070E+03  0.57180997126E+03  0.15294330000E+03 0.  0.
<mgrwt>
<rscale>  0 0.52554252E+03</rscale>
<asrwt>0</asrwt>
<pdfrwt beam="1">  1        2 0.68235385E-01 0.52554252E+03</pdfrwt>
<pdfrwt beam="2">  1       -2 0.26291546E+00 0.52554252E+03</pdfrwt>
<totfact> 0.40504096E+00</totfact>
</mgrwt>
</event>
<event>
 4    1  0.4880711E-008  0.4025787E+03  0.7818608E-02  0.1042890E+00
         -2   -1    0    0    0  501 -0.00000000000E+00  0.00000000000E+00  0.48303647719E+03  0.48303647719E+03  0.25500000000E-02 0.  1.
          2   -1    0    0  501    0  0.00000000000E+00 -0.00000000000E+00 -0.18876856389E+04  0.18876856389E+04  0.25500000000E-02 0. -1.
    8880022    1    1    2    0    0  0.35593808634E+03 -0.10948061341E+03 -0.17771910381E+04  0.18222177600E+04  0.15294330000E+03 0.  0.
    8880022    1    1    2    0    0 -0.35593808634E+03  0.10948061341E+03  0.37254187635E+03  0.54850435611E+03  0.15294330000E+03 0.  0.
<mgrwt>
<rscale>  0 0.40257866E+03</rscale>
<asrwt>0</asrwt>
<pdfrwt beam="1">  1        2 0.29041317E+00 0.40257866E+03</pdfrwt>
<pdfrwt beam="2">  1       -2 0.74313305E-01 0.40257866E+03</pdfrwt>
<totfact> 0.13888360E+01</totfact>
</mgrwt>
</event>
<event>
 4    1  0.4880711E-008  0.4785639E+03  0.7818608E-02  0.1019531E+00
          2   -1    0    0  501    0  0.00000000000E+00  0.00000000000E+00  0.33940779448E+04  0.33940779448E+04  0.25500000000E-02 0. -1.
         -2   -1    0    0    0  501 -0.00000000000E+00 -0.00000000000E+00 -0.13415201566E+03  0.13415201568E+03  0.25500000000E-02 0.  1.
    8880022    1    1    2    0    0 -0.16136573496E+03 -0.42378391898E+03  0.28736431957E+04  0.29132196243E+04  0.15294330000E+03 0.  0.
    8880022    1    1    2    0    0  0.16136573496E+03  0.42378391898E+03  0.38628273345E+03  0.61501033616E+03  0.15294330000E+03 0.  0.
<mgrwt>
<rscale>  0 0.47856386E+03</rscale>
<asrwt>0</asrwt>
<pdfrwt beam="1">  1        2 0.52216583E+00 0.47856386E+03</pdfrwt>
<pdfrwt beam="2">  1       -2 0.20638772E-01 0.47856386E+03</pdfrwt>
<totfact> 0.22105037E+01</totfact>
</mgrwt>
</event>
<event>
 4    1  0.4880711E-008  0.4663724E+03  0.7818608E-02  0.1022949E+00
         -2   -1    0    0    0  501 -0.00000000000E+00  0.00000000000E+00  0.11325679917E+04  0.11325679917E+04  0.25500000000E-02 0.  1.
          2   -1    0    0  501    0  0.00000000000E+00 -0.00000000000E+00 -0.10563878107E+04  0.10563878107E+04  0.25500000000E-02 0. -1.
    8880022    1    1    2    0    0 -0.34747326687E+03 -0.27087622491E+03  0.10280975990E+04  0.11289322064E+04  0.15294330000E+03 0.  0.
    8880022    1    1    2    0    0  0.34747326687E+03  0.27087622491E+03 -0.95191741805E+03  0.10600235961E+04  0.15294330000E+03 0.  0.
<mgrwt>
<rscale>  0 0.46637244E+03</rscale>
<asrwt>0</asrwt>
<pdfrwt beam="1">  1        2 0.16252120E+00 0.46637244E+03</pdfrwt>
<pdfrwt beam="2">  1       -2 0.17424123E+00 0.46637244E+03</pdfrwt>
<totfact> 0.49554910E+00</totfact>
</mgrwt>
</event>
<event>
 4    1  0.4880711E-008  0.5254929E+03  0.7818608E-02  0.1007331E+00
         -2   -1    0    0    0  501 -0.00000000000E+00  0.00000000000E+00  0.71355154836E+03  0.71355154836E+03  0.25500000000E-02 0.  1.
          2   -1    0    0  501    0  0.00000000000E+00 -0.00000000000E+00 -0.48743155467E+03  0.48743155467E+03  0.25500000000E-02 0. -1.
    8880022    1    1    2    0    0 -0.17762724680E+03  0.47031872818E+03  0.38563760589E+03  0.65181221297E+03  0.15294330000E+03 0.  0.
    8880022    1    1    2    0    0  0.17762724680E+03 -0.47031872818E+03 -0.15951761220E+03  0.54917089007E+03  0.15294330000E+03 0.  0.
<mgrwt>
<rscale>  0 0.52549291E+03</rscale>
<asrwt>0</asrwt>
<pdfrwt beam="1">  1        2 0.74989470E-01 0.52549291E+03</pdfrwt>
<pdfrwt beam="2">  1       -2 0.10977716E+00 0.52549291E+03</pdfrwt>
<totfact> 0.43164765E+01</totfact>
</mgrwt>
</event>
<event>
 4    1  0.4880711E-008  0.7914276E+03  0.7818608E-02  0.9572509E-01
         -2   -1    0    0    0  501 -0.00000000000E+00  0.00000000000E+00  0.72861541125E+03  0.72861541125E+03  0.25500000000E-02 0.  1.
          2   -1    0    0  501    0  0.00000000000E+00 -0.00000000000E+00 -0.14137622407E+04  0.14137622407E+04  0.25500000000E-02 0. -1.
    8880022    1    1    2    0    0 -0.64391132036E+03  0.43398650125E+03  0.32804402224E+03  0.85672084444E+03  0.15294330000E+03 0.  0.
    8880022    1    1    2    0    0  0.64391132036E+03 -0.43398650125E+03 -0.10131908517E+04  0.12856568075E+04  0.15294330000E+03 0.  0.
<mgrwt>
<rscale>  0 0.79142765E+03</rscale>
<asrwt>0</asrwt>
<pdfrwt beam="1">  1        2 0.21750188E+00 0.79142765E+03</pdfrwt>
<pdfrwt beam="2">  1       -2 0.11209468E+00 0.79142765E+03</pdfrwt>
<totfact> 0.90765984E+00</totfact>
</mgrwt>
</event>
<event>
 4    1  0.4880711E-008  0.5686012E+03  0.7818608E-02  0.9972779E-01
         -2   -1    0    0    0  501 -0.00000000000E+00  0.00000000000E+00  0.22211552605E+03  0.22211552607E+03  0.25500000000E-02 0.  1.
          2   -1    0    0  501    0  0.00000000000E+00 -0.00000000000E+00 -0.17713936083E+04  0.17713936083E+04  0.25500000000E-02 0. -1.
    8880022    1    1    2    0    0 -0.52497696393E+03 -0.15593221456E+03 -0.11955060346E+04  0.13238360925E+04  0.15294330000E+03 0.  0.
    8880022    1    1    2    0    0  0.52497696393E+03  0.15593221456E+03 -0.35377204762E+03  0.66967304177E+03  0.15294330000E+03 0.  0.
<mgrwt>
<rscale>  0 0.56860120E+03</rscale>
<asrwt>0</asrwt>
<pdfrwt beam="1">  1        2 0.27252208E+00 0.56860120E+03</pdfrwt>
<pdfrwt beam="2">  1       -2 0.34171621E-01 0.56860120E+03</pdfrwt>
<totfact> 0.75107989E+01</totfact>
</mgrwt>
</event>
<event>
 4    1  0.4880711E-008  0.2572593E+03  0.7818608E-02  0.1108801E+00
          2   -1    0    0  501    0  0.00000000000E+00  0.00000000000E+00  0.28958248993E+04  0.28958248993E+04  0.25500000000E-02 0. -1.
         -2   -1    0    0    0  501 -0.00000000000E+00 -0.00000000000E+00 -0.44570480766E+03  0.44570480766E+03  0.25500000000E-02 0.  1.
    8880022    1    1    2    0    0  0.20662671037E+03 -0.98040285663E+01  0.28524253149E+04  0.28640028887E+04  0.15294330000E+03 0.  0.
    8880022    1    1    2    0    0 -0.20662671037E+03  0.98040285663E+01 -0.40230522330E+03  0.47752681822E+03  0.15294330000E+03 0.  1.
<mgrwt>
<rscale>  0 0.25725934E+03</rscale>
<asrwt>0</asrwt>
<pdfrwt beam="1">  1        2 0.44551152E+00 0.25725934E+03</pdfrwt>
<pdfrwt beam="2">  1       -2 0.68569970E-01 0.25725934E+03</pdfrwt>
<totfact> 0.49076433E+00</totfact>
</mgrwt>
</event>
<event>
 4    1  0.4880711E-008  0.7032572E+03  0.7818608E-02  0.9711678E-01
          2   -1    0    0  501    0  0.00000000000E+00  0.00000000000E+00  0.15608627952E+04  0.15608627952E+04  0.25500000000E-02 0. -1.
         -2   -1    0    0    0  501 -0.00000000000E+00 -0.00000000000E+00 -0.82280186899E+03  0.82280186899E+03  0.25500000000E-02 0.  1.
    8880022    1    1    2    0    0 -0.31061705749E+03 -0.61212418371E+03  0.13036159598E+04  0.14812107198E+04  0.15294330000E+03 0.  0.
    8880022    1    1    2    0    0  0.31061705749E+03  0.61212418371E+03 -0.56555503362E+03  0.90245394440E+03  0.15294330000E+03 0.  0.
<mgrwt>
<rscale>  0 0.70325715E+03</rscale>
<asrwt>0</asrwt>
<pdfrwt beam="1">  1        2 0.24013274E+00 0.70325715E+03</pdfrwt>
<pdfrwt beam="2">  1       -2 0.12658490E+00 0.70325715E+03</pdfrwt>
<totfact> 0.56341034E+00</totfact>
</mgrwt>
</event>
<event>
 4    1  0.4880711E-008  0.5298993E+03  0.7818608E-02  0.1006257E+00
         -2   -1    0    0    0  501 -0.00000000000E+00  0.00000000000E+00  0.81553137327E+03  0.81553137328E+03  0.25500000000E-02 0.  1.
          2   -1    0    0  501    0  0.00000000000E+00 -0.00000000000E+00 -0.87908056905E+03  0.87908056905E+03  0.25500000000E-02 0. -1.
    8880022    1    1    2    0    0 -0.50705782784E+03 -0.17145222757E+02  0.62908750512E+03  0.82252315563E+03  0.15294330000E+03 0.  0.
    8880022    1    1    2    0    0  0.50705782784E+03  0.17145222757E+02 -0.69263670090E+03  0.87208878670E+03  0.15294330000E+03 0.  0.
<mgrwt>
<rscale>  0 0.52989929E+03</rscale>
<asrwt>0</asrwt>
<pdfrwt beam="1">  1        2 0.13524316E+00 0.52989929E+03</pdfrwt>
<pdfrwt beam="2">  1       -2 0.12546636E+00 0.52989929E+03</pdfrwt>
<totfact> 0.15033360E+01</totfact>
</mgrwt>
</event>
<event>
 4    1  0.4880711E-008  0.4281291E+03  0.7818608E-02  0.1034453E+00
         -2   -1    0    0    0  501 -0.00000000000E+00  0.00000000000E+00  0.48153599276E+03  0.48153599277E+03  0.25500000000E-02 0.  1.
          2   -1    0    0  501    0  0.00000000000E+00 -0.00000000000E+00 -0.36538397717E+04  0.36538397717E+04  0.25500000000E-02 0. -1.
    8880022    1    1    2    0    0 -0.20584030408E+03 -0.34283036089E+03  0.37087196824E+03  0.56642789212E+03  0.15294330000E+03 0.  0.
    8880022    1    1    2    0    0  0.20584030408E+03  0.34283036089E+03 -0.35431757472E+04  0.35689478724E+04  0.15294330000E+03 0.  0.
<mgrwt>
<rscale>  0 0.42812912E+03</rscale>
<asrwt>0</asrwt>
<pdfrwt beam="1">  1        2 0.56212918E+00 0.42812912E+03</pdfrwt>
<pdfrwt beam="2">  1       -2 0.74082463E-01 0.42812912E+03</pdfrwt>
<totfact> 0.12570691E+00</totfact>
</mgrwt>
</event>
<event>
 4    1  0.4880711E-008  0.5571150E+03  0.7818608E-02  0.9998604E-01
          2   -1    0    0  501    0  0.00000000000E+00  0.00000000000E+00  0.32262038712E+04  0.32262038712E+04  0.25500000000E-02 0. -1.
         -2   -1    0    0    0  501 -0.00000000000E+00 -0.00000000000E+00 -0.20784105151E+03  0.20784105153E+03  0.25500000000E-02 0.  1.
    8880022    1    1    2    0    0  0.90281006720E+02  0.52804811029E+03  0.27675632383E+04  0.28230804803E+04  0.15294330000E+03 0.  0.
    8880022    1    1    2    0    0 -0.90281006720E+02 -0.52804811029E+03  0.25079958143E+03  0.61096444252E+03  0.15294330000E+03 0.  0.
<mgrwt>
<rscale>  0 0.55711500E+03</rscale>
<asrwt>0</asrwt>
<pdfrwt beam="1">  1        2 0.49633905E+00 0.55711500E+03</pdfrwt>
<pdfrwt beam="2">  1       -2 0.31975547E-01 0.55711500E+03</pdfrwt>
<totfact> 0.12626937E+01</totfact>
</mgrwt>
</event>
<event>
 4    1  0.4880711E-008  0.5167603E+03  0.7818608E-02  0.1009495E+00
         -2   -1    0    0    0  501 -0.00000000000E+00  0.00000000000E+00  0.25482385490E+03  0.25482385491E+03  0.25500000000E-02 0.  1.
          2   -1    0    0  501    0  0.00000000000E+00 -0.00000000000E+00 -0.29091114486E+04  0.29091114486E+04  0.25500000000E-02 0. -1.
    8880022    1    1    2    0    0  0.29962143939E+03 -0.39227096002E+03 -0.61795378580E+02  0.52044196107E+03  0.15294330000E+03 0.  0.
    8880022    1    1    2    0    0 -0.29962143939E+03  0.39227096002E+03 -0.25924922151E+04  0.26434933424E+04  0.15294330000E+03 0.  0.
<mgrwt>
<rscale>  0 0.51676026E+03</rscale>
<asrwt>0</asrwt>
<pdfrwt beam="1">  1        2 0.44755558E+00 0.51676026E+03</pdfrwt>
<pdfrwt beam="2">  1       -2 0.39203672E-01 0.51676026E+03</pdfrwt>
<totfact> 0.13564687E+01</totfact>
</mgrwt>
</event>
<event>
 4    1  0.4880711E-008  0.8567079E+03  0.7818608E-02  0.9481378E-01
         -2   -1    0    0    0  501 -0.00000000000E+00  0.00000000000E+00  0.77253615798E+03  0.77253615798E+03  0.25500000000E-02 0.  1.
          2   -1    0    0  501    0  0.00000000000E+00 -0.00000000000E+00 -0.18773630967E+04  0.18773630967E+04  0.25500000000E-02 0. -1.
    8880022    1    1    2    0    0  0.13567241246E+03  0.83195538458E+03 -0.14836034446E+04  0.17131922248E+04  0.15294330000E+03 0.  0.
    8880022    1    1    2    0    0 -0.13567241246E+03 -0.83195538458E+03  0.37877650583E+03  0.93670702988E+03  0.15294330000E+03 0.  0.
<mgrwt>
<rscale>  0 0.85670790E+03</rscale>
<asrwt>0</asrwt>
<pdfrwt beam="1">  1        2 0.28882509E+00 0.85670790E+03</pdfrwt>
<pdfrwt beam="2">  1       -2 0.11885172E+00 0.85670790E+03</pdfrwt>
<totfact> 0.43212376E+00</totfact>
</mgrwt>
</event>
<event>
 4    1  0.4880711E-008  0.1256936E+04  0.7818608E-02  0.9064430E-01
         -2   -1    0    0    0  501 -0.00000000000E+00  0.00000000000E+00  0.69158531378E+03  0.69158531378E+03  0.25500000000E-02 0.  1.
          2   -1    0    0  501    0  0.00000000000E+00 -0.00000000000E+00 -0.26522652925E+04  0.26522652925E+04  0.25500000000E-02 0. -1.
    8880022    1    1    2    0    0  0.10571823515E+04 -0.66246581247E+03 -0.16029663406E+04  0.20370047175E+04  0.15294330000E+03 0.  0.
    8880022    1    1    2    0    0 -0.10571823515E+04  0.66246581247E+03 -0.35771363810E+03  0.13068458888E+04  0.15294330000E+03 0.  0.
<mgrwt>
<rscale>  0 0.12569356E+04</rscale>
<asrwt>0</asrwt>
<pdfrwt beam="1">  1        2 0.40804081E+00 0.12569356E+04</pdfrwt>
<pdfrwt beam="2">  1       -2 0.10639774E+00 0.12569356E+04</pdfrwt>
<totfact> 0.19734865E+00</totfact>
</mgrwt>
</event>
<event>
 4    1  0.4880711E-008  0.6395651E+03  0.7818608E-02  0.9826559E-01
         -2   -1    0    0    0  501 -0.00000000000E+00  0.00000000000E+00  0.39026641051E+03  0.39026641052E+03  0.25500000000E-02 0.  1.
          2   -1    0    0  501    0  0.00000000000E+00 -0.00000000000E+00 -0.18841064816E+04  0.18841064816E+04  0.25500000000E-02 0. -1.
    8880022    1    1    2    0    0  0.90909350522E+02 -0.61431864603E+03  0.10575753872E+02  0.63965256855E+03  0.15294330000E+03 0.  1.
    8880022    1    1    2    0    0 -0.90909350522E+02  0.61431864603E+03 -0.15044158249E+04  0.16347203236E+04  0.15294330000E+03 0.  0.
<mgrwt>
<rscale>  0 0.63956513E+03</rscale>
<asrwt>0</asrwt>
<pdfrwt beam="1">  1        2 0.28986253E+00 0.63956513E+03</pdfrwt>
<pdfrwt beam="2">  1       -2 0.60040987E-01 0.63956513E+03</pdfrwt>
<totfact> 0.21006568E+01</totfact>
</mgrwt>
</event>
<event>
 4    1  0.4880711E-008  0.3313039E+03  0.7818608E-02  0.1070561E+00
         -2   -1    0    0    0  501 -0.00000000000E+00  0.00000000000E+00  0.55863518382E+03  0.55863518383E+03  0.25500000000E-02 0.  1.
          2   -1    0    0  501    0  0.00000000000E+00 -0.00000000000E+00 -0.24801026635E+03  0.24801026636E+03  0.25500000000E-02 0. -1.
    8880022    1    1    2    0    0 -0.72323381487E+02  0.28485074167E+03  0.33915108727E+03  0.47411573434E+03  0.15294330000E+03 0.  0.
    8880022    1    1    2    0    0  0.72323381487E+02 -0.28485074167E+03 -0.28526169799E+02  0.33252971584E+03  0.15294330000E+03 0.  0.
<mgrwt>
<rscale>  0 0.33130389E+03</rscale>
<asrwt>0</asrwt>
<pdfrwt beam="1">  1        2 0.38155426E-01 0.33130389E+03</pdfrwt>
<pdfrwt beam="2">  1       -2 0.85943872E-01 0.33130389E+03</pdfrwt>
<totfact> 0.16383521E+02</totfact>
</mgrwt>
</event>
<event>
 4    1  0.4880711E-008  0.2402977E+03  0.7818608E-02  0.1119595E+00
          2   -1    0    0  501    0  0.00000000000E+00  0.00000000000E+00  0.15278054510E+04  0.15278054510E+04  0.25500000000E-02 0. -1.
         -2   -1    0    0    0  501 -0.00000000000E+00 -0.00000000000E+00 -0.29597572940E+03  0.29597572941E+03  0.25500000000E-02 0.  1.
    8880022    1    1    2    0    0  0.85063551540E+02  0.16466789130E+03  0.14675956159E+04  0.14871381466E+04  0.15294330000E+03 0.  0.
    8880022    1    1    2    0    0 -0.85063551540E+02 -0.16466789130E+03 -0.23576589436E+03  0.33664303376E+03  0.15294330000E+03 0.  1.
<mgrwt>
<rscale>  0 0.24029768E+03</rscale>
<asrwt>0</asrwt>
<pdfrwt beam="1">  1        2 0.23504699E+00 0.24029768E+03</pdfrwt>
<pdfrwt beam="2">  1       -2 0.45534729E-01 0.24029768E+03</pdfrwt>
<totfact> 0.62478734E+01</totfact>
</mgrwt>
</event>
<event>
 4    1  0.4880711E-008  0.7830286E+03  0.7818608E-02  0.9584913E-01
          2   -1    0    0  501    0  0.00000000000E+00  0.00000000000E+00  0.13858177562E+04  0.13858177562E+04  0.25500000000E-02 0. -1.
         -2   -1    0    0    0  501 -0.00000000000E+00 -0.00000000000E+00 -0.68907703498E+03  0.68907703498E+03  0.25500000000E-02 0.  1.
    8880022    1    1    2    0    0  0.46430180725E+01 -0.76793261749E+03 -0.27230728201E+03  0.82902652037E+03  0.15294330000E+03 0.  0.
    8880022    1    1    2    0    0 -0.46430180725E+01  0.76793261749E+03  0.96904800320E+03  0.12458682708E+04  0.15294330000E+03 0.  0.
<mgrwt>
<rscale>  0 0.78302855E+03</rscale>
<asrwt>0</asrwt>
<pdfrwt beam="1">  1        2 0.21320273E+00 0.78302855E+03</pdfrwt>
<pdfrwt beam="2">  1       -2 0.10601185E+00 0.78302855E+03</pdfrwt>
<totfact> 0.10785115E+01</totfact>
</mgrwt>
</event>
<event>
 4    1  0.4880711E-008  0.4556046E+03  0.7818608E-02  0.1026064E+00
         -2   -1    0    0    0  501 -0.00000000000E+00  0.00000000000E+00  0.33620150081E+03  0.33620150082E+03  0.25500000000E-02 0.  1.
          2   -1    0    0  501    0  0.00000000000E+00 -0.00000000000E+00 -0.69942161860E+03  0.69942161861E+03  0.25500000000E-02 0. -1.
    8880022    1    1    2    0    0 -0.20018395509E+03 -0.37961857732E+03 -0.43017201953E+01  0.45562488731E+03  0.15294330000E+03 0.  0.
    8880022    1    1    2    0    0  0.20018395509E+03  0.37961857732E+03 -0.35891839759E+03  0.57999823212E+03  0.15294330000E+03 0.  0.
<mgrwt>
<rscale>  0 0.45560458E+03</rscale>
<asrwt>0</asrwt>
<pdfrwt beam="1">  1        2 0.10760333E+00 0.45560458E+03</pdfrwt>
<pdfrwt beam="2">  1       -2 0.51723308E-01 0.45560458E+03</pdfrwt>
<totfact> 0.14929797E+02</totfact>
</mgrwt>
</event>
<event>
 4    1  0.4880711E-008  0.7464441E+03  0.7818608E-02  0.9640946E-01
         -2   -1    0    0    0  501 -0.00000000000E+00  0.00000000000E+00  0.33337798212E+03  0.33337798213E+03  0.25500000000E-02 0.  1.
          2   -1    0    0  501    0  0.00000000000E+00 -0.00000000000E+00 -0.17669409964E+04  0.17669409964E+04  0.25500000000E-02 0. -1.
    8880022    1    1    2    0    0  0.45313260407E+03  0.57311254898E+03 -0.47247344472E+03  0.88340815009E+03  0.15294330000E+03 0.  0.
    8880022    1    1    2    0    0 -0.45313260407E+03 -0.57311254898E+03 -0.96108956960E+03  0.12169108285E+04  0.15294330000E+03 0.  0.
<mgrwt>
<rscale>  0 0.74644411E+03</rscale>
<asrwt>0</asrwt>
<pdfrwt beam="1">  1        2 0.27183707E+00 0.74644411E+03</pdfrwt>
<pdfrwt beam="2">  1       -2 0.51288921E-01 0.74644411E+03</pdfrwt>
<totfact> 0.33241407E+01</totfact>
</mgrwt>
</event>
<event>
 4    1  0.4880711E-008  0.1640654E+03  0.7818608E-02  0.1184182E+00
         -2   -1    0    0    0  501 -0.00000000000E+00  0.00000000000E+00  0.32652686518E+03  0.32652686519E+03  0.25500000000E-02 0.  1.
          2   -1    0    0  501    0  0.00000000000E+00 -0.00000000000E+00 -0.74780029004E+03  0.74780029005E+03  0.25500000000E-02 0. -1.
    8880022    1    1    2    0    0  0.58855662184E+02  0.78626869121E+01 -0.71732818126E+03  0.73585133245E+03  0.15294330000E+03 0.  0.
    8880022    1    1    2    0    0 -0.58855662184E+02 -0.78626869121E+01  0.29605475640E+03  0.33847582280E+03  0.15294330000E+03 0.  1.
<mgrwt>
<rscale>  0 0.16406543E+03</rscale>
<asrwt>0</asrwt>
<pdfrwt beam="1">  1        2 0.11504620E+00 0.16406543E+03</pdfrwt>
<pdfrwt beam="2">  1       -2 0.50234903E-01 0.16406543E+03</pdfrwt>
<totfact> 0.15151629E+02</totfact>
</mgrwt>
</event>
<event>
 4    1  0.4880711E-008  0.1991860E+03  0.7818608E-02  0.1150428E+00
         -2   -1    0    0    0  501 -0.00000000000E+00  0.00000000000E+00  0.59077647492E+02  0.59077647547E+02  0.25500000000E-02 0.  1.
          2   -1    0    0  501    0  0.00000000000E+00 -0.00000000000E+00 -0.14030395616E+04  0.14030395616E+04  0.25500000000E-02 0. -1.
    8880022    1    1    2    0    0  0.12760179790E+03 -0.10975264445E+01 -0.14412691304E+03  0.24586102471E+03  0.15294330000E+03 0.  1.
    8880022    1    1    2    0    0 -0.12760179790E+03  0.10975264445E+01 -0.11998350011E+04  0.12162561845E+04  0.15294330000E+03 0.  0.
<mgrwt>
<rscale>  0 0.19918603E+03</rscale>
<asrwt>0</asrwt>
<pdfrwt beam="1">  1        2 0.21585222E+00 0.19918603E+03</pdfrwt>
<pdfrwt beam="2">  1       -2 0.90888699E-02 0.19918603E+03</pdfrwt>
<totfact> 0.11966601E+03</totfact>
</mgrwt>
</event>
<event>
 4    1  0.4880711E-008  0.4826143E+03  0.7818608E-02  0.1018419E+00
         -2   -1    0    0    0  501 -0.00000000000E+00  0.00000000000E+00  0.40136030860E+03  0.40136030860E+03  0.25500000000E-02 0.  1.
          2   -1    0    0  501    0  0.00000000000E+00 -0.00000000000E+00 -0.14012719963E+04  0.14012719963E+04  0.25500000000E-02 0. -1.
    8880022    1    1    2    0    0  0.12004570638E+03 -0.44171703327E+03  0.18992704911E+03  0.51864134631E+03  0.15294330000E+03 0.  1.
    8880022    1    1    2    0    0 -0.12004570638E+03  0.44171703327E+03 -0.11898387368E+04  0.12839909585E+04  0.15294330000E+03 0.  0.
<mgrwt>
<rscale>  0 0.48261430E+03</rscale>
<asrwt>0</asrwt>
<pdfrwt beam="1">  1        2 0.21558031E+00 0.48261430E+03</pdfrwt>
<pdfrwt beam="2">  1       -2 0.61747740E-01 0.48261430E+03</pdfrwt>
<totfact> 0.37259688E+01</totfact>
</mgrwt>
</event>
<event>
 4    1  0.4880711E-008  0.6379322E+03  0.7818608E-02  0.9829691E-01
          2   -1    0    0  501    0  0.00000000000E+00  0.00000000000E+00  0.20739072578E+04  0.20739072578E+04  0.25500000000E-02 0. -1.
         -2   -1    0    0    0  501 -0.00000000000E+00 -0.00000000000E+00 -0.89499022182E+03  0.89499022182E+03  0.25500000000E-02 0.  1.
    8880022    1    1    2    0    0 -0.45961201427E+03 -0.41511764974E+03  0.19011175119E+04  0.20052943210E+04  0.15294330000E+03 0.  0.
    8880022    1    1    2    0    0  0.45961201427E+03  0.41511764974E+03 -0.72220047595E+03  0.96360315860E+03  0.15294330000E+03 0.  1.
<mgrwt>
<rscale>  0 0.63793222E+03</rscale>
<asrwt>0</asrwt>
<pdfrwt beam="1">  1        2 0.31906265E+00 0.63793222E+03</pdfrwt>
<pdfrwt beam="2">  1       -2 0.13769080E+00 0.63793222E+03</pdfrwt>
<totfact> 0.24214519E+00</totfact>
</mgrwt>
</event>
<event>
 4    1  0.4880711E-008  0.2173194E+03  0.7818608E-02  0.1135897E+00
          2   -1    0    0  501    0  0.00000000000E+00  0.00000000000E+00  0.57895953450E+03  0.57895953451E+03  0.25500000000E-02 0. -1.
         -2   -1    0    0    0  501 -0.00000000000E+00 -0.00000000000E+00 -0.46706018608E+03  0.46706018608E+03  0.25500000000E-02 0.  1.
    8880022    1    1    2    0    0 -0.83814480123E+01 -0.15416168694E+03 -0.41919752279E+03  0.47218035804E+03  0.15294330000E+03 0.  1.
    8880022    1    1    2    0    0  0.83814480123E+01  0.15416168694E+03  0.53109687121E+03  0.57383936256E+03  0.15294330000E+03 0.  0.
<mgrwt>
<rscale>  0 0.21731941E+03</rscale>
<asrwt>0</asrwt>
<pdfrwt beam="1">  1        2 0.89070698E-01 0.21731941E+03</pdfrwt>
<pdfrwt beam="2">  1       -2 0.71855413E-01 0.21731941E+03</pdfrwt>
<totfact> 0.96798578E+01</totfact>
</mgrwt>
</event>
<event>
 4    1  0.4880711E-008  0.8321380E+03  0.7818608E-02  0.9514629E-01
          2   -1    0    0  501    0  0.00000000000E+00  0.00000000000E+00  0.58867740122E+03  0.58867740123E+03  0.25500000000E-02 0. -1.
         -2   -1    0    0    0  501 -0.00000000000E+00 -0.00000000000E+00 -0.18817380995E+04  0.18817380995E+04  0.25500000000E-02 0.  1.
    8880022    1    1    2    0    0  0.81677685658E+03  0.44017794444E+02  0.10976918914E+03  0.83934672667E+03  0.15294330000E+03 0.  0.
    8880022    1    1    2    0    0 -0.81677685658E+03 -0.44017794444E+02 -0.14028298874E+04  0.16310687740E+04  0.15294330000E+03 0.  0.
<mgrwt>
<rscale>  0 0.83213800E+03</rscale>
<asrwt>0</asrwt>
<pdfrwt beam="1">  1        2 0.90565755E-01 0.83213800E+03</pdfrwt>
<pdfrwt beam="2">  1       -2 0.28949817E+00 0.83213800E+03</pdfrwt>
<totfact> 0.19200866E+00</totfact>
</mgrwt>
</event>
<event>
 4    1  0.4880711E-008  0.6058329E+03  0.7818608E-02  0.9893378E-01
          2   -1    0    0  501    0  0.00000000000E+00  0.00000000000E+00  0.33577887716E+04  0.33577887716E+04  0.25500000000E-02 0. -1.
         -2   -1    0    0    0  501 -0.00000000000E+00 -0.00000000000E+00 -0.14681217497E+03  0.14681217500E+03  0.25500000000E-02 0.  1.
    8880022    1    1    2    0    0  0.10270349212E+03  0.57714279825E+03  0.24911479130E+04  0.25637572807E+04  0.15294330000E+03 0.  0.
    8880022    1    1    2    0    0 -0.10270349212E+03 -0.57714279825E+03  0.71982868359E+03  0.94084366586E+03  0.15294330000E+03 0.  0.
<mgrwt>
<rscale>  0 0.60583287E+03</rscale>
<asrwt>0</asrwt>
<pdfrwt beam="1">  1        2 0.51658289E+00 0.60583287E+03</pdfrwt>
<pdfrwt beam="2">  1       -2 0.22586488E-01 0.60583287E+03</pdfrwt>
<totfact> 0.19313147E+01</totfact>
</mgrwt>
</event>
<event>
 4    1  0.4880711E-008  0.1005268E+04  0.7818608E-02  0.9302786E-01
          2   -1    0    0  501    0  0.00000000000E+00  0.00000000000E+00  0.17385244375E+04  0.17385244375E+04  0.25500000000E-02 0. -1.
         -2   -1    0    0    0  501 -0.00000000000E+00 -0.00000000000E+00 -0.61906324707E+03  0.61906324708E+03  0.25500000000E-02 0.  1.
    8880022    1    1    2    0    0 -0.80612223451E+03 -0.58080850104E+03  0.26849753023E+03  0.10405066788E+04  0.15294330000E+03 0.  0.
    8880022    1    1    2    0    0  0.80612223451E+03  0.58080850104E+03  0.85096366023E+03  0.13170810058E+04  0.15294330000E+03 0.  0.
<mgrwt>
<rscale>  0 0.10052677E+04</rscale>
<asrwt>0</asrwt>
<pdfrwt beam="1">  1        2 0.26746530E+00 0.10052677E+04</pdfrwt>
<pdfrwt beam="2">  1       -2 0.95240500E-01 0.10052677E+04</pdfrwt>
<totfact> 0.86252280E+00</totfact>
</mgrwt>
</event>
<event>
 4    1  0.4880711E-008  0.5821752E+03  0.7818608E-02  0.9943093E-01
          2   -1    0    0  501    0  0.00000000000E+00  0.00000000000E+00  0.77823417867E+03  0.77823417867E+03  0.25500000000E-02 0. -1.
         -2   -1    0    0    0  501 -0.00000000000E+00 -0.00000000000E+00 -0.55880713695E+03  0.55880713695E+03  0.25500000000E-02 0.  1.
    8880022    1    1    2    0    0  0.36449841882E+03 -0.42740754882E+03 -0.20430999761E+03  0.61698503892E+03  0.15294330000E+03 0.  0.
    8880022    1    1    2    0    0 -0.36449841882E+03  0.42740754882E+03  0.42373703933E+03  0.72005627671E+03  0.15294330000E+03 0.  0.
<mgrwt>
<rscale>  0 0.58217520E+03</rscale>
<asrwt>0</asrwt>
<pdfrwt beam="1">  1        2 0.11972833E+00 0.58217520E+03</pdfrwt>
<pdfrwt beam="2">  1       -2 0.85970329E-01 0.58217520E+03</pdfrwt>
<totfact> 0.43183823E+01</totfact>
</mgrwt>
</event>
<event>
 4    1  0.4880711E-008  0.7051860E+03  0.7818608E-02  0.9708404E-01
          2   -1    0    0  501    0  0.00000000000E+00  0.00000000000E+00  0.21343696462E+04  0.21343696462E+04  0.25500000000E-02 0. -1.
         -2   -1    0    0    0  501 -0.00000000000E+00 -0.00000000000E+00 -0.32161276725E+03  0.32161276726E+03  0.25500000000E-02 0.  1.
    8880022    1    1    2    0    0  0.25069970491E+02  0.68794409277E+03  0.26176292119E+03  0.75220147442E+03  0.15294330000E+03 0.  0.
    8880022    1    1    2    0    0 -0.25069970491E+02 -0.68794409277E+03  0.15509939578E+04  0.17037809391E+04  0.15294330000E+03 0.  0.
<mgrwt>
<rscale>  0 0.70518596E+03</rscale>
<asrwt>0</asrwt>
<pdfrwt beam="1">  1        2 0.32836455E+00 0.70518596E+03</pdfrwt>
<pdfrwt beam="2">  1       -2 0.49478889E-01 0.70518596E+03</pdfrwt>
<totfact> 0.22672947E+01</totfact>
</mgrwt>
</event>
<event>
 4    1  0.4880711E-008  0.5421839E+03  0.7818608E-02  0.1003319E+00
         -2   -1    0    0    0  501 -0.00000000000E+00  0.00000000000E+00  0.29222489017E+03  0.29222489018E+03  0.25500000000E-02 0.  1.
          2   -1    0    0  501    0  0.00000000000E+00 -0.00000000000E+00 -0.21446121372E+04  0.21446121372E+04  0.25500000000E-02 0. -1.
    8880022    1    1    2    0    0  0.50211071438E+03  0.13585477654E+03 -0.38384229939E+02  0.54354088340E+03  0.15294330000E+03 0.  0.
    8880022    1    1    2    0    0 -0.50211071438E+03 -0.13585477654E+03 -0.18140030171E+04  0.18932961440E+04  0.15294330000E+03 0.  0.
<mgrwt>
<rscale>  0 0.54218386E+03</rscale>
<asrwt>0</asrwt>
<pdfrwt beam="1">  1        2 0.32994032E+00 0.54218386E+03</pdfrwt>
<pdfrwt beam="2">  1       -2 0.44957677E-01 0.54218386E+03</pdfrwt>
<totfact> 0.27884840E+01</totfact>
</mgrwt>
</event>
<event>
 4    1  0.4880711E-008  0.9057695E+03  0.7818608E-02  0.9418398E-01
          2   -1    0    0  501    0  0.00000000000E+00  0.00000000000E+00  0.21252291937E+04  0.21252291937E+04  0.25500000000E-02 0. -1.
         -2   -1    0    0    0  501 -0.00000000000E+00 -0.00000000000E+00 -0.99576077258E+03  0.99576077259E+03  0.25500000000E-02 0.  1.
    8880022    1    1    2    0    0 -0.83697642220E+03  0.31064007506E+03  0.17858341503E+04  0.20024040684E+04  0.15294330000E+03 0.  0.
    8880022    1    1    2    0    0  0.83697642220E+03 -0.31064007506E+03 -0.65636572919E+03  0.11185858979E+04  0.15294330000E+03 0.  0.
<mgrwt>
<rscale>  0 0.90576953E+03</rscale>
<asrwt>0</asrwt>
<pdfrwt beam="1">  1        2 0.32695833E+00 0.90576953E+03</pdfrwt>
<pdfrwt beam="2">  1       -2 0.15319397E+00 0.90576953E+03</pdfrwt>
<totfact> 0.16331814E+00</totfact>
</mgrwt>
</event>
<event>
 4    1  0.4880711E-008  0.4891359E+03  0.7818608E-02  0.1016654E+00
         -2   -1    0    0    0  501 -0.00000000000E+00  0.00000000000E+00  0.15150304986E+03  0.15150304988E+03  0.25500000000E-02 0.  1.
          2   -1    0    0  501    0  0.00000000000E+00 -0.00000000000E+00 -0.23490516229E+04  0.23490516229E+04  0.25500000000E-02 0. -1.
    8880022    1    1    2    0    0 -0.18711644922E+03 -0.42526433649E+03 -0.18145268736E+04  0.18792982066E+04  0.15294330000E+03 0.  0.
    8880022    1    1    2    0    0  0.18711644922E+03  0.42526433649E+03 -0.38302169944E+03  0.62125646614E+03  0.15294330000E+03 0.  1.
<mgrwt>
<rscale>  0 0.48913595E+03</rscale>
<asrwt>0</asrwt>
<pdfrwt beam="1">  1        2 0.36139253E+00 0.48913595E+03</pdfrwt>
<pdfrwt beam="2">  1       -2 0.23308163E-01 0.48913595E+03</pdfrwt>
<totfact> 0.74448262E+01</totfact>
</mgrwt>
</event>
<event>
 4    1  0.4880711E-008  0.1688122E+04  0.7818608E-02  0.8768168E-01
          2   -1    0    0  501    0  0.00000000000E+00  0.00000000000E+00  0.30807911112E+04  0.30807911112E+04  0.25500000000E-02 0. -1.
         -2   -1    0    0    0  501 -0.00000000000E+00 -0.00000000000E+00 -0.94348939975E+03  0.94348939975E+03  0.25500000000E-02 0.  1.
    8880022    1    1    2    0    0  0.91960866857E+03  0.14073683725E+04  0.13502641120E+04  0.21617054990E+04  0.15294330000E+03 0.  0.
    8880022    1    1    2    0    0 -0.91960866857E+03 -0.14073683725E+04  0.78703759953E+03  0.18625750120E+04  0.15294330000E+03 0.  0.
<mgrwt>
<rscale>  0 0.16881225E+04</rscale>
<asrwt>0</asrwt>
<pdfrwt beam="1">  1        2 0.47396787E+00 0.16881225E+04</pdfrwt>
<pdfrwt beam="2">  1       -2 0.14515221E+00 0.16881225E+04</pdfrwt>
<totfact> 0.47051860E-01</totfact>
</mgrwt>
</event>
<event>
 4    1  0.4880711E-008  0.3497337E+03  0.7818608E-02  0.1062724E+00
         -2   -1    0    0    0  501 -0.00000000000E+00  0.00000000000E+00  0.58816433232E+03  0.58816433232E+03  0.25500000000E-02 0.  1.
          2   -1    0    0  501    0  0.00000000000E+00 -0.00000000000E+00 -0.55077710678E+03  0.55077710678E+03  0.25500000000E-02 0. -1.
    8880022    1    1    2    0    0  0.20202796590E+03 -0.24105334227E+03  0.46797224727E+03  0.58421887171E+03  0.15294330000E+03 0.  0.
    8880022    1    1    2    0    0 -0.20202796590E+03  0.24105334227E+03 -0.43058502173E+03  0.55472256740E+03  0.15294330000E+03 0.  0.
<mgrwt>
<rscale>  0 0.34973371E+03</rscale>
<asrwt>0</asrwt>
<pdfrwt beam="1">  1        2 0.84734940E-01 0.34973371E+03</pdfrwt>
<pdfrwt beam="2">  1       -2 0.90486820E-01 0.34973371E+03</pdfrwt>
<totfact> 0.60232917E+01</totfact>
</mgrwt>
</event>
<event>
 4    1  0.4880711E-008  0.1493503E+04  0.7818608E-02  0.8888785E-01
          2   -1    0    0  501    0  0.00000000000E+00  0.00000000000E+00  0.11566722520E+04  0.11566722520E+04  0.25500000000E-02 0. -1.
         -2   -1    0    0    0  501 -0.00000000000E+00 -0.00000000000E+00 -0.26449048856E+04  0.26449048856E+04  0.25500000000E-02 0.  1.
    8880022    1    1    2    0    0  0.13433998868E+04  0.63437893848E+03  0.24519247453E+03  0.15134962491E+04  0.15294330000E+03 0.  0.
    8880022    1    1    2    0    0 -0.13433998868E+04 -0.63437893848E+03 -0.17334251082E+04  0.22880808885E+04  0.15294330000E+03 0.  0.
<mgrwt>
<rscale>  0 0.14935031E+04</rscale>
<asrwt>0</asrwt>
<pdfrwt beam="1">  1        2 0.17794958E+00 0.14935031E+04</pdfrwt>
<pdfrwt beam="2">  1       -2 0.40690844E+00 0.14935031E+04</pdfrwt>
<totfact> 0.12747202E-01</totfact>
</mgrwt>
</event>
<event>
 4    1  0.4880711E-008  0.2477187E+03  0.7818608E-02  0.1114755E+00
         -2   -1    0    0    0  501 -0.00000000000E+00  0.00000000000E+00  0.11513705071E+03  0.11513705074E+03  0.25500000000E-02 0.  1.
          2   -1    0    0  501    0  0.00000000000E+00 -0.00000000000E+00 -0.25695523882E+04  0.25695523882E+04  0.25500000000E-02 0. -1.
    8880022    1    1    2    0    0 -0.10127232781E+03 -0.16648369133E+03 -0.24222584129E+04  0.24348922719E+04  0.15294330000E+03 0. -1.
    8880022    1    1    2    0    0  0.10127232781E+03  0.16648369133E+03 -0.32156924609E+02  0.24979716707E+03  0.15294330000E+03 0.  0.
<mgrwt>
<rscale>  0 0.24771871E+03</rscale>
<asrwt>0</asrwt>
<pdfrwt beam="1">  1        2 0.39531571E+00 0.24771871E+03</pdfrwt>
<pdfrwt beam="2">  1       -2 0.17713394E-01 0.24771871E+03</pdfrwt>
<totfact> 0.96419493E+01</totfact>
</mgrwt>
</event>
<event>
 4    1  0.4880711E-008  0.4580113E+03  0.7818608E-02  0.1025360E+00
          2   -1    0    0  501    0  0.00000000000E+00  0.00000000000E+00  0.22436666589E+04  0.22436666589E+04  0.25500000000E-02 0. -1.
         -2   -1    0    0    0  501 -0.00000000000E+00 -0.00000000000E+00 -0.13633479878E+03  0.13633479880E+03  0.25500000000E-02 0.  1.
    8880022    1    1    2    0    0 -0.21378540833E+03 -0.37507136719E+03  0.38661142786E+03  0.59936865155E+03  0.15294330000E+03 0.  0.
    8880022    1    1    2    0    0  0.21378540833E+03  0.37507136719E+03  0.17207204323E+04  0.17806328062E+04  0.15294330000E+03 0.  0.
<mgrwt>
<rscale>  0 0.45801134E+03</rscale>
<asrwt>0</asrwt>
<pdfrwt beam="1">  1        2 0.34517949E+00 0.45801134E+03</pdfrwt>
<pdfrwt beam="2">  1       -2 0.20974584E-01 0.45801134E+03</pdfrwt>
<totfact> 0.10295671E+02</totfact>
</mgrwt>
</event>
<event>
 4    1  0.4880711E-008  0.4497652E+03  0.7818608E-02  0.1027792E+00
          2   -1    0    0  501    0  0.00000000000E+00  0.00000000000E+00  0.12835084454E+04  0.12835084454E+04  0.25500000000E-02 0. -1.
         -2   -1    0    0    0  501 -0.00000000000E+00 -0.00000000000E+00 -0.87571620405E+03  0.87571620405E+03  0.25500000000E-02 0.  1.
    8880022    1    1    2    0    0 -0.14687923433E+03  0.39664034020E+03  0.11815422127E+04  0.12642510519E+04  0.15294330000E+03 0. -1.
    8880022    1    1    2    0    0  0.14687923433E+03 -0.39664034020E+03 -0.77374997138E+03  0.89497359747E+03  0.15294330000E+03 0.  0.
<mgrwt>
<rscale>  0 0.44976519E+03</rscale>
<asrwt>0</asrwt>
<pdfrwt beam="1">  1        2 0.19746284E+00 0.44976519E+03</pdfrwt>
<pdfrwt beam="2">  1       -2 0.13472557E+00 0.44976519E+03</pdfrwt>
<totfact> 0.72220233E+00</totfact>
</mgrwt>
</event>
<event>
 4    1  0.4880711E-008  0.2961177E+03  0.7818608E-02  0.1087198E+00
          2   -1    0    0  501    0  0.00000000000E+00  0.00000000000E+00  0.17504569625E+04  0.17504569625E+04  0.25500000000E-02 0. -1.
         -2   -1    0    0    0  501 -0.00000000000E+00 -0.00000000000E+00 -0.23128501937E+03  0.23128501939E+03  0.25500000000E-02 0.  1.
    8880022    1    1    2    0    0 -0.24643461786E+03  0.59699543113E+02  0.16366127373E+04  0.16631857868E+04  0.15294330000E+03 0.  0.
    8880022    1    1    2    0    0  0.24643461786E+03 -0.59699543113E+02 -0.11744079416E+03  0.31855619516E+03  0.15294330000E+03 0.  0.
<mgrwt>
<rscale>  0 0.29611773E+03</rscale>
<asrwt>0</asrwt>
<pdfrwt beam="1">  1        2 0.26930107E+00 0.29611773E+03</pdfrwt>
<pdfrwt beam="2">  1       -2 0.35582310E-01 0.29611773E+03</pdfrwt>
<totfact> 0.75219828E+01</totfact>
</mgrwt>
</event>
<event>
 4    1  0.4880711E-008  0.4752576E+03  0.7818608E-02  0.1020447E+00
         -2   -1    0    0    0  501 -0.00000000000E+00  0.00000000000E+00  0.31639177872E+03  0.31639177873E+03  0.25500000000E-02 0.  1.
          2   -1    0    0  501    0  0.00000000000E+00 -0.00000000000E+00 -0.12972829625E+04  0.12972829625E+04  0.25500000000E-02 0. -1.
    8880022    1    1    2    0    0 -0.95563327809E+02  0.43971103249E+03 -0.10315090703E+04  0.11357291741E+04  0.15294330000E+03 0.  0.
    8880022    1    1    2    0    0  0.95563327809E+02 -0.43971103249E+03  0.50617886511E+02  0.47794556716E+03  0.15294330000E+03 0.  0.
<mgrwt>
<rscale>  0 0.47525761E+03</rscale>
<asrwt>0</asrwt>
<pdfrwt beam="1">  1        2 0.19958199E+00 0.47525761E+03</pdfrwt>
<pdfrwt beam="2">  1       -2 0.48675659E-01 0.47525761E+03</pdfrwt>
<totfact> 0.69657846E+01</totfact>
</mgrwt>
</event>
<event>
 4    1  0.1008719E-007  0.1016121E+04  0.7818608E-02  0.9291038E-01
          2   -1    0    0  501    0  0.00000000000E+00  0.00000000000E+00  0.15412272782E+04  0.15412272782E+04  0.25500000000E-02 0. -1.
         -2   -1    0    0    0  501 -0.00000000000E+00 -0.00000000000E+00 -0.15468956907E+04  0.15468956907E+04  0.25500000000E-02 0.  1.
    8880022    1    1    2    0    0  0.30059003925E+02  0.10040951774E+04  0.11597577544E+04  0.15419274857E+04  0.15294330000E+03 0.  0.
    8880022    1    1    2    0    0 -0.30059003925E+02 -0.10040951774E+04 -0.11654261669E+04  0.15461954833E+04  0.15294330000E+03 0.  0.
<mgrwt>
<rscale>  0 0.10161212E+04</rscale>
<asrwt>0</asrwt>
<pdfrwt beam="1">  1        2 0.23711189E+00 0.10161212E+04</pdfrwt>
<pdfrwt beam="2">  1       -2 0.23798395E+00 0.10161212E+04</pdfrwt>
<totfact> 0.91254073E-01</totfact>
</mgrwt>
</event>
<event>
 4    1  0.4880711E-008  0.4091680E+03  0.7818608E-02  0.1040651E+00
          2   -1    0    0  501    0  0.00000000000E+00  0.00000000000E+00  0.18366228739E+04  0.18366228739E+04  0.25500000000E-02 0. -1.
         -2   -1    0    0    0  501 -0.00000000000E+00 -0.00000000000E+00 -0.51077754218E+03  0.51077754219E+03  0.25500000000E-02 0.  1.
    8880022    1    1    2    0    0 -0.87296632521E+02 -0.36933198695E+03  0.17267481166E+04  0.17745640393E+04  0.15294330000E+03 0.  0.
    8880022    1    1    2    0    0  0.87296632521E+02  0.36933198695E+03 -0.40090278484E+03  0.57283637676E+03  0.15294330000E+03 0.  0.
<mgrwt>
<rscale>  0 0.40916802E+03</rscale>
<asrwt>0</asrwt>
<pdfrwt beam="1">  1        2 0.28255736E+00 0.40916802E+03</pdfrwt>
<pdfrwt beam="2">  1       -2 0.78581161E-01 0.40916802E+03</pdfrwt>
<totfact> 0.13050159E+01</totfact>
</mgrwt>
</event>
<event>
 4    1  0.4880711E-008  0.1901748E+03  0.7818608E-02  0.1158304E+00
          2   -1    0    0  501    0  0.00000000000E+00  0.00000000000E+00  0.25919772676E+03  0.25919772677E+03  0.25500000000E-02 0. -1.
         -2   -1    0    0    0  501 -0.00000000000E+00 -0.00000000000E+00 -0.68851622514E+03  0.68851622514E+03  0.25500000000E-02 0.  1.
    8880022    1    1    2    0    0 -0.11300293594E+03  0.22646367771E+01  0.20846704858E+03  0.28217894229E+03  0.15294330000E+03 0.  0.
    8880022    1    1    2    0    0  0.11300293594E+03 -0.22646367771E+01 -0.63778554696E+03  0.66553500963E+03  0.15294330000E+03 0.  1.
<mgrwt>
<rscale>  0 0.19017478E+03</rscale>
<asrwt>0</asrwt>
<pdfrwt beam="1">  1        2 0.39876573E-01 0.19017478E+03</pdfrwt>
<pdfrwt beam="2">  1       -2 0.10592557E+00 0.19017478E+03</pdfrwt>
<totfact> 0.97684931E+01</totfact>
</mgrwt>
</event>
<event>
 4    1  0.4880711E-008  0.3199203E+03  0.7818608E-02  0.1075686E+00
          2   -1    0    0  501    0  0.00000000000E+00  0.00000000000E+00  0.25168679309E+04  0.25168679310E+04  0.25500000000E-02 0. -1.
         -2   -1    0    0    0  501 -0.00000000000E+00 -0.00000000000E+00 -0.46408533424E+02  0.46408533494E+02  0.25500000000E-02 0.  1.
    8880022    1    1    2    0    0 -0.28076420270E+03 -0.11348378619E+02  0.16860962017E+04  0.17161787137E+04  0.15294330000E+03 0.  1.
    8880022    1    1    2    0    0  0.28076420270E+03  0.11348378619E+02  0.78436319587E+03  0.84709775071E+03  0.15294330000E+03 0.  0.
<mgrwt>
<rscale>  0 0.31992027E+03</rscale>
<asrwt>0</asrwt>
<pdfrwt beam="1">  1        2 0.38721052E+00 0.31992027E+03</pdfrwt>
<pdfrwt beam="2">  1       -2 0.71397732E-02 0.31992027E+03</pdfrwt>
<totfact> 0.43957149E+02</totfact>
</mgrwt>
</event>
<event>
 4    1  0.4880711E-008  0.3138491E+03  0.7818608E-02  0.1078515E+00
          2   -1    0    0  501    0  0.00000000000E+00  0.00000000000E+00  0.60811129117E+03  0.60811129118E+03  0.25500000000E-02 0. -1.
         -2   -1    0    0    0  501 -0.00000000000E+00 -0.00000000000E+00 -0.33695967110E+03  0.33695967110E+03  0.25500000000E-02 0.  1.
    8880022    1    1    2    0    0  0.23355563685E+03 -0.14339244232E+03  0.47609410854E+03  0.57023405827E+03  0.15294330000E+03 0.  0.
    8880022    1    1    2    0    0 -0.23355563685E+03  0.14339244232E+03 -0.20494248846E+03  0.37483690401E+03  0.15294330000E+03 0.  0.
<mgrwt>
<rscale>  0 0.31384914E+03</rscale>
<asrwt>0</asrwt>
<pdfrwt beam="1">  1        2 0.93555582E-01 0.31384914E+03</pdfrwt>
<pdfrwt beam="2">  1       -2 0.51839950E-01 0.31384914E+03</pdfrwt>
<totfact> 0.17833591E+02</totfact>
</mgrwt>
</event>
<event>
 4    1  0.4880711E-008  0.2334191E+03  0.7818608E-02  0.1124256E+00
         -2   -1    0    0    0  501 -0.00000000000E+00  0.00000000000E+00  0.35113464293E+02  0.35113464385E+02  0.25500000000E-02 0.  1.
          2   -1    0    0  501    0  0.00000000000E+00 -0.00000000000E+00 -0.19724958220E+04  0.19724958220E+04  0.25500000000E-02 0. -1.
    8880022    1    1    2    0    0 -0.14829411925E+03  0.95402809855E+02 -0.50503873410E+03  0.55637093552E+03  0.15294330000E+03 0.  1.
    8880022    1    1    2    0    0  0.14829411925E+03 -0.95402809855E+02 -0.14323436236E+04  0.14512383508E+04  0.15294330000E+03 0.  0.
<mgrwt>
<rscale>  0 0.23341914E+03</rscale>
<asrwt>0</asrwt>
<pdfrwt beam="1">  1        2 0.30346081E+00 0.23341914E+03</pdfrwt>
<pdfrwt beam="2">  1       -2 0.54020730E-02 0.23341914E+03</pdfrwt>
<totfact> 0.13409935E+03</totfact>
</mgrwt>
</event>
<event>
 4    1  0.4880711E-008  0.7692672E+03  0.7818608E-02  0.9605599E-01
         -2   -1    0    0    0  501 -0.00000000000E+00  0.00000000000E+00  0.29138055768E+03  0.29138055770E+03  0.25500000000E-02 0.  1.
          2   -1    0    0  501    0  0.00000000000E+00 -0.00000000000E+00 -0.35783062754E+04  0.35783062754E+04  0.25500000000E-02 0. -1.
    8880022    1    1    2    0    0 -0.47612203840E+03  0.58454104103E+03 -0.37111539345E+03  0.85410696776E+03  0.15294330000E+03 0.  0.
    8880022    1    1    2    0    0  0.47612203840E+03 -0.58454104103E+03 -0.29158103242E+04  0.30155798653E+04  0.15294330000E+03 0. -1.
<mgrwt>
<rscale>  0 0.76926723E+03</rscale>
<asrwt>0</asrwt>
<pdfrwt beam="1">  1        2 0.55050863E+00 0.76926723E+03</pdfrwt>
<pdfrwt beam="2">  1       -2 0.44827781E-01 0.76926723E+03</pdfrwt>
<totfact> 0.36608422E+00</totfact>
</mgrwt>
</event>
<event>
 4    1  0.4880711E-008  0.3038495E+03  0.7818608E-02  0.1083332E+00
          2   -1    0    0  501    0  0.00000000000E+00  0.00000000000E+00  0.10640078893E+04  0.10640078893E+04  0.25500000000E-02 0. -1.
         -2   -1    0    0    0  501 -0.00000000000E+00 -0.00000000000E+00 -0.11704244277E+03  0.11704244280E+03  0.25500000000E-02 0.  1.
    8880022    1    1    2    0    0  0.25916871204E+03 -0.42005430183E+02  0.17316107419E+03  0.34972744830E+03  0.15294330000E+03 0.  0.
    8880022    1    1    2    0    0 -0.25916871204E+03  0.42005430183E+02  0.77380437230E+03  0.83132288376E+03  0.15294330000E+03 0.  0.
<mgrwt>
<rscale>  0 0.30384952E+03</rscale>
<asrwt>0</asrwt>
<pdfrwt beam="1">  1        2 0.16369351E+00 0.30384952E+03</pdfrwt>
<pdfrwt beam="2">  1       -2 0.18006531E-01 0.30384952E+03</pdfrwt>
<totfact> 0.60502712E+02</totfact>
</mgrwt>
</event>
<event>
 4    1  0.4880711E-008  0.6885951E+03  0.7818608E-02  0.9736937E-01
         -2   -1    0    0    0  501 -0.00000000000E+00  0.00000000000E+00  0.55926053578E+03  0.55926053579E+03  0.25500000000E-02 0.  1.
          2   -1    0    0  501    0  0.00000000000E+00 -0.00000000000E+00 -0.10469133663E+04  0.10469133663E+04  0.25500000000E-02 0. -1.
    8880022    1    1    2    0    0  0.10068687810E+03 -0.66380243076E+03 -0.59402495706E+03  0.90941124753E+03  0.15294330000E+03 0.  0.
    8880022    1    1    2    0    0 -0.10068687810E+03  0.66380243076E+03  0.10637212653E+03  0.69676265458E+03  0.15294330000E+03 0.  0.
<mgrwt>
<rscale>  0 0.68859507E+03</rscale>
<asrwt>0</asrwt>
<pdfrwt beam="1">  1        2 0.16106359E+00 0.68859507E+03</pdfrwt>
<pdfrwt beam="2">  1       -2 0.86040083E-01 0.68859507E+03</pdfrwt>
<totfact> 0.28197353E+01</totfact>
</mgrwt>
</event>
<event>
 4    1  0.4880711E-008  0.6432299E+03  0.7818608E-02  0.9819566E-01
          2   -1    0    0  501    0  0.00000000000E+00  0.00000000000E+00  0.15569662267E+04  0.15569662267E+04  0.25500000000E-02 0. -1.
         -2   -1    0    0    0  501 -0.00000000000E+00 -0.00000000000E+00 -0.40197455605E+03  0.40197455606E+03  0.25500000000E-02 0.  1.
    8880022    1    1    2    0    0 -0.25860438307E+03  0.56875017946E+03  0.11477117226E+04  0.13156697324E+04  0.15294330000E+03 0.  0.
    8880022    1    1    2    0    0  0.25860438307E+03 -0.56875017946E+03  0.72799480567E+01  0.64327105036E+03  0.15294330000E+03 0.  0.
<mgrwt>
<rscale>  0 0.64322986E+03</rscale>
<asrwt>0</asrwt>
<pdfrwt beam="1">  1        2 0.23953326E+00 0.64322986E+03</pdfrwt>
<pdfrwt beam="2">  1       -2 0.61842240E-01 0.64322986E+03</pdfrwt>
<totfact> 0.29728299E+01</totfact>
</mgrwt>
</event>
<event>
 4    1  0.4880711E-008  0.3808665E+03  0.7818608E-02  0.1050614E+00
          2   -1    0    0  501    0  0.00000000000E+00  0.00000000000E+00  0.18355098533E+04  0.18355098533E+04  0.25500000000E-02 0. -1.
         -2   -1    0    0    0  501 -0.00000000000E+00 -0.00000000000E+00 -0.19550642255E+03  0.19550642257E+03  0.25500000000E-02 0.  1.
    8880022    1    1    2    0    0 -0.33728455485E+03  0.88919822785E+02  0.36169683770E+02  0.38258006334E+03  0.15294330000E+03 0.  0.
    8880022    1    1    2    0    0  0.33728455485E+03 -0.88919822785E+02  0.16038337470E+04  0.16484362126E+04  0.15294330000E+03 0.  0.
<mgrwt>
<rscale>  0 0.38086646E+03</rscale>
<asrwt>0</asrwt>
<pdfrwt beam="1">  1        2 0.28238612E+00 0.38086646E+03</pdfrwt>
<pdfrwt beam="2">  1       -2 0.30077912E-01 0.38086646E+03</pdfrwt>
<totfact> 0.90816538E+01</totfact>
</mgrwt>
</event>
<event>
 4    1  0.4880711E-008  0.4896219E+03  0.7818608E-02  0.1016524E+00
         -2   -1    0    0    0  501 -0.00000000000E+00  0.00000000000E+00  0.14901518134E+04  0.14901518134E+04  0.25500000000E-02 0.  1.
          2   -1    0    0  501    0  0.00000000000E+00 -0.00000000000E+00 -0.17361469261E+03  0.17361469263E+03  0.25500000000E-02 0. -1.
    8880022    1    1    2    0    0  0.43842918272E+03 -0.15529909544E+03  0.88360538859E+03  0.10101921070E+04  0.15294330000E+03 0.  0.
    8880022    1    1    2    0    0 -0.43842918272E+03  0.15529909544E+03  0.43293173224E+03  0.65357439905E+03  0.15294330000E+03 0.  0.
<mgrwt>
<rscale>  0 0.48962191E+03</rscale>
<asrwt>0</asrwt>
<pdfrwt beam="1">  1        2 0.26709952E-01 0.48962191E+03</pdfrwt>
<pdfrwt beam="2">  1       -2 0.22925413E+00 0.48962191E+03</pdfrwt>
<totfact> 0.18427546E+01</totfact>
</mgrwt>
</event>
<event>
 4    1  0.4880711E-008  0.4215107E+03  0.7818608E-02  0.1036576E+00
          2   -1    0    0  501    0  0.00000000000E+00  0.00000000000E+00  0.11947990053E+04  0.11947990053E+04  0.25500000000E-02 0. -1.
         -2   -1    0    0    0  501 -0.00000000000E+00 -0.00000000000E+00 -0.30194917388E+03  0.30194917389E+03  0.25500000000E-02 0.  1.
    8880022    1    1    2    0    0 -0.27329571345E+03  0.28211535380E+03  0.97956994388E+03  0.10664091840E+04  0.15294330000E+03 0.  0.
    8880022    1    1    2    0    0  0.27329571345E+03 -0.28211535380E+03 -0.86720112449E+02  0.43033899516E+03  0.15294330000E+03 0.  0.
<mgrwt>
<rscale>  0 0.42151070E+03</rscale>
<asrwt>0</asrwt>
<pdfrwt beam="1">  1        2 0.18381523E+00 0.42151070E+03</pdfrwt>
<pdfrwt beam="2">  1       -2 0.46453720E-01 0.42151070E+03</pdfrwt>
<totfact> 0.88261251E+01</totfact>
</mgrwt>
</event>
<event>
 4    1  0.4880711E-008  0.3823607E+03  0.7818608E-02  0.1050065E+00
         -2   -1    0    0    0  501 -0.00000000000E+00  0.00000000000E+00  0.56841721498E+02  0.56841721555E+02  0.25500000000E-02 0.  1.
          2   -1    0    0  501    0  0.00000000000E+00 -0.00000000000E+00 -0.26040971384E+04  0.26040971384E+04  0.25500000000E-02 0. -1.
    8880022    1    1    2    0    0 -0.71459099194E+01  0.35036697624E+03 -0.11260323504E+04  0.11891797968E+04  0.15294330000E+03 0. -1.
    8880022    1    1    2    0    0  0.71459099194E+01 -0.35036697624E+03 -0.14212230665E+04  0.14717590631E+04  0.15294330000E+03 0.  0.
<mgrwt>
<rscale>  0 0.38236074E+03</rscale>
<asrwt>0</asrwt>
<pdfrwt beam="1">  1        2 0.40063024E+00 0.38236074E+03</pdfrwt>
<pdfrwt beam="2">  1       -2 0.87448822E-02 0.38236074E+03</pdfrwt>
<totfact> 0.28212792E+02</totfact>
</mgrwt>
</event>
<event>
 4    1  0.4880711E-008  0.8308671E+03  0.7818608E-02  0.9516382E-01
         -2   -1    0    0    0  501 -0.00000000000E+00  0.00000000000E+00  0.20917913967E+04  0.20917913967E+04  0.25500000000E-02 0.  1.
          2   -1    0    0  501    0  0.00000000000E+00 -0.00000000000E+00 -0.40123746221E+03  0.40123746222E+03  0.25500000000E-02 0. -1.
    8880022    1    1    2    0    0  0.19141336132E+02 -0.81644477271E+03  0.13704222273E+04  0.16026219741E+04  0.15294330000E+03 0.  0.
    8880022    1    1    2    0    0 -0.19141336132E+02  0.81644477271E+03  0.32013170715E+03  0.89040688484E+03  0.15294330000E+03 0.  0.
<mgrwt>
<rscale>  0 0.83086708E+03</rscale>
<asrwt>0</asrwt>
<pdfrwt beam="1">  1        2 0.61728839E-01 0.83086708E+03</pdfrwt>
<pdfrwt beam="2">  1       -2 0.32181407E+00 0.83086708E+03</pdfrwt>
<totfact> 0.19114438E+00</totfact>
</mgrwt>
</event>
<event>
 4    1  0.4880711E-008  0.3562802E+03  0.7818608E-02  0.1060067E+00
         -2   -1    0    0    0  501 -0.00000000000E+00  0.00000000000E+00  0.32299786983E+03  0.32299786984E+03  0.25500000000E-02 0.  1.
          2   -1    0    0  501    0  0.00000000000E+00 -0.00000000000E+00 -0.10707187196E+04  0.10707187196E+04  0.25500000000E-02 0. -1.
    8880022    1    1    2    0    0 -0.21093323089E+03 -0.24300426514E+03 -0.92827431830E+03  0.99429812622E+03  0.15294330000E+03 0.  0.
    8880022    1    1    2    0    0  0.21093323089E+03  0.24300426514E+03  0.18055346851E+03  0.39941846324E+03  0.15294330000E+03 0.  0.
<mgrwt>
<rscale>  0 0.35628016E+03</rscale>
<asrwt>0</asrwt>
<pdfrwt beam="1">  1        2 0.16472596E+00 0.35628016E+03</pdfrwt>
<pdfrwt beam="2">  1       -2 0.49691980E-01 0.35628016E+03</pdfrwt>
<totfact> 0.92253769E+01</totfact>
</mgrwt>
</event>
<event>
 4    1  0.4880711E-008  0.9488608E+03  0.7818608E-02  0.9366483E-01
         -2   -1    0    0    0  501 -0.00000000000E+00  0.00000000000E+00  0.17395764744E+04  0.17395764744E+04  0.25500000000E-02 0.  1.
          2   -1    0    0  501    0  0.00000000000E+00 -0.00000000000E+00 -0.11023236459E+04  0.11023236459E+04  0.25500000000E-02 0. -1.
    8880022    1    1    2    0    0  0.58879584630E+03 -0.72819266092E+03 -0.71631103949E+03  0.11888810951E+04  0.15294330000E+03 0.  0.
    8880022    1    1    2    0    0 -0.58879584630E+03  0.72819266092E+03  0.13535638680E+04  0.16530190252E+04  0.15294330000E+03 0.  0.
<mgrwt>
<rscale>  0 0.94886077E+03</rscale>
<asrwt>0</asrwt>
<pdfrwt beam="1">  1        2 0.16958825E+00 0.94886077E+03</pdfrwt>
<pdfrwt beam="2">  1       -2 0.26762715E+00 0.94886077E+03</pdfrwt>
<totfact> 0.10950507E+00</totfact>
</mgrwt>
</event>
<event>
 4    1  0.4880711E-008  0.2215150E+03  0.7818608E-02  0.1132759E+00
         -2   -1    0    0    0  501 -0.00000000000E+00  0.00000000000E+00  0.17887604374E+03  0.17887604376E+03  0.25500000000E-02 0.  1.
          2   -1    0    0  501    0  0.00000000000E+00 -0.00000000000E+00 -0.12500166482E+04  0.12500166482E+04  0.25500000000E-02 0. -1.
    8880022    1    1    2    0    0  0.12130846997E+03  0.10469719121E+03  0.95633484848E+02  0.24127715012E+03  0.15294330000E+03 0.  0.
    8880022    1    1    2    0    0 -0.12130846997E+03 -0.10469719121E+03 -0.11667740893E+04  0.11876155418E+04  0.15294330000E+03 0. -1.
<mgrwt>
<rscale>  0 0.22151501E+03</rscale>
<asrwt>0</asrwt>
<pdfrwt beam="1">  1        2 0.19231025E+00 0.22151501E+03</pdfrwt>
<pdfrwt beam="2">  1       -2 0.27519392E-01 0.22151501E+03</pdfrwt>
<totfact> 0.22808811E+02</totfact>
</mgrwt>
</event>
<event>
 4    1  0.4880711E-008  0.6968456E+03  0.7818608E-02  0.9722642E-01
          2   -1    0    0  501    0  0.00000000000E+00  0.00000000000E+00  0.68270813587E+03  0.68270813588E+03  0.25500000000E-02 0. -1.
         -2   -1    0    0    0  501 -0.00000000000E+00 -0.00000000000E+00 -0.85775425029E+03  0.85775425030E+03  0.25500000000E-02 0.  1.
    8880022    1    1    2    0    0 -0.59371598509E+03  0.33121505429E+03  0.23076959808E+03  0.73406290163E+03  0.15294330000E+03 0.  0.
    8880022    1    1    2    0    0  0.59371598509E+03 -0.33121505429E+03 -0.40581571250E+03  0.80639948454E+03  0.15294330000E+03 0.  1.
<mgrwt>
<rscale>  0 0.69684556E+03</rscale>
<asrwt>0</asrwt>
<pdfrwt beam="1">  1        2 0.10503202E+00 0.69684556E+03</pdfrwt>
<pdfrwt beam="2">  1       -2 0.13196219E+00 0.69684556E+03</pdfrwt>
<totfact> 0.18023823E+01</totfact>
</mgrwt>
</event>
<event>
 4    1  0.4880711E-008  0.5266271E+03  0.7818608E-02  0.1007053E+00
          2   -1    0    0  501    0  0.00000000000E+00  0.00000000000E+00  0.16750167655E+04  0.16750167655E+04  0.25500000000E-02 0. -1.
         -2   -1    0    0    0  501 -0.00000000000E+00 -0.00000000000E+00 -0.27598840571E+03  0.27598840573E+03  0.25500000000E-02 0.  1.
    8880022    1    1    2    0    0 -0.48662289115E+03 -0.13092979197E+03  0.13165346096E+04  0.14179560924E+04  0.15294330000E+03 0.  0.
    8880022    1    1    2    0    0  0.48662289115E+03  0.13092979197E+03  0.82493750168E+02  0.53304907883E+03  0.15294330000E+03 0.  0.
<mgrwt>
<rscale>  0 0.52662710E+03</rscale>
<asrwt>0</asrwt>
<pdfrwt beam="1">  1        2 0.25769488E+00 0.52662710E+03</pdfrwt>
<pdfrwt beam="2">  1       -2 0.42459756E-01 0.52662710E+03</pdfrwt>
<totfact> 0.56113756E+01</totfact>
</mgrwt>
</event>
<event>
 4    1  0.6800517E-008  0.1058283E+04  0.7818608E-02  0.9246833E-01
          2   -1    0    0  501    0  0.00000000000E+00  0.00000000000E+00  0.16253330315E+04  0.16253330315E+04  0.25500000000E-02 0. -1.
         -2   -1    0    0    0  501 -0.00000000000E+00 -0.00000000000E+00 -0.16378537074E+04  0.16378537074E+04  0.25500000000E-02 0.  1.
    8880022    1    1    2    0    0  0.48723409430E+03 -0.92691704863E+03  0.12355594976E+04  0.16268285721E+04  0.15294330000E+03 0. -1.
    8880022    1    1    2    0    0 -0.48723409430E+03  0.92691704863E+03 -0.12480801735E+04  0.16363581668E+04  0.15294330000E+03 0.  0.
<mgrwt>
<rscale>  0 0.10582835E+04</rscale>
<asrwt>0</asrwt>
<pdfrwt beam="1">  1        2 0.25005124E+00 0.10582835E+04</pdfrwt>
<pdfrwt beam="2">  1       -2 0.25197749E+00 0.10582835E+04</pdfrwt>
<totfact> 0.66819705E-01</totfact>
</mgrwt>
</event>
<event>
 4    1  0.4880711E-008  0.3403706E+03  0.7818608E-02  0.1066638E+00
         -2   -1    0    0    0  501 -0.00000000000E+00  0.00000000000E+00  0.14989545841E+03  0.14989545843E+03  0.25500000000E-02 0.  1.
          2   -1    0    0  501    0  0.00000000000E+00 -0.00000000000E+00 -0.36766158411E+04  0.36766158411E+04  0.25500000000E-02 0. -1.
    8880022    1    1    2    0    0  0.29798425715E+03 -0.60546736742E+02 -0.34636656266E+04  0.34803493719E+04  0.15294330000E+03 0.  0.
    8880022    1    1    2    0    0 -0.29798425715E+03  0.60546736742E+02 -0.63054756100E+02  0.34616192760E+03  0.15294330000E+03 0.  0.
<mgrwt>
<rscale>  0 0.34037065E+03</rscale>
<asrwt>0</asrwt>
<pdfrwt beam="1">  1        2 0.56563314E+00 0.34037065E+03</pdfrwt>
<pdfrwt beam="2">  1       -2 0.23060843E-01 0.34037065E+03</pdfrwt>
<totfact> 0.12298866E+01</totfact>
</mgrwt>
</event>
<event>
 4    1  0.4880711E-008  0.6799020E+03  0.7818608E-02  0.9752233E-01
          2   -1    0    0  501    0  0.00000000000E+00  0.00000000000E+00  0.70931014700E+03  0.70931014700E+03  0.25500000000E-02 0. -1.
         -2   -1    0    0    0  501 -0.00000000000E+00 -0.00000000000E+00 -0.17845030187E+04  0.17845030187E+04  0.25500000000E-02 0.  1.
    8880022    1    1    2    0    0 -0.61009324183E+03 -0.25818843732E+03 -0.15310554844E+04  0.16752306057E+04  0.15294330000E+03 0.  0.
    8880022    1    1    2    0    0  0.61009324183E+03  0.25818843732E+03  0.45586261270E+03  0.81858256002E+03  0.15294330000E+03 0.  0.
<mgrwt>
<rscale>  0 0.67990197E+03</rscale>
<asrwt>0</asrwt>
<pdfrwt beam="1">  1        2 0.10912464E+00 0.67990197E+03</pdfrwt>
<pdfrwt beam="2">  1       -2 0.27453892E+00 0.67990197E+03</pdfrwt>
<totfact> 0.19222274E+00</totfact>
</mgrwt>
</event>
<event>
 4    1  0.4880711E-008  0.8858706E+03  0.7818608E-02  0.9443418E-01
         -2   -1    0    0    0  501 -0.00000000000E+00  0.00000000000E+00  0.36592113684E+03  0.36592113685E+03  0.25500000000E-02 0.  1.
          2   -1    0    0  501    0  0.00000000000E+00 -0.00000000000E+00 -0.23257315678E+04  0.23257315678E+04  0.25500000000E-02 0. -1.
    8880022    1    1    2    0    0  0.85247799249E+03  0.18616200450E+03 -0.60435646160E+03  0.10723867797E+04  0.15294330000E+03 0.  0.
    8880022    1    1    2    0    0 -0.85247799249E+03 -0.18616200450E+03 -0.13554539694E+04  0.16192659250E+04  0.15294330000E+03 0.  0.
<mgrwt>
<rscale>  0 0.88587057E+03</rscale>
<asrwt>0</asrwt>
<pdfrwt beam="1">  1        2 0.35780485E+00 0.88587057E+03</pdfrwt>
<pdfrwt beam="2">  1       -2 0.56295561E-01 0.88587057E+03</pdfrwt>
<totfact> 0.13279881E+01</totfact>
</mgrwt>
</event>
<event>
 4    1  0.4880711E-008  0.6706598E+03  0.7818608E-02  0.9768767E-01
          2   -1    0    0  501    0  0.00000000000E+00  0.00000000000E+00  0.25760271252E+04  0.25760271252E+04  0.25500000000E-02 0. -1.
         -2   -1    0    0    0  501 -0.00000000000E+00 -0.00000000000E+00 -0.19120878743E+03  0.19120878745E+03  0.25500000000E-02 0.  1.
    8880022    1    1    2    0    0  0.44402365412E+02  0.65147627089E+03  0.78467288489E+03  0.10322287009E+04  0.15294330000E+03 0.  0.
    8880022    1    1    2    0    0 -0.44402365412E+02 -0.65147627089E+03  0.16001454529E+04  0.17350072118E+04  0.15294330000E+03 0.  0.
<mgrwt>
<rscale>  0 0.67065979E+03</rscale>
<asrwt>0</asrwt>
<pdfrwt beam="1">  1        2 0.39631185E+00 0.67065979E+03</pdfrwt>
<pdfrwt beam="2">  1       -2 0.29416737E-01 0.67065979E+03</pdfrwt>
<totfact> 0.35334963E+01</totfact>
</mgrwt>
</event>
<event>
 4    1  0.4880711E-008  0.6171902E+03  0.7818608E-02  0.9870370E-01
          2   -1    0    0  501    0  0.00000000000E+00  0.00000000000E+00  0.82373070136E+03  0.82373070136E+03  0.25500000000E-02 0. -1.
         -2   -1    0    0    0  501 -0.00000000000E+00 -0.00000000000E+00 -0.62184562018E+03  0.62184562019E+03  0.25500000000E-02 0.  1.
    8880022    1    1    2    0    0 -0.37696301313E+03  0.46414543874E+03 -0.26501045834E+03  0.67168020487E+03  0.15294330000E+03 0.  0.
    8880022    1    1    2    0    0  0.37696301313E+03 -0.46414543874E+03  0.46689553952E+03  0.77389611668E+03  0.15294330000E+03 0.  0.
<mgrwt>
<rscale>  0 0.61719021E+03</rscale>
<asrwt>0</asrwt>
<pdfrwt beam="1">  1        2 0.12672780E+00 0.61719021E+03</pdfrwt>
<pdfrwt beam="2">  1       -2 0.95668557E-01 0.61719021E+03</pdfrwt>
<totfact> 0.31207964E+01</totfact>
</mgrwt>
</event>
<event>
 4    1  0.4880711E-008  0.2825635E+03  0.7818608E-02  0.1094297E+00
         -2   -1    0    0    0  501 -0.00000000000E+00  0.00000000000E+00  0.23877974487E+03  0.23877974488E+03  0.25500000000E-02 0.  1.
          2   -1    0    0  501    0  0.00000000000E+00 -0.00000000000E+00 -0.16896989035E+04  0.16896989035E+04  0.25500000000E-02 0. -1.
    8880022    1    1    2    0    0 -0.22906231564E+02  0.23648636674E+03  0.13811850224E+03  0.31451370522E+03  0.15294330000E+03 0.  1.
    8880022    1    1    2    0    0  0.22906231564E+02 -0.23648636674E+03 -0.15890376609E+04  0.16139649432E+04  0.15294330000E+03 0.  0.
<mgrwt>
<rscale>  0 0.28256353E+03</rscale>
<asrwt>0</asrwt>
<pdfrwt beam="1">  1        2 0.25995367E+00 0.28256353E+03</pdfrwt>
<pdfrwt beam="2">  1       -2 0.36735347E-01 0.28256353E+03</pdfrwt>
<totfact> 0.76547357E+01</totfact>
</mgrwt>
</event>
<event>
 4    1  0.4880711E-008  0.1201218E+04  0.7818608E-02  0.9111791E-01
         -2   -1    0    0    0  501 -0.00000000000E+00  0.00000000000E+00  0.80778443808E+03  0.80778443808E+03  0.25500000000E-02 0.  1.
          2   -1    0    0  501    0  0.00000000000E+00 -0.00000000000E+00 -0.24060957123E+04  0.24060957123E+04  0.25500000000E-02 0. -1.
    8880022    1    1    2    0    0 -0.11280272266E+04 -0.38352010512E+03  0.16442917813E+02  0.12013305613E+04  0.15294330000E+03 0.  0.
    8880022    1    1    2    0    0  0.11280272266E+04  0.38352010512E+03 -0.16147541920E+04  0.20125495891E+04  0.15294330000E+03 0.  0.
<mgrwt>
<rscale>  0 0.12012180E+04</rscale>
<asrwt>0</asrwt>
<pdfrwt beam="1">  1        2 0.37016857E+00 0.12012180E+04</pdfrwt>
<pdfrwt beam="2">  1       -2 0.12427453E+00 0.12012180E+04</pdfrwt>
<totfact> 0.18785447E+00</totfact>
</mgrwt>
</event>
<event>
 4    1  0.4880711E-008  0.1037200E+04  0.7818608E-02  0.9268660E-01
         -2   -1    0    0    0  501 -0.00000000000E+00  0.00000000000E+00  0.10160580622E+04  0.10160580622E+04  0.25500000000E-02 0.  1.
          2   -1    0    0  501    0  0.00000000000E+00 -0.00000000000E+00 -0.15523630538E+04  0.15523630538E+04  0.25500000000E-02 0. -1.
    8880022    1    1    2    0    0 -0.16823763328E+03 -0.10119727678E+04  0.45598099333E+03  0.11330062238E+04  0.15294330000E+03 0.  0.
    8880022    1    1    2    0    0  0.16823763328E+03  0.10119727678E+04 -0.99228598494E+03  0.14354148922E+04  0.15294330000E+03 0.  0.
<mgrwt>
<rscale>  0 0.10372003E+04</rscale>
<asrwt>0</asrwt>
<pdfrwt beam="1">  1        2 0.23882509E+00 0.10372003E+04</pdfrwt>
<pdfrwt beam="2">  1       -2 0.15631662E+00 0.10372003E+04</pdfrwt>
<totfact> 0.31460422E+00</totfact>
</mgrwt>
</event>
<event>
 4    1  0.4880711E-008  0.7285016E+03  0.7818608E-02  0.9669695E-01
          2   -1    0    0  501    0  0.00000000000E+00  0.00000000000E+00  0.29713325592E+04  0.29713325592E+04  0.25500000000E-02 0. -1.
         -2   -1    0    0    0  501 -0.00000000000E+00 -0.00000000000E+00 -0.27209499029E+03  0.27209499030E+03  0.25500000000E-02 0.  1.
    8880022    1    1    2    0    0  0.48622851868E+03  0.52048509119E+03  0.39905538734E+03  0.83063816293E+03  0.15294330000E+03 0.  0.
    8880022    1    1    2    0    0 -0.48622851868E+03 -0.52048509119E+03  0.23001821816E+04  0.24127893866E+04  0.15294330000E+03 0.  0.
<mgrwt>
<rscale>  0 0.72850158E+03</rscale>
<asrwt>0</asrwt>
<pdfrwt beam="1">  1        2 0.45712808E+00 0.72850158E+03</pdfrwt>
<pdfrwt beam="2">  1       -2 0.41860769E-01 0.72850158E+03</pdfrwt>
<totfact> 0.10462643E+01</totfact>
</mgrwt>
</event>
<event>
 4    1  0.4880711E-008  0.6516008E+03  0.7818608E-02  0.9803780E-01
         -2   -1    0    0    0  501 -0.00000000000E+00  0.00000000000E+00  0.37620911731E+03  0.37620911732E+03  0.25500000000E-02 0.  1.
          2   -1    0    0  501    0  0.00000000000E+00 -0.00000000000E+00 -0.13682735106E+04  0.13682735106E+04  0.25500000000E-02 0. -1.
    8880022    1    1    2    0    0  0.62149642821E+03  0.12220545474E+03 -0.13096349838E+03  0.66463153279E+03  0.15294330000E+03 0.  0.
    8880022    1    1    2    0    0 -0.62149642821E+03 -0.12220545474E+03 -0.86110089492E+03  0.10798510952E+04  0.15294330000E+03 0.  0.
<mgrwt>
<rscale>  0 0.65160083E+03</rscale>
<asrwt>0</asrwt>
<pdfrwt beam="1">  1        2 0.21050361E+00 0.65160083E+03</pdfrwt>
<pdfrwt beam="2">  1       -2 0.57878326E-01 0.65160083E+03</pdfrwt>
<totfact> 0.43496744E+01</totfact>
</mgrwt>
</event>
<event>
 4    1  0.4880711E-008  0.4452413E+03  0.7818608E-02  0.1029151E+00
          2   -1    0    0  501    0  0.00000000000E+00  0.00000000000E+00  0.63934081245E+03  0.63934081245E+03  0.25500000000E-02 0. -1.
         -2   -1    0    0    0  501 -0.00000000000E+00 -0.00000000000E+00 -0.34802101818E+03  0.34802101819E+03  0.25500000000E-02 0.  1.
    8880022    1    1    2    0    0  0.38633511971E+03  0.15997928423E+03  0.30868718333E+03  0.54178189918E+03  0.15294330000E+03 0.  0.
    8880022    1    1    2    0    0 -0.38633511971E+03 -0.15997928423E+03 -0.17367389057E+02  0.44557993147E+03  0.15294330000E+03 0.  0.
<mgrwt>
<rscale>  0 0.44524134E+03</rscale>
<asrwt>0</asrwt>
<pdfrwt beam="1">  1        2 0.98360124E-01 0.44524134E+03</pdfrwt>
<pdfrwt beam="2">  1       -2 0.53541696E-01 0.44524134E+03</pdfrwt>
<totfact> 0.15544495E+02</totfact>
</mgrwt>
</event>
<event>
 4    1  0.4880711E-008  0.8674032E+03  0.7818608E-02  0.9467272E-01
         -2   -1    0    0    0  501 -0.00000000000E+00  0.00000000000E+00  0.72298223329E+03  0.72298223329E+03  0.25500000000E-02 0.  1.
          2   -1    0    0  501    0  0.00000000000E+00 -0.00000000000E+00 -0.20640698857E+04  0.20640698857E+04  0.25500000000E-02 0. -1.
    8880022    1    1    2    0    0  0.11448025190E+03 -0.84610338002E+03 -0.16517829962E+04  0.18656836219E+04  0.15294330000E+03 0.  0.
    8880022    1    1    2    0    0 -0.11448025190E+03  0.84610338002E+03  0.31069534373E+03  0.92136849707E+03  0.15294330000E+03 0.  0.
<mgrwt>
<rscale>  0 0.86740320E+03</rscale>
<asrwt>0</asrwt>
<pdfrwt beam="1">  1        2 0.31754921E+00 0.86740320E+03</pdfrwt>
<pdfrwt beam="2">  1       -2 0.11122804E+00 0.86740320E+03</pdfrwt>
<totfact> 0.40093944E+00</totfact>
</mgrwt>
</event>
<event>
 4    1  0.4880711E-008  0.1693071E+03  0.7818608E-02  0.1178572E+00
          2   -1    0    0  501    0  0.00000000000E+00  0.00000000000E+00  0.40699835216E+03  0.40699835216E+03  0.25500000000E-02 0. -1.
         -2   -1    0    0    0  501 -0.00000000000E+00 -0.00000000000E+00 -0.81538145330E+02  0.81538145370E+02  0.25500000000E-02 0.  1.
    8880022    1    1    2    0    0 -0.71587638372E+02 -0.12183793942E+02  0.25288881061E+03  0.30433146132E+03  0.15294330000E+03 0.  0.
    8880022    1    1    2    0    0  0.71587638372E+02  0.12183793942E+02  0.72571396214E+02  0.18420503621E+03  0.15294330000E+03 0.  0.
<mgrwt>
<rscale>  0 0.16930708E+03</rscale>
<asrwt>0</asrwt>
<pdfrwt beam="1">  1        2 0.62615131E-01 0.16930708E+03</pdfrwt>
<pdfrwt beam="2">  1       -2 0.12544330E-01 0.16930708E+03</pdfrwt>
<totfact> 0.35221248E+03</totfact>
</mgrwt>
</event>
<event>
 4    1  0.4880711E-008  0.4774536E+03  0.7818608E-02  0.1019837E+00
         -2   -1    0    0    0  501 -0.00000000000E+00  0.00000000000E+00  0.29325292523E+03  0.29325292524E+03  0.25500000000E-02 0.  1.
          2   -1    0    0  501    0  0.00000000000E+00 -0.00000000000E+00 -0.11438981850E+04  0.11438981850E+04  0.25500000000E-02 0. -1.
    8880022    1    1    2    0    0 -0.41462411137E+03 -0.18071274287E+03 -0.18560255524E+02  0.47781417441E+03  0.15294330000E+03 0.  0.
    8880022    1    1    2    0    0  0.41462411137E+03  0.18071274287E+03 -0.83208500424E+03  0.95933693584E+03  0.15294330000E+03 0.  0.
<mgrwt>
<rscale>  0 0.47745356E+03</rscale>
<asrwt>0</asrwt>
<pdfrwt beam="1">  1        2 0.17598433E+00 0.47745356E+03</pdfrwt>
<pdfrwt beam="2">  1       -2 0.45115835E-01 0.47745356E+03</pdfrwt>
<totfact> 0.99435778E+01</totfact>
</mgrwt>
</event>
<event>
 4    1  0.4880711E-008  0.8937925E+03  0.7818608E-02  0.9433375E-01
         -2   -1    0    0    0  501 -0.00000000000E+00  0.00000000000E+00  0.27668070723E+04  0.27668070723E+04  0.25500000000E-02 0.  1.
          2   -1    0    0  501    0  0.00000000000E+00 -0.00000000000E+00 -0.60974005653E+03  0.60974005653E+03  0.25500000000E-02 0. -1.
    8880022    1    1    2    0    0  0.17583673449E+03  0.86287587242E+03  0.23035124085E+04  0.24708367808E+04  0.15294330000E+03 0.  0.
    8880022    1    1    2    0    0 -0.17583673449E+03 -0.86287587242E+03 -0.14644539273E+03  0.90571034800E+03  0.15294330000E+03 0.  0.
<mgrwt>
<rscale>  0 0.89379247E+03</rscale>
<asrwt>0</asrwt>
<pdfrwt beam="1">  1        2 0.93806164E-01 0.89379247E+03</pdfrwt>
<pdfrwt beam="2">  1       -2 0.42566262E+00 0.89379247E+03</pdfrwt>
<totfact> 0.25399279E-01</totfact>
</mgrwt>
</event>
<event>
 4    1  0.4880711E-008  0.3238482E+03  0.7818608E-02  0.1073892E+00
          2   -1    0    0  501    0  0.00000000000E+00  0.00000000000E+00  0.78088037931E+03  0.78088037931E+03  0.25500000000E-02 0. -1.
         -2   -1    0    0    0  501 -0.00000000000E+00 -0.00000000000E+00 -0.17219941411E+03  0.17219941413E+03  0.25500000000E-02 0.  1.
    8880022    1    1    2    0    0  0.27928684474E+03 -0.59032570005E+02  0.52788294217E+03  0.61930448054E+03  0.15294330000E+03 0.  0.
    8880022    1    1    2    0    0 -0.27928684474E+03  0.59032570005E+02  0.80798023027E+02  0.33377531290E+03  0.15294330000E+03 0.  0.
<mgrwt>
<rscale>  0 0.32384817E+03</rscale>
<asrwt>0</asrwt>
<pdfrwt beam="1">  1        2 0.12013544E+00 0.32384817E+03</pdfrwt>
<pdfrwt beam="2">  1       -2 0.26492218E-01 0.32384817E+03</pdfrwt>
<totfact> 0.47000650E+02</totfact>
</mgrwt>
</event>
<event>
 4    1  0.4880711E-008  0.3737880E+03  0.7818608E-02  0.1053254E+00
          2   -1    0    0  501    0  0.00000000000E+00  0.00000000000E+00  0.88084645758E+03  0.88084645758E+03  0.25500000000E-02 0. -1.
         -2   -1    0    0    0  501 -0.00000000000E+00 -0.00000000000E+00 -0.65382523399E+03  0.65382523399E+03  0.25500000000E-02 0.  1.
    8880022    1    1    2    0    0  0.50530335965E+02  0.33730179355E+03 -0.55429252418E+03  0.66854892877E+03  0.15294330000E+03 0.  0.
    8880022    1    1    2    0    0 -0.50530335965E+02 -0.33730179355E+03  0.78131374777E+03  0.86612276280E+03  0.15294330000E+03 0. -1.
<mgrwt>
<rscale>  0 0.37378800E+03</rscale>
<asrwt>0</asrwt>
<pdfrwt beam="1">  1        2 0.13551484E+00 0.37378800E+03</pdfrwt>
<pdfrwt beam="2">  1       -2 0.10058850E+00 0.37378800E+03</pdfrwt>
<totfact> 0.26267179E+01</totfact>
</mgrwt>
</event>
<event>
 4    1  0.4880711E-008  0.4816687E+03  0.7818608E-02  0.1018678E+00
         -2   -1    0    0    0  501 -0.00000000000E+00  0.00000000000E+00  0.53444040006E+03  0.53444040006E+03  0.25500000000E-02 0.  1.
          2   -1    0    0  501    0  0.00000000000E+00 -0.00000000000E+00 -0.15729574740E+04  0.15729574740E+04  0.25500000000E-02 0. -1.
    8880022    1    1    2    0    0 -0.29317438371E+03  0.35023122641E+03 -0.14158430619E+04  0.14955321327E+04  0.15294330000E+03 0.  0.
    8880022    1    1    2    0    0  0.29317438371E+03 -0.35023122641E+03  0.37732598793E+03  0.61186574132E+03  0.15294330000E+03 0.  0.
<mgrwt>
<rscale>  0 0.48166875E+03</rscale>
<asrwt>0</asrwt>
<pdfrwt beam="1">  1        2 0.24199346E+00 0.48166875E+03</pdfrwt>
<pdfrwt beam="2">  1       -2 0.82221600E-01 0.48166875E+03</pdfrwt>
<totfact> 0.16073079E+01</totfact>
</mgrwt>
</event>
<event>
 4    1  0.4880711E-008  0.6115078E+03  0.7818608E-02  0.9881815E-01
         -2   -1    0    0    0  501 -0.00000000000E+00  0.00000000000E+00  0.10962093159E+04  0.10962093159E+04  0.25500000000E-02 0.  1.
          2   -1    0    0  501    0  0.00000000000E+00 -0.00000000000E+00 -0.53887615245E+03  0.53887615246E+03  0.25500000000E-02 0. -1.
    8880022    1    1    2    0    0  0.58760443433E+03  0.72602459549E+02  0.77392077161E+03  0.98635445055E+03  0.15294330000E+03 0.  0.
    8880022    1    1    2    0    0 -0.58760443433E+03 -0.72602459549E+02 -0.21658760819E+03  0.64873101777E+03  0.15294330000E+03 0.  0.
<mgrwt>
<rscale>  0 0.61150776E+03</rscale>
<asrwt>0</asrwt>
<pdfrwt beam="1">  1        2 0.82904024E-01 0.61150776E+03</pdfrwt>
<pdfrwt beam="2">  1       -2 0.16864759E+00 0.61150776E+03</pdfrwt>
<totfact> 0.12675194E+01</totfact>
</mgrwt>
</event>
<event>
 4    1  0.4880711E-008  0.4451344E+03  0.7818608E-02  0.1029183E+00
         -2   -1    0    0    0  501 -0.00000000000E+00  0.00000000000E+00  0.33466958936E+03  0.33466958937E+03  0.25500000000E-02 0.  1.
          2   -1    0    0  501    0  0.00000000000E+00 -0.00000000000E+00 -0.17863203857E+04  0.17863203857E+04  0.25500000000E-02 0. -1.
    8880022    1    1    2    0    0  0.41060034264E+03  0.78487757044E+02 -0.15929437491E+04  0.16539692894E+04  0.15294330000E+03 0. -1.
    8880022    1    1    2    0    0 -0.41060034264E+03 -0.78487757044E+02  0.14129295273E+03  0.46702068572E+03  0.15294330000E+03 0.  0.
<mgrwt>
<rscale>  0 0.44513439E+03</rscale>
<asrwt>0</asrwt>
<pdfrwt beam="1">  1        2 0.27481852E+00 0.44513439E+03</pdfrwt>
<pdfrwt beam="2">  1       -2 0.51487630E-01 0.44513439E+03</pdfrwt>
<totfact> 0.33764632E+01</totfact>
</mgrwt>
</event>
<event>
 4    1  0.4880711E-008  0.9049223E+03  0.7818608E-02  0.9419449E-01
          2   -1    0    0  501    0  0.00000000000E+00  0.00000000000E+00  0.62105307353E+03  0.62105307354E+03  0.25500000000E-02 0. -1.
         -2   -1    0    0    0  501 -0.00000000000E+00 -0.00000000000E+00 -0.14630029862E+04  0.14630029862E+04  0.25500000000E-02 0.  1.
    8880022    1    1    2    0    0 -0.21999962267E+03 -0.86434533724E+03 -0.74841560921E+03  0.11743126811E+04  0.15294330000E+03 0.  0.
    8880022    1    1    2    0    0  0.21999962267E+03  0.86434533724E+03 -0.93534303487E+02  0.90974337861E+03  0.15294330000E+03 0.  0.
<mgrwt>
<rscale>  0 0.90492229E+03</rscale>
<asrwt>0</asrwt>
<pdfrwt beam="1">  1        2 0.95546627E-01 0.90492229E+03</pdfrwt>
<pdfrwt beam="2">  1       -2 0.22507738E+00 0.90492229E+03</pdfrwt>
<totfact> 0.43916043E+00</totfact>
</mgrwt>
</event>
<event>
 4    1  0.4880711E-008  0.8533290E+03  0.7818608E-02  0.9485880E-01
         -2   -1    0    0    0  501 -0.00000000000E+00  0.00000000000E+00  0.78302826690E+03  0.78302826691E+03  0.25500000000E-02 0.  1.
          2   -1    0    0  501    0  0.00000000000E+00 -0.00000000000E+00 -0.21210928853E+04  0.21210928853E+04  0.25500000000E-02 0. -1.
    8880022    1    1    2    0    0 -0.82265949017E+03  0.16736195669E+03  0.41911679693E+03  0.95069932355E+03  0.15294330000E+03 0.  0.
    8880022    1    1    2    0    0  0.82265949017E+03 -0.16736195669E+03 -0.17571814153E+04  0.19534218286E+04  0.15294330000E+03 0.  0.
<mgrwt>
<rscale>  0 0.85332896E+03</rscale>
<asrwt>0</asrwt>
<pdfrwt beam="1">  1        2 0.32632198E+00 0.85332896E+03</pdfrwt>
<pdfrwt beam="2">  1       -2 0.12046589E+00 0.85332896E+03</pdfrwt>
<totfact> 0.30731236E+00</totfact>
</mgrwt>
</event>
<event>
 4    1  0.4880711E-008  0.1348188E+04  0.7818608E-02  0.8992201E-01
         -2   -1    0    0    0  501 -0.00000000000E+00  0.00000000000E+00  0.14577426604E+04  0.14577426604E+04  0.25500000000E-02 0.  1.
          2   -1    0    0  501    0  0.00000000000E+00 -0.00000000000E+00 -0.19018938442E+04  0.19018938442E+04  0.25500000000E-02 0. -1.
    8880022    1    1    2    0    0  0.73482156891E+03 -0.11199364818E+04 -0.12078975896E+04  0.18101460442E+04  0.15294330000E+03 0.  0.
    8880022    1    1    2    0    0 -0.73482156891E+03  0.11199364818E+04  0.76374640588E+03  0.15494904604E+04  0.15294330000E+03 0.  0.
<mgrwt>
<rscale>  0 0.13481885E+04</rscale>
<asrwt>0</asrwt>
<pdfrwt beam="1">  1        2 0.29259905E+00 0.13481885E+04</pdfrwt>
<pdfrwt beam="2">  1       -2 0.22426810E+00 0.13481885E+04</pdfrwt>
<totfact> 0.67121476E-01</totfact>
</mgrwt>
</event>
<event>
 4    1  0.4880711E-008  0.1708035E+03  0.7818608E-02  0.1177013E+00
         -2   -1    0    0    0  501 -0.00000000000E+00  0.00000000000E+00  0.68400338630E+03  0.68400338630E+03  0.25500000000E-02 0.  1.
          2   -1    0    0  501    0  0.00000000000E+00 -0.00000000000E+00 -0.54698668994E+03  0.54698668994E+03  0.25500000000E-02 0. -1.
    8880022    1    1    2    0    0 -0.52375758745E+01 -0.75859978865E+02 -0.52250294655E+03  0.54971187977E+03  0.15294330000E+03 0. -1.
    8880022    1    1    2    0    0  0.52375758745E+01  0.75859978865E+02  0.65951964291E+03  0.68127819647E+03  0.15294330000E+03 0.  0.
<mgrwt>
<rscale>  0 0.17080346E+03</rscale>
<asrwt>0</asrwt>
<pdfrwt beam="1">  1        2 0.84151798E-01 0.17080346E+03</pdfrwt>
<pdfrwt beam="2">  1       -2 0.10523129E+00 0.17080346E+03</pdfrwt>
<totfact> 0.44336968E+01</totfact>
</mgrwt>
</event>
<event>
 4    1  0.4880711E-008  0.5113888E+03  0.7818608E-02  0.1010848E+00
          2   -1    0    0  501    0  0.00000000000E+00  0.00000000000E+00  0.14080327280E+04  0.14080327280E+04  0.25500000000E-02 0. -1.
         -2   -1    0    0    0  501 -0.00000000000E+00 -0.00000000000E+00 -0.20063256944E+03  0.20063256946E+03  0.25500000000E-02 0.  1.
    8880022    1    1    2    0    0  0.43906881073E+03  0.21294467342E+03  0.82288872987E+03  0.96884692767E+03  0.15294330000E+03 0.  0.
    8880022    1    1    2    0    0 -0.43906881073E+03 -0.21294467342E+03  0.38451142865E+03  0.63981836975E+03  0.15294330000E+03 0.  0.
<mgrwt>
<rscale>  0 0.51138880E+03</rscale>
<asrwt>0</asrwt>
<pdfrwt beam="1">  1        2 0.21662042E+00 0.51138880E+03</pdfrwt>
<pdfrwt beam="2">  1       -2 0.30866549E-01 0.51138880E+03</pdfrwt>
<totfact> 0.14457112E+02</totfact>
</mgrwt>
</event>
<event>
 4    1  0.4880711E-008  0.4188340E+03  0.7818608E-02  0.1037446E+00
         -2   -1    0    0    0  501 -0.00000000000E+00  0.00000000000E+00  0.14300349953E+03  0.14300349956E+03  0.25500000000E-02 0.  1.
          2   -1    0    0  501    0  0.00000000000E+00 -0.00000000000E+00 -0.25278454129E+04  0.25278454129E+04  0.25500000000E-02 0. -1.
    8880022    1    1    2    0    0  0.37809509307E+03 -0.95259413973E+02 -0.21505137038E+04  0.21909201488E+04  0.15294330000E+03 0.  0.
    8880022    1    1    2    0    0 -0.37809509307E+03  0.95259413973E+02 -0.23432820961E+03  0.47992876366E+03  0.15294330000E+03 0.  1.
<mgrwt>
<rscale>  0 0.41883399E+03</rscale>
<asrwt>0</asrwt>
<pdfrwt beam="1">  1        2 0.38889926E+00 0.41883399E+03</pdfrwt>
<pdfrwt beam="2">  1       -2 0.22000540E-01 0.41883399E+03</pdfrwt>
<totfact> 0.66591341E+01</totfact>
</mgrwt>
</event>
<event>
 4    1  0.4880711E-008  0.5055649E+03  0.7818608E-02  0.1012337E+00
          2   -1    0    0  501    0  0.00000000000E+00  0.00000000000E+00  0.20382546858E+04  0.20382546858E+04  0.25500000000E-02 0. -1.
         -2   -1    0    0    0  501 -0.00000000000E+00 -0.00000000000E+00 -0.22552800278E+03  0.22552800279E+03  0.25500000000E-02 0.  1.
    8880022    1    1    2    0    0 -0.10266920016E+03  0.47081125491E+03  0.15216835196E+03  0.52796880851E+03  0.15294330000E+03 0.  0.
    8880022    1    1    2    0    0  0.10266920016E+03 -0.47081125491E+03  0.16605583311E+04  0.17358138801E+04  0.15294330000E+03 0.  0.
<mgrwt>
<rscale>  0 0.50556489E+03</rscale>
<asrwt>0</asrwt>
<pdfrwt beam="1">  1        2 0.31357766E+00 0.50556489E+03</pdfrwt>
<pdfrwt beam="2">  1       -2 0.34696614E-01 0.50556489E+03</pdfrwt>
<totfact> 0.52922073E+01</totfact>
</mgrwt>
</event>
<event>
 4    1  0.4880711E-008  0.1987768E+03  0.7818608E-02  0.1150775E+00
         -2   -1    0    0    0  501 -0.00000000000E+00  0.00000000000E+00  0.10309068724E+03  0.10309068727E+03  0.25500000000E-02 0.  1.
          2   -1    0    0  501    0  0.00000000000E+00 -0.00000000000E+00 -0.71644932288E+03  0.71644932289E+03  0.25500000000E-02 0. -1.
    8880022    1    1    2    0    0 -0.11991371131E+03 -0.41728486037E+02 -0.58611530628E+03  0.61890497654E+03  0.15294330000E+03 0.  0.
    8880022    1    1    2    0    0  0.11991371131E+03  0.41728486037E+02 -0.27243329359E+02  0.20063503362E+03  0.15294330000E+03 0.  0.
<mgrwt>
<rscale>  0 0.19877680E+03</rscale>
<asrwt>0</asrwt>
<pdfrwt beam="1">  1        2 0.11022297E+00 0.19877680E+03</pdfrwt>
<pdfrwt beam="2">  1       -2 0.15860106E-01 0.19877680E+03</pdfrwt>
<totfact> 0.12702043E+03</totfact>
</mgrwt>
</event>
<event>
 4    1  0.4880711E-008  0.3133404E+03  0.7818608E-02  0.1078756E+00
         -2   -1    0    0    0  501 -0.00000000000E+00  0.00000000000E+00  0.67771964732E+03  0.67771964733E+03  0.25500000000E-02 0.  1.
          2   -1    0    0  501    0  0.00000000000E+00 -0.00000000000E+00 -0.57045387314E+03  0.57045387314E+03  0.25500000000E-02 0. -1.
    8880022    1    1    2    0    0  0.22765499761E+03  0.15153802049E+03  0.59267978146E+03  0.67041147511E+03  0.15294330000E+03 0.  1.
    8880022    1    1    2    0    0 -0.22765499761E+03 -0.15153802049E+03 -0.48541400727E+03  0.57776204536E+03  0.15294330000E+03 0.  0.
<mgrwt>
<rscale>  0 0.31334043E+03</rscale>
<asrwt>0</asrwt>
<pdfrwt beam="1">  1        2 0.87762135E-01 0.31334043E+03</pdfrwt>
<pdfrwt beam="2">  1       -2 0.10426456E+00 0.31334043E+03</pdfrwt>
<totfact> 0.41846342E+01</totfact>
</mgrwt>
</event>
<event>
 4    1  0.4880711E-008  0.8462935E+03  0.7818608E-02  0.9495325E-01
          2   -1    0    0  501    0  0.00000000000E+00  0.00000000000E+00  0.21423164374E+04  0.21423164374E+04  0.25500000000E-02 0. -1.
         -2   -1    0    0    0  501 -0.00000000000E+00 -0.00000000000E+00 -0.36165630128E+03  0.36165630129E+03  0.25500000000E-02 0.  1.
    8880022    1    1    2    0    0 -0.62095768376E+03 -0.55428561805E+03  0.54610231566E+03  0.10071943127E+04  0.15294330000E+03 0.  0.
    8880022    1    1    2    0    0  0.62095768376E+03  0.55428561805E+03  0.12345578205E+04  0.14967784260E+04  0.15294330000E+03 0.  0.
<mgrwt>
<rscale>  0 0.84629347E+03</rscale>
<asrwt>0</asrwt>
<pdfrwt beam="1">  1        2 0.32958715E+00 0.84629347E+03</pdfrwt>
<pdfrwt beam="2">  1       -2 0.55639430E-01 0.84629347E+03</pdfrwt>
<totfact> 0.17293524E+01</totfact>
</mgrwt>
</event>
<event>
 4    1  0.4880711E-008  0.3962794E+03  0.7818608E-02  0.1045076E+00
          2   -1    0    0  501    0  0.00000000000E+00  0.00000000000E+00  0.26636840880E+04  0.26636840880E+04  0.25500000000E-02 0. -1.
         -2   -1    0    0    0  501 -0.00000000000E+00 -0.00000000000E+00 -0.13812096104E+03  0.13812096106E+03  0.25500000000E-02 0.  1.
    8880022    1    1    2    0    0 -0.23746020058E+03 -0.27795382455E+03  0.20219153836E+03  0.44488059818E+03  0.15294330000E+03 0.  0.
    8880022    1    1    2    0    0  0.23746020058E+03  0.27795382455E+03  0.23233715886E+04  0.23569244509E+04  0.15294330000E+03 0.  0.
<mgrwt>
<rscale>  0 0.39627936E+03</rscale>
<asrwt>0</asrwt>
<pdfrwt beam="1">  1        2 0.40979753E+00 0.39627936E+03</pdfrwt>
<pdfrwt beam="2">  1       -2 0.21249380E-01 0.39627936E+03</pdfrwt>
<totfact> 0.59672427E+01</totfact>
</mgrwt>
</event>
<event>
 4    1  0.4880711E-008  0.4428131E+03  0.7818608E-02  0.1029887E+00
         -2   -1    0    0    0  501 -0.00000000000E+00  0.00000000000E+00  0.29509448041E+03  0.29509448042E+03  0.25500000000E-02 0.  1.
          2   -1    0    0  501    0  0.00000000000E+00 -0.00000000000E+00 -0.13771795450E+04  0.13771795451E+04  0.25500000000E-02 0. -1.
    8880022    1    1    2    0    0 -0.11674949552E+03 -0.39882497476E+03  0.60458475816E+02  0.44692134153E+03  0.15294330000E+03 0.  1.
    8880022    1    1    2    0    0  0.11674949552E+03  0.39882497476E+03 -0.11425435405E+04  0.12253526839E+04  0.15294330000E+03 0.  0.
<mgrwt>
<rscale>  0 0.44281312E+03</rscale>
<asrwt>0</asrwt>
<pdfrwt beam="1">  1        2 0.21187377E+00 0.44281312E+03</pdfrwt>
<pdfrwt beam="2">  1       -2 0.45399152E-01 0.44281312E+03</pdfrwt>
<totfact> 0.72540989E+01</totfact>
</mgrwt>
</event>
<event>
 4    1  0.4880711E-008  0.3732049E+03  0.7818608E-02  0.1053474E+00
          2   -1    0    0  501    0  0.00000000000E+00  0.00000000000E+00  0.11554811096E+04  0.11554811096E+04  0.25500000000E-02 0. -1.
         -2   -1    0    0    0  501 -0.00000000000E+00 -0.00000000000E+00 -0.89735377684E+03  0.89735377685E+03  0.25500000000E-02 0.  1.
    8880022    1    1    2    0    0 -0.18897980939E+03 -0.28315520387E+03  0.10840575457E+04  0.11465001758E+04  0.15294330000E+03 0.  0.
    8880022    1    1    2    0    0  0.18897980939E+03  0.28315520387E+03 -0.82593021298E+03  0.90633471056E+03  0.15294330000E+03 0.  0.
<mgrwt>
<rscale>  0 0.37320489E+03</rscale>
<asrwt>0</asrwt>
<pdfrwt beam="1">  1        2 0.17776632E+00 0.37320489E+03</pdfrwt>
<pdfrwt beam="2">  1       -2 0.13805443E+00 0.37320489E+03</pdfrwt>
<totfact> 0.82004375E+00</totfact>
</mgrwt>
</event>
<event>
 4    1  0.4880711E-008  0.4312171E+03  0.7818608E-02  0.1033476E+00
         -2   -1    0    0    0  501 -0.00000000000E+00  0.00000000000E+00  0.32174000309E+03  0.32174000310E+03  0.25500000000E-02 0.  1.
          2   -1    0    0  501    0  0.00000000000E+00 -0.00000000000E+00 -0.78546211263E+03  0.78546211264E+03  0.25500000000E-02 0. -1.
    8880022    1    1    2    0    0 -0.39740876764E+03 -0.67991035690E+02 -0.51641250602E+03  0.67277785258E+03  0.15294330000E+03 0.  0.
    8880022    1    1    2    0    0  0.39740876764E+03  0.67991035690E+02  0.52690396479E+02  0.43442426317E+03  0.15294330000E+03 0.  1.
<mgrwt>
<rscale>  0 0.43121707E+03</rscale>
<asrwt>0</asrwt>
<pdfrwt beam="1">  1        2 0.12084032E+00 0.43121707E+03</pdfrwt>
<pdfrwt beam="2">  1       -2 0.49498462E-01 0.43121707E+03</pdfrwt>
<totfact> 0.14122087E+02</totfact>
</mgrwt>
</event>
<event>
 4    1  0.4880711E-008  0.4537083E+03  0.7818608E-02  0.1026622E+00
         -2   -1    0    0    0  501 -0.00000000000E+00  0.00000000000E+00  0.25435376915E+03  0.25435376916E+03  0.25500000000E-02 0.  1.
          2   -1    0    0  501    0  0.00000000000E+00 -0.00000000000E+00 -0.13714621039E+04  0.13714621040E+04  0.25500000000E-02 0. -1.
    8880022    1    1    2    0    0  0.42440978981E+03  0.48330692204E+02 -0.38107560823E+02  0.45530579252E+03  0.15294330000E+03 0.  1.
    8880022    1    1    2    0    0 -0.42440978981E+03 -0.48330692204E+02 -0.10790007740E+04  0.11705100806E+04  0.15294330000E+03 0. -1.
<mgrwt>
<rscale>  0 0.45370825E+03</rscale>
<asrwt>0</asrwt>
<pdfrwt beam="1">  1        2 0.21099417E+00 0.45370825E+03</pdfrwt>
<pdfrwt beam="2">  1       -2 0.39131350E-01 0.45370825E+03</pdfrwt>
<totfact> 0.97521115E+01</totfact>
</mgrwt>
</event>
<event>
 4    1  0.4880711E-008  0.4237584E+03  0.7818608E-02  0.1035850E+00
         -2   -1    0    0    0  501 -0.00000000000E+00  0.00000000000E+00  0.31493876604E+03  0.31493876605E+03  0.25500000000E-02 0.  1.
          2   -1    0    0  501    0  0.00000000000E+00 -0.00000000000E+00 -0.14214657117E+04  0.14214657117E+04  0.25500000000E-02 0. -1.
    8880022    1    1    2    0    0  0.76831526302E+02  0.38765501212E+03  0.11861526603E+03  0.44004627735E+03  0.15294330000E+03 0.  0.
    8880022    1    1    2    0    0 -0.76831526302E+02 -0.38765501212E+03 -0.12251422117E+04  0.12963582004E+04  0.15294330000E+03 0.  0.
<mgrwt>
<rscale>  0 0.42375836E+03</rscale>
<asrwt>0</asrwt>
<pdfrwt beam="1">  1        2 0.21868703E+00 0.42375836E+03</pdfrwt>
<pdfrwt beam="2">  1       -2 0.48452119E-01 0.42375836E+03</pdfrwt>
<totfact> 0.60406777E+01</totfact>
</mgrwt>
</event>
<event>
 4    1  0.4880711E-008  0.1644479E+03  0.7818608E-02  0.1183765E+00
          2   -1    0    0  501    0  0.00000000000E+00  0.00000000000E+00  0.19732060925E+03  0.19732060927E+03  0.25500000000E-02 0. -1.
         -2   -1    0    0    0  501 -0.00000000000E+00 -0.00000000000E+00 -0.93939355662E+03  0.93939355662E+03  0.25500000000E-02 0.  1.
    8880022    1    1    2    0    0 -0.53066215325E+02 -0.28903997260E+02 -0.89629997365E+03  0.91126108227E+03  0.15294330000E+03 0.  0.
    8880022    1    1    2    0    0  0.53066215325E+02  0.28903997260E+02  0.15422702629E+03  0.22545308363E+03  0.15294330000E+03 0. -1.
<mgrwt>
<rscale>  0 0.16444792E+03</rscale>
<asrwt>0</asrwt>
<pdfrwt beam="1">  1        2 0.30357017E-01 0.16444792E+03</pdfrwt>
<pdfrwt beam="2">  1       -2 0.14452208E+00 0.16444792E+03</pdfrwt>
<totfact> 0.61767621E+01</totfact>
</mgrwt>
</event>
<event>
 4    1  0.4880711E-008  0.3277113E+03  0.7818608E-02  0.1072154E+00
          2   -1    0    0  501    0  0.00000000000E+00  0.00000000000E+00  0.27849399423E+04  0.27849399423E+04  0.25500000000E-02 0. -1.
         -2   -1    0    0    0  501 -0.00000000000E+00 -0.00000000000E+00 -0.51789540794E+02  0.51789540856E+02  0.25500000000E-02 0.  1.
    8880022    1    1    2    0    0 -0.16325215406E+03 -0.23948236675E+03  0.20833709743E+04  0.21089877523E+04  0.15294330000E+03 0.  0.
    8880022    1    1    2    0    0  0.16325215406E+03  0.23948236675E+03  0.64977942718E+03  0.72774173083E+03  0.15294330000E+03 0.  0.
<mgrwt>
<rscale>  0 0.32771134E+03</rscale>
<asrwt>0</asrwt>
<pdfrwt beam="1">  1        2 0.42845220E+00 0.32771134E+03</pdfrwt>
<pdfrwt beam="2">  1       -2 0.79676234E-02 0.32771134E+03</pdfrwt>
<totfact> 0.26099355E+02</totfact>
</mgrwt>
</event>
<event>
 4    1  0.4880711E-008  0.7278200E+03  0.7818608E-02  0.9670805E-01
          2   -1    0    0  501    0  0.00000000000E+00  0.00000000000E+00  0.16080278664E+04  0.16080278664E+04  0.25500000000E-02 0. -1.
         -2   -1    0    0    0  501 -0.00000000000E+00 -0.00000000000E+00 -0.56805935772E+03  0.56805935773E+03  0.25500000000E-02 0.  1.
    8880022    1    1    2    0    0  0.36231561963E+02  0.71064588589E+03 -0.18522404733E+03  0.75101924205E+03  0.15294330000E+03 0.  0.
    8880022    1    1    2    0    0 -0.36231561963E+02 -0.71064588589E+03  0.12251925560E+04  0.14250679821E+04  0.15294330000E+03 0.  0.
<mgrwt>
<rscale>  0 0.72782000E+03</rscale>
<asrwt>0</asrwt>
<pdfrwt beam="1">  1        2 0.24738890E+00 0.72782000E+03</pdfrwt>
<pdfrwt beam="2">  1       -2 0.87393748E-01 0.72782000E+03</pdfrwt>
<totfact> 0.12849751E+01</totfact>
</mgrwt>
</event>
<event>
 4    1  0.4880711E-008  0.1551315E+03  0.7818608E-02  0.1194306E+00
          2   -1    0    0  501    0  0.00000000000E+00  0.00000000000E+00  0.15979791986E+04  0.15979791986E+04  0.25500000000E-02 0. -1.
         -2   -1    0    0    0  501 -0.00000000000E+00 -0.00000000000E+00 -0.26285456059E+02  0.26285456183E+02  0.25500000000E-02 0.  1.
    8880022    1    1    2    0    0  0.15985050829E+02 -0.20459860645E+02  0.25512321423E+03  0.29858605996E+03  0.15294330000E+03 0.  0.
    8880022    1    1    2    0    0 -0.15985050829E+02  0.20459860645E+02  0.13165705283E+04  0.13256785949E+04  0.15294330000E+03 0. -1.
<mgrwt>
<rscale>  0 0.15513150E+03</rscale>
<asrwt>0</asrwt>
<pdfrwt beam="1">  1        2 0.24584301E+00 0.15513150E+03</pdfrwt>
<pdfrwt beam="2">  1       -2 0.40439154E-02 0.15513150E+03</pdfrwt>
<totfact> 0.32587014E+03</totfact>
</mgrwt>
</event>
<event>
 4    1  0.4880711E-008  0.6353291E+03  0.7818608E-02  0.9834704E-01
          2   -1    0    0  501    0  0.00000000000E+00  0.00000000000E+00  0.52686449914E+03  0.52686449915E+03  0.25500000000E-02 0. -1.
         -2   -1    0    0    0  501 -0.00000000000E+00 -0.00000000000E+00 -0.21790157482E+04  0.21790157482E+04  0.25500000000E-02 0.  1.
    8880022    1    1    2    0    0  0.39117824541E+03  0.47668754341E+03 -0.19155147496E+04  0.20181278063E+04  0.15294330000E+03 0.  0.
    8880022    1    1    2    0    0 -0.39117824541E+03 -0.47668754341E+03  0.26336350053E+03  0.68775244103E+03  0.15294330000E+03 0.  0.
<mgrwt>
<rscale>  0 0.63532912E+03</rscale>
<asrwt>0</asrwt>
<pdfrwt beam="1">  1        2 0.81056078E-01 0.63532912E+03</pdfrwt>
<pdfrwt beam="2">  1       -2 0.33523319E+00 0.63532912E+03</pdfrwt>
<totfact> 0.11978244E+00</totfact>
</mgrwt>
</event>
<event>
 4    1  0.4880711E-008  0.1076059E+04  0.7818608E-02  0.9228846E-01
         -2   -1    0    0    0  501 -0.00000000000E+00  0.00000000000E+00  0.12833696295E+04  0.12833696295E+04  0.25500000000E-02 0.  1.
          2   -1    0    0  501    0  0.00000000000E+00 -0.00000000000E+00 -0.12993666254E+04  0.12993666254E+04  0.25500000000E-02 0. -1.
    8880022    1    1    2    0    0  0.12270746954E+02  0.10650638523E+04  0.70592305519E+03  0.12869462279E+04  0.15294330000E+03 0.  0.
    8880022    1    1    2    0    0 -0.12270746954E+02 -0.10650638523E+04 -0.72192005110E+03  0.12957900270E+04  0.15294330000E+03 0.  0.
<mgrwt>
<rscale>  0 0.10760591E+04</rscale>
<asrwt>0</asrwt>
<pdfrwt beam="1">  1        2 0.19990256E+00 0.10760591E+04</pdfrwt>
<pdfrwt beam="2">  1       -2 0.19744148E+00 0.10760591E+04</pdfrwt>
<totfact> 0.22500464E+00</totfact>
</mgrwt>
</event>
<event>
 4    1  0.4880711E-008  0.2271027E+03  0.7818608E-02  0.1128696E+00
          2   -1    0    0  501    0  0.00000000000E+00  0.00000000000E+00  0.15449978110E+04  0.15449978110E+04  0.25500000000E-02 0. -1.
         -2   -1    0    0    0  501 -0.00000000000E+00 -0.00000000000E+00 -0.34373097022E+02  0.34373097117E+02  0.25500000000E-02 0.  1.
    8880022    1    1    2    0    0 -0.16575733680E+03 -0.26617121182E+02  0.88938238840E+03  0.91791974140E+03  0.15294330000E+03 0. -1.
    8880022    1    1    2    0    0  0.16575733680E+03  0.26617121182E+02  0.62124232554E+03  0.66145116668E+03  0.15294330000E+03 0.  1.
<mgrwt>
<rscale>  0 0.22710266E+03</rscale>
<asrwt>0</asrwt>
<pdfrwt beam="1">  1        2 0.23769196E+00 0.22710266E+03</pdfrwt>
<pdfrwt beam="2">  1       -2 0.52881690E-02 0.22710266E+03</pdfrwt>
<totfact> 0.23212428E+03</totfact>
</mgrwt>
</event>
<event>
 4    1  0.4880711E-008  0.4296818E+03  0.7818608E-02  0.1033961E+00
          2   -1    0    0  501    0  0.00000000000E+00  0.00000000000E+00  0.68185511230E+03  0.68185511230E+03  0.25500000000E-02 0. -1.
         -2   -1    0    0    0  501 -0.00000000000E+00 -0.00000000000E+00 -0.35540742007E+03  0.35540742008E+03  0.25500000000E-02 0.  1.
    8880022    1    1    2    0    0 -0.10964552955E+03 -0.38628056602E+03 -0.89865895918E+02  0.43897875814E+03  0.15294330000E+03 0.  0.
    8880022    1    1    2    0    0  0.10964552955E+03  0.38628056602E+03  0.41631358815E+03  0.59828377424E+03  0.15294330000E+03 0.  0.
<mgrwt>
<rscale>  0 0.42968183E+03</rscale>
<asrwt>0</asrwt>
<pdfrwt beam="1">  1        2 0.10490078E+00 0.42968183E+03</pdfrwt>
<pdfrwt beam="2">  1       -2 0.54678065E-01 0.42968183E+03</pdfrwt>
<totfact> 0.13784226E+02</totfact>
</mgrwt>
</event>
<event>
 4    1  0.4880711E-008  0.3329025E+03  0.7818608E-02  0.1069860E+00
          2   -1    0    0  501    0  0.00000000000E+00  0.00000000000E+00  0.15761351548E+04  0.15761351548E+04  0.25500000000E-02 0. -1.
         -2   -1    0    0    0  501 -0.00000000000E+00 -0.00000000000E+00 -0.33199959706E+03  0.33199959707E+03  0.25500000000E-02 0.  1.
    8880022    1    1    2    0    0 -0.22662745434E+03 -0.18992742969E+03  0.14691007702E+04  0.15063469579E+04  0.15294330000E+03 0.  0.
    8880022    1    1    2    0    0  0.22662745434E+03  0.18992742969E+03 -0.22496521240E+03  0.40178779401E+03  0.15294330000E+03 0.  1.
<mgrwt>
<rscale>  0 0.33290252E+03</rscale>
<asrwt>0</asrwt>
<pdfrwt beam="1">  1        2 0.24248233E+00 0.33290252E+03</pdfrwt>
<pdfrwt beam="2">  1       -2 0.51076862E-01 0.33290252E+03</pdfrwt>
<totfact> 0.45626690E+01</totfact>
</mgrwt>
</event>
<event>
 4    1  0.4880711E-008  0.7378207E+03  0.7818608E-02  0.9654654E-01
         -2   -1    0    0    0  501 -0.00000000000E+00  0.00000000000E+00  0.58331926519E+03  0.58331926520E+03  0.25500000000E-02 0.  1.
          2   -1    0    0  501    0  0.00000000000E+00 -0.00000000000E+00 -0.19297578938E+04  0.19297578938E+04  0.25500000000E-02 0. -1.
    8880022    1    1    2    0    0 -0.18564740688E+03 -0.69751185290E+03 -0.15761741353E+04  0.17403172994E+04  0.15294330000E+03 0.  0.
    8880022    1    1    2    0    0  0.18564740688E+03  0.69751185290E+03  0.22973550670E+03  0.77275985964E+03  0.15294330000E+03 0.  0.
<mgrwt>
<rscale>  0 0.73782071E+03</rscale>
<asrwt>0</asrwt>
<pdfrwt beam="1">  1        2 0.29688583E+00 0.73782071E+03</pdfrwt>
<pdfrwt beam="2">  1       -2 0.89741427E-01 0.73782071E+03</pdfrwt>
<totfact> 0.80557656E+00</totfact>
</mgrwt>
</event>
<event>
 4    1  0.4880711E-008  0.5056126E+03  0.7818608E-02  0.1012324E+00
         -2   -1    0    0    0  501 -0.00000000000E+00  0.00000000000E+00  0.21433443334E+03  0.21433443336E+03  0.25500000000E-02 0.  1.
          2   -1    0    0  501    0  0.00000000000E+00 -0.00000000000E+00 -0.15303740270E+04  0.15303740270E+04  0.25500000000E-02 0. -1.
    8880022    1    1    2    0    0  0.26196532098E+03  0.40450792231E+03 -0.24826833234E+03  0.56327729092E+03  0.15294330000E+03 0.  1.
    8880022    1    1    2    0    0 -0.26196532098E+03 -0.40450792231E+03 -0.10677712613E+04  0.11814311694E+04  0.15294330000E+03 0.  0.
<mgrwt>
<rscale>  0 0.50561264E+03</rscale>
<asrwt>0</asrwt>
<pdfrwt beam="1">  1        2 0.23544215E+00 0.50561264E+03</pdfrwt>
<pdfrwt beam="2">  1       -2 0.32974529E-01 0.50561264E+03</pdfrwt>
<totfact> 0.10950531E+02</totfact>
</mgrwt>
</event>
<event>
 4    1  0.4880711E-008  0.3009858E+03  0.7818608E-02  0.1084749E+00
          2   -1    0    0  501    0  0.00000000000E+00  0.00000000000E+00  0.15156421838E+04  0.15156421838E+04  0.25500000000E-02 0. -1.
         -2   -1    0    0    0  501 -0.00000000000E+00 -0.00000000000E+00 -0.92096764355E+02  0.92096764390E+02  0.25500000000E-02 0.  1.
    8880022    1    1    2    0    0  0.25222076779E+03  0.59878853917E+02  0.11880208952E+04  0.12255554224E+04  0.15294330000E+03 0.  0.
    8880022    1    1    2    0    0 -0.25222076779E+03 -0.59878853917E+02  0.23552452416E+03  0.38218352574E+03  0.15294330000E+03 0.  0.
<mgrwt>
<rscale>  0 0.30098579E+03</rscale>
<asrwt>0</asrwt>
<pdfrwt beam="1">  1        2 0.23317572E+00 0.30098579E+03</pdfrwt>
<pdfrwt beam="2">  1       -2 0.14168733E-01 0.30098579E+03</pdfrwt>
<totfact> 0.50380710E+02</totfact>
</mgrwt>
</event>
<event>
 4    1  0.4880711E-008  0.3637354E+03  0.7818608E-02  0.1057115E+00
         -2   -1    0    0    0  501 -0.00000000000E+00  0.00000000000E+00  0.19664926566E+03  0.19664926568E+03  0.25500000000E-02 0.  1.
          2   -1    0    0  501    0  0.00000000000E+00 -0.00000000000E+00 -0.26671761915E+04  0.26671761915E+04  0.25500000000E-02 0. -1.
    8880022    1    1    2    0    0 -0.16249501355E+03  0.28724056697E+03  0.29498110093E+01  0.36374733970E+03  0.15294330000E+03 0.  0.
    8880022    1    1    2    0    0  0.16249501355E+03 -0.28724056697E+03 -0.24734767368E+04  0.25000781174E+04  0.15294330000E+03 0.  0.
<mgrwt>
<rscale>  0 0.36373538E+03</rscale>
<asrwt>0</asrwt>
<pdfrwt beam="1">  1        2 0.41033477E+00 0.36373538E+03</pdfrwt>
<pdfrwt beam="2">  1       -2 0.30253735E-01 0.36373538E+03</pdfrwt>
<totfact> 0.31882158E+01</totfact>
</mgrwt>
</event>
<event>
 4    1  0.4880711E-008  0.7551842E+03  0.7818608E-02  0.9627252E-01
          2   -1    0    0  501    0  0.00000000000E+00  0.00000000000E+00  0.11179556981E+04  0.11179556981E+04  0.25500000000E-02 0. -1.
         -2   -1    0    0    0  501 -0.00000000000E+00 -0.00000000000E+00 -0.16410327236E+04  0.16410327236E+04  0.25500000000E-02 0.  1.
    8880022    1    1    2    0    0 -0.71756432067E+03 -0.17892169845E+03  0.88364163528E+03  0.11623793361E+04  0.15294330000E+03 0.  0.
    8880022    1    1    2    0    0  0.71756432067E+03  0.17892169845E+03 -0.14067186607E+04  0.15966090855E+04  0.15294330000E+03 0.  0.
<mgrwt>
<rscale>  0 0.75518420E+03</rscale>
<asrwt>0</asrwt>
<pdfrwt beam="1">  1        2 0.17199318E+00 0.75518420E+03</pdfrwt>
<pdfrwt beam="2">  1       -2 0.25246657E+00 0.75518420E+03</pdfrwt>
<totfact> 0.13644610E+00</totfact>
</mgrwt>
</event>
<event>
 4    1  0.4880711E-008  0.6309944E+03  0.7818608E-02  0.9843110E-01
         -2   -1    0    0    0  501 -0.00000000000E+00  0.00000000000E+00  0.30818377544E+03  0.30818377545E+03  0.25500000000E-02 0.  1.
          2   -1    0    0  501    0  0.00000000000E+00 -0.00000000000E+00 -0.24640646491E+04  0.24640646491E+04  0.25500000000E-02 0. -1.
    8880022    1    1    2    0    0 -0.34636147169E+03 -0.50477322577E+03 -0.20339530242E+04  0.21295818454E+04  0.15294330000E+03 0.  0.
    8880022    1    1    2    0    0  0.34636147169E+03  0.50477322577E+03 -0.12192784951E+03  0.64266657920E+03  0.15294330000E+03 0.  0.
<mgrwt>
<rscale>  0 0.63099440E+03</rscale>
<asrwt>0</asrwt>
<pdfrwt beam="1">  1        2 0.37908686E+00 0.63099440E+03</pdfrwt>
<pdfrwt beam="2">  1       -2 0.47412890E-01 0.63099440E+03</pdfrwt>
<totfact> 0.16432713E+01</totfact>
</mgrwt>
</event>
<event>
 4    1  0.4880711E-008  0.7012816E+03  0.7818608E-02  0.9715043E-01
         -2   -1    0    0    0  501 -0.00000000000E+00  0.00000000000E+00  0.12905157800E+04  0.12905157800E+04  0.25500000000E-02 0.  1.
          2   -1    0    0  501    0  0.00000000000E+00 -0.00000000000E+00 -0.39108538553E+03  0.39108538554E+03  0.25500000000E-02 0. -1.
    8880022    1    1    2    0    0 -0.25977225338E+02 -0.68390744458E+03  0.31526192680E+03  0.76888617135E+03  0.15294330000E+03 0. -1.
    8880022    1    1    2    0    0  0.25977225338E+02  0.68390744458E+03  0.58416846772E+03  0.91271499422E+03  0.15294330000E+03 0.  1.
<mgrwt>
<rscale>  0 0.70128159E+03</rscale>
<asrwt>0</asrwt>
<pdfrwt beam="1">  1        2 0.60166983E-01 0.70128159E+03</pdfrwt>
<pdfrwt beam="2">  1       -2 0.19854089E+00 0.70128159E+03</pdfrwt>
<totfact> 0.11350629E+01</totfact>
</mgrwt>
</event>
<event>
 4    1  0.4880711E-008  0.5309733E+03  0.7818608E-02  0.1005996E+00
          2   -1    0    0  501    0  0.00000000000E+00  0.00000000000E+00  0.43967927154E+04  0.43967927154E+04  0.25500000000E-02 0. -1.
         -2   -1    0    0    0  501 -0.00000000000E+00 -0.00000000000E+00 -0.10930695354E+03  0.10930695357E+03  0.25500000000E-02 0.  1.
    8880022    1    1    2    0    0 -0.41800212242E+03 -0.28950850580E+03  0.35923220217E+04  0.36313510034E+04  0.15294330000E+03 0.  0.
    8880022    1    1    2    0    0  0.41800212242E+03  0.28950850580E+03  0.69516374015E+03  0.87474866557E+03  0.15294330000E+03 0.  0.
<mgrwt>
<rscale>  0 0.53097326E+03</rscale>
<asrwt>0</asrwt>
<pdfrwt beam="1">  1        2 0.67642965E+00 0.53097326E+03</pdfrwt>
<pdfrwt beam="2">  1       -2 0.16816454E-01 0.53097326E+03</pdfrwt>
<totfact> 0.53198029E+00</totfact>
</mgrwt>
</event>
<event>
 4    1  0.4880711E-008  0.1563738E+03  0.7818608E-02  0.1192853E+00
         -2   -1    0    0    0  501 -0.00000000000E+00  0.00000000000E+00  0.28259545624E+03  0.28259545625E+03  0.25500000000E-02 0.  1.
          2   -1    0    0  501    0  0.00000000000E+00 -0.00000000000E+00 -0.72392060722E+03  0.72392060723E+03  0.25500000000E-02 0. -1.
    8880022    1    1    2    0    0  0.32495696567E+02  0.22693834540E+01  0.25156172234E+03  0.29620275751E+03  0.15294330000E+03 0.  1.
    8880022    1    1    2    0    0 -0.32495696567E+02 -0.22693834540E+01 -0.69288687332E+03  0.71031330597E+03  0.15294330000E+03 0.  0.
<mgrwt>
<rscale>  0 0.15637383E+03</rscale>
<asrwt>0</asrwt>
<pdfrwt beam="1">  1        2 0.11137240E+00 0.15637383E+03</pdfrwt>
<pdfrwt beam="2">  1       -2 0.43476224E-01 0.15637383E+03</pdfrwt>
<totfact> 0.20944565E+02</totfact>
</mgrwt>
</event>
<event>
 4    1  0.4880711E-008  0.4197618E+03  0.7818608E-02  0.1037144E+00
         -2   -1    0    0    0  501 -0.00000000000E+00  0.00000000000E+00  0.26968461473E+03  0.26968461474E+03  0.25500000000E-02 0.  1.
          2   -1    0    0  501    0  0.00000000000E+00 -0.00000000000E+00 -0.10340398610E+04  0.10340398610E+04  0.25500000000E-02 0. -1.
    8880022    1    1    2    0    0  0.34852064921E+03 -0.17703572555E+03  0.13343482685E+02  0.41997379989E+03  0.15294330000E+03 0.  0.
    8880022    1    1    2    0    0 -0.34852064921E+03  0.17703572555E+03 -0.77769872895E+03  0.88375067585E+03  0.15294330000E+03 0. -1.
<mgrwt>
<rscale>  0 0.41976177E+03</rscale>
<asrwt>0</asrwt>
<pdfrwt beam="1">  1        2 0.15908305E+00 0.41976177E+03</pdfrwt>
<pdfrwt beam="2">  1       -2 0.41489941E-01 0.41976177E+03</pdfrwt>
<totfact> 0.13751268E+02</totfact>
</mgrwt>
</event>
<event>
 4    1  0.4880711E-008  0.2126570E+03  0.7818608E-02  0.1139479E+00
          2   -1    0    0  501    0  0.00000000000E+00  0.00000000000E+00  0.27590361269E+03  0.27590361270E+03  0.25500000000E-02 0. -1.
         -2   -1    0    0    0  501 -0.00000000000E+00 -0.00000000000E+00 -0.23060831658E+03  0.23060831659E+03  0.25500000000E-02 0.  1.
    8880022    1    1    2    0    0  0.14593989769E+03 -0.23084627128E+02  0.15884975257E+03  0.26543596338E+03  0.15294330000E+03 0.  0.
    8880022    1    1    2    0    0 -0.14593989769E+03  0.23084627128E+02 -0.11355445646E+03  0.24107596592E+03  0.15294330000E+03 0.  0.
<mgrwt>
<rscale>  0 0.21265702E+03</rscale>
<asrwt>0</asrwt>
<pdfrwt beam="1">  1        2 0.42446709E-01 0.21265702E+03</pdfrwt>
<pdfrwt beam="2">  1       -2 0.35478203E-01 0.21265702E+03</pdfrwt>
<totfact> 0.89571975E+02</totfact>
</mgrwt>
</event>
<event>
 4    1  0.4880711E-008  0.2818285E+03  0.7818608E-02  0.1094694E+00
         -2   -1    0    0    0  501 -0.00000000000E+00  0.00000000000E+00  0.55411248733E+03  0.55411248734E+03  0.25500000000E-02 0.  1.
          2   -1    0    0  501    0  0.00000000000E+00 -0.00000000000E+00 -0.25898446109E+03  0.25898446110E+03  0.25500000000E-02 0. -1.
    8880022    1    1    2    0    0  0.21154885515E+03 -0.10622025053E+03 -0.12410186377E+03  0.30794250331E+03  0.15294330000E+03 0. -1.
    8880022    1    1    2    0    0 -0.21154885515E+03  0.10622025053E+03  0.41922989001E+03  0.50515444513E+03  0.15294330000E+03 0.  1.
<mgrwt>
<rscale>  0 0.28182852E+03</rscale>
<asrwt>0</asrwt>
<pdfrwt beam="1">  1        2 0.39843764E-01 0.28182852E+03</pdfrwt>
<pdfrwt beam="2">  1       -2 0.85248074E-01 0.28182852E+03</pdfrwt>
<totfact> 0.15965172E+02</totfact>
</mgrwt>
</event>
<event>
 4    1  0.4880711E-008  0.7355835E+03  0.7818608E-02  0.9658243E-01
         -2   -1    0    0    0  501 -0.00000000000E+00  0.00000000000E+00  0.43428392305E+03  0.43428392305E+03  0.25500000000E-02 0.  1.
          2   -1    0    0  501    0  0.00000000000E+00 -0.00000000000E+00 -0.22826021181E+04  0.22826021181E+04  0.25500000000E-02 0. -1.
    8880022    1    1    2    0    0  0.44435483095E+03  0.56589774725E+03 -0.86786515748E+01  0.73563472467E+03  0.15294330000E+03 0.  0.
    8880022    1    1    2    0    0 -0.44435483095E+03 -0.56589774725E+03 -0.18396395435E+04  0.19812513165E+04  0.15294330000E+03 0.  0.
<mgrwt>
<rscale>  0 0.73558353E+03</rscale>
<asrwt>0</asrwt>
<pdfrwt beam="1">  1        2 0.35116955E+00 0.73558353E+03</pdfrwt>
<pdfrwt beam="2">  1       -2 0.66812912E-01 0.73558353E+03</pdfrwt>
<totfact> 0.99707755E+00</totfact>
</mgrwt>
</event>
<event>
 4    1  0.4880711E-008  0.6445876E+03  0.7818608E-02  0.9816988E-01
         -2   -1    0    0    0  501 -0.00000000000E+00  0.00000000000E+00  0.26776488682E+03  0.26776488684E+03  0.25500000000E-02 0.  1.
          2   -1    0    0  501    0  0.00000000000E+00 -0.00000000000E+00 -0.33188680025E+04  0.33188680025E+04  0.25500000000E-02 0. -1.
    8880022    1    1    2    0    0  0.94985371000E+01 -0.62610810264E+03 -0.21697320023E+03  0.68012543037E+03  0.15294330000E+03 0.  0.
    8880022    1    1    2    0    0 -0.94985371000E+01  0.62610810264E+03 -0.28341299154E+04  0.29065074589E+04  0.15294330000E+03 0. -1.
<mgrwt>
<rscale>  0 0.64458764E+03</rscale>
<asrwt>0</asrwt>
<pdfrwt beam="1">  1        2 0.51059505E+00 0.64458764E+03</pdfrwt>
<pdfrwt beam="2">  1       -2 0.41194600E-01 0.64458764E+03</pdfrwt>
<totfact> 0.66451837E+00</totfact>
</mgrwt>
</event>
<event>
 4    1  0.4880711E-008  0.6628447E+03  0.7818608E-02  0.9782971E-01
          2   -1    0    0  501    0  0.00000000000E+00  0.00000000000E+00  0.84885720327E+03  0.84885720327E+03  0.25500000000E-02 0. -1.
         -2   -1    0    0    0  501 -0.00000000000E+00 -0.00000000000E+00 -0.79459790465E+03  0.79459790466E+03  0.25500000000E-02 0.  1.
    8880022    1    1    2    0    0  0.24084639983E+03  0.59830133269E+03 -0.45804414607E+03  0.80570935565E+03  0.15294330000E+03 0.  0.
    8880022    1    1    2    0    0 -0.24084639983E+03 -0.59830133269E+03  0.51230344468E+03  0.83774575228E+03  0.15294330000E+03 0.  0.
<mgrwt>
<rscale>  0 0.66284472E+03</rscale>
<asrwt>0</asrwt>
<pdfrwt beam="1">  1        2 0.13059342E+00 0.66284472E+03</pdfrwt>
<pdfrwt beam="2">  1       -2 0.12224583E+00 0.66284472E+03</pdfrwt>
<totfact> 0.16525095E+01</totfact>
</mgrwt>
</event>
<event>
 4    1  0.4880711E-008  0.1708000E+03  0.7818608E-02  0.1177016E+00
          2   -1    0    0  501    0  0.00000000000E+00  0.00000000000E+00  0.25171127394E+04  0.25171127394E+04  0.25500000000E-02 0. -1.
         -2   -1    0    0    0  501 -0.00000000000E+00 -0.00000000000E+00 -0.28399586396E+03  0.28399586397E+03  0.25500000000E-02 0.  1.
    8880022    1    1    2    0    0 -0.75890826078E+02  0.46437937361E+01  0.24882371302E+04  0.24940923502E+04  0.15294330000E+03 0.  0.
    8880022    1    1    2    0    0  0.75890826078E+02 -0.46437937361E+01 -0.25512025476E+03  0.30701625316E+03  0.15294330000E+03 0.  1.
<mgrwt>
<rscale>  0 0.17079999E+03</rscale>
<asrwt>0</asrwt>
<pdfrwt beam="1">  1        2 0.38724810E+00 0.17079999E+03</pdfrwt>
<pdfrwt beam="2">  1       -2 0.43691673E-01 0.17079999E+03</pdfrwt>
<totfact> 0.21158373E+01</totfact>
</mgrwt>
</event>
<event>
 4    1  0.4880711E-008  0.2336342E+03  0.7818608E-02  0.1124108E+00
          2   -1    0    0  501    0  0.00000000000E+00  0.00000000000E+00  0.10123367869E+04  0.10123367869E+04  0.25500000000E-02 0. -1.
         -2   -1    0    0    0  501 -0.00000000000E+00 -0.00000000000E+00 -0.29462901753E+03  0.29462901754E+03  0.25500000000E-02 0.  1.
    8880022    1    1    2    0    0  0.14970088331E+03 -0.93717219269E+02 -0.23181337038E+03  0.32912362929E+03  0.15294330000E+03 0.  0.
    8880022    1    1    2    0    0 -0.14970088331E+03  0.93717219269E+02  0.94952113978E+03  0.97784217518E+03  0.15294330000E+03 0. -1.
<mgrwt>
<rscale>  0 0.23363417E+03</rscale>
<asrwt>0</asrwt>
<pdfrwt beam="1">  1        2 0.15574412E+00 0.23363417E+03</pdfrwt>
<pdfrwt beam="2">  1       -2 0.45327542E-01 0.23363417E+03</pdfrwt>
<totfact> 0.12286479E+02</totfact>
</mgrwt>
</event>
<event>
 4    1  0.4880711E-008  0.6747870E+03  0.7818608E-02  0.9761348E-01
         -2   -1    0    0    0  501 -0.00000000000E+00  0.00000000000E+00  0.63152826504E+03  0.63152826504E+03  0.25500000000E-02 0.  1.
          2   -1    0    0  501    0  0.00000000000E+00 -0.00000000000E+00 -0.17448315915E+04  0.17448315915E+04  0.25500000000E-02 0. -1.
    8880022    1    1    2    0    0 -0.63934466126E+03 -0.15226380712E+03  0.35350850150E+03  0.76177803623E+03  0.15294330000E+03 0.  1.
    8880022    1    1    2    0    0  0.63934466126E+03  0.15226380712E+03 -0.14668118280E+04  0.16145818203E+04  0.15294330000E+03 0.  0.
<mgrwt>
<rscale>  0 0.67478702E+03</rscale>
<asrwt>0</asrwt>
<pdfrwt beam="1">  1        2 0.26843563E+00 0.67478702E+03</pdfrwt>
<pdfrwt beam="2">  1       -2 0.97158195E-01 0.67478702E+03</pdfrwt>
<totfact> 0.85296246E+00</totfact>
</mgrwt>
</event>
<event>
 4    1  0.4880711E-008  0.4449873E+03  0.7818608E-02  0.1029227E+00
         -2   -1    0    0    0  501 -0.00000000000E+00  0.00000000000E+00  0.16290105421E+03  0.16290105423E+03  0.25500000000E-02 0.  1.
          2   -1    0    0  501    0  0.00000000000E+00 -0.00000000000E+00 -0.14324113928E+04  0.14324113928E+04  0.25500000000E-02 0. -1.
    8880022    1    1    2    0    0 -0.41502449472E+03 -0.48751911979E+02 -0.94512317840E+03  0.10446394380E+04  0.15294330000E+03 0.  0.
    8880022    1    1    2    0    0  0.41502449472E+03  0.48751911979E+02 -0.32438716023E+03  0.55067300903E+03  0.15294330000E+03 0.  0.
<mgrwt>
<rscale>  0 0.44498734E+03</rscale>
<asrwt>0</asrwt>
<pdfrwt beam="1">  1        2 0.22037098E+00 0.44498734E+03</pdfrwt>
<pdfrwt beam="2">  1       -2 0.25061702E-01 0.44498734E+03</pdfrwt>
<totfact> 0.20638790E+02</totfact>
</mgrwt>
</event>
<event>
 4    1  0.4880711E-008  0.1858159E+03  0.7818608E-02  0.1162290E+00
         -2   -1    0    0    0  501 -0.00000000000E+00  0.00000000000E+00  0.49770757851E+03  0.49770757852E+03  0.25500000000E-02 0.  1.
          2   -1    0    0  501    0  0.00000000000E+00 -0.00000000000E+00 -0.22607528087E+04  0.22607528087E+04  0.25500000000E-02 0. -1.
    8880022    1    1    2    0    0 -0.42184422469E+02  0.96728424825E+02 -0.22394264807E+04  0.22471222773E+04  0.15294330000E+03 0. -1.
    8880022    1    1    2    0    0  0.42184422469E+02 -0.96728424825E+02  0.47638125058E+03  0.51133810985E+03  0.15294330000E+03 0.  0.
<mgrwt>
<rscale>  0 0.18581595E+03</rscale>
<asrwt>0</asrwt>
<pdfrwt beam="1">  1        2 0.34780812E+00 0.18581595E+03</pdfrwt>
<pdfrwt beam="2">  1       -2 0.76570398E-01 0.18581595E+03</pdfrwt>
<totfact> 0.90714765E+00</totfact>
</mgrwt>
</event>
<event>
 4    1  0.4880711E-008  0.3371309E+03  0.7818608E-02  0.1068025E+00
         -2   -1    0    0    0  501 -0.00000000000E+00  0.00000000000E+00  0.74802386599E+02  0.74802386643E+02  0.25500000000E-02 0.  1.
          2   -1    0    0  501    0  0.00000000000E+00 -0.00000000000E+00 -0.18638768376E+04  0.18638768376E+04  0.25500000000E-02 0. -1.
    8880022    1    1    2    0    0  0.51698039453E+01 -0.30039787234E+03 -0.13112397863E+04  0.13538859032E+04  0.15294330000E+03 0.  0.
    8880022    1    1    2    0    0 -0.51698039453E+01  0.30039787234E+03 -0.47783466466E+03  0.58479332105E+03  0.15294330000E+03 0.  0.
<mgrwt>
<rscale>  0 0.33713093E+03</rscale>
<asrwt>0</asrwt>
<pdfrwt beam="1">  1        2 0.28675025E+00 0.33713093E+03</pdfrwt>
<pdfrwt beam="2">  1       -2 0.11508061E-01 0.33713093E+03</pdfrwt>
<totfact> 0.46008934E+02</totfact>
</mgrwt>
</event>
<event>
 4    1  0.4880711E-008  0.2740262E+03  0.7818608E-02  0.1098997E+00
         -2   -1    0    0    0  501 -0.00000000000E+00  0.00000000000E+00  0.15283736207E+03  0.15283736209E+03  0.25500000000E-02 0.  1.
          2   -1    0    0  501    0  0.00000000000E+00 -0.00000000000E+00 -0.26489170058E+04  0.26489170058E+04  0.25500000000E-02 0. -1.
    8880022    1    1    2    0    0 -0.35962204291E+02 -0.22451152315E+03 -0.25123457322E+04  0.25272458201E+04  0.15294330000E+03 0. -1.
    8880022    1    1    2    0    0  0.35962204291E+02  0.22451152315E+03  0.16266088456E+02  0.27450854779E+03  0.15294330000E+03 0.  0.
<mgrwt>
<rscale>  0 0.27402620E+03</rscale>
<asrwt>0</asrwt>
<pdfrwt beam="1">  1        2 0.40752566E+00 0.27402620E+03</pdfrwt>
<pdfrwt beam="2">  1       -2 0.23513442E-01 0.27402620E+03</pdfrwt>
<totfact> 0.52961409E+01</totfact>
</mgrwt>
</event>
<event>
 4    1  0.4880711E-008  0.1012640E+04  0.7818608E-02  0.9294789E-01
          2   -1    0    0  501    0  0.00000000000E+00  0.00000000000E+00  0.81898960295E+03  0.81898960296E+03  0.25500000000E-02 0. -1.
         -2   -1    0    0    0  501 -0.00000000000E+00 -0.00000000000E+00 -0.13256434553E+04  0.13256434553E+04  0.25500000000E-02 0.  1.
    8880022    1    1    2    0    0 -0.64312291560E+03  0.76709961921E+03 -0.72278066718E+00  0.10126406499E+04  0.15294330000E+03 0.  0.
    8880022    1    1    2    0    0  0.64312291560E+03 -0.76709961921E+03 -0.50593107170E+03  0.11319924084E+04  0.15294330000E+03 0.  0.
<mgrwt>
<rscale>  0 0.10126404E+04</rscale>
<asrwt>0</asrwt>
<pdfrwt beam="1">  1        2 0.12599840E+00 0.10126404E+04</pdfrwt>
<pdfrwt beam="2">  1       -2 0.20394515E+00 0.10126404E+04</pdfrwt>
<totfact> 0.41488057E+00</totfact>
</mgrwt>
</event>
<event>
 4    1  0.4880711E-008  0.2277660E+03  0.7818608E-02  0.1128222E+00
          2   -1    0    0  501    0  0.00000000000E+00  0.00000000000E+00  0.34717579770E+04  0.34717579770E+04  0.25500000000E-02 0. -1.
         -2   -1    0    0    0  501 -0.00000000000E+00 -0.00000000000E+00 -0.46009732086E+02  0.46009732156E+02  0.25500000000E-02 0.  1.
    8880022    1    1    2    0    0 -0.31920745866E+02  0.16573105650E+03  0.26755972219E+03  0.35137668542E+03  0.15294330000E+03 0.  0.
    8880022    1    1    2    0    0  0.31920745866E+02 -0.16573105650E+03  0.31581885227E+04  0.31663910237E+04  0.15294330000E+03 0.  0.
<mgrwt>
<rscale>  0 0.22776604E+03</rscale>
<asrwt>0</asrwt>
<pdfrwt beam="1">  1        2 0.53411658E+00 0.22776604E+03</pdfrwt>
<pdfrwt beam="2">  1       -2 0.70784208E-02 0.22776604E+03</pdfrwt>
<totfact> 0.12360343E+02</totfact>
</mgrwt>
</event>
<event>
 4    1  0.4880711E-008  0.1159914E+04  0.7818608E-02  0.9148685E-01
          2   -1    0    0  501    0  0.00000000000E+00  0.00000000000E+00  0.20004940057E+04  0.20004940057E+04  0.25500000000E-02 0. -1.
         -2   -1    0    0    0  501 -0.00000000000E+00 -0.00000000000E+00 -0.77031255055E+03  0.77031255055E+03  0.25500000000E-02 0.  1.
    8880022    1    1    2    0    0 -0.26366828041E+03 -0.11191465534E+04  0.11086768961E+04  0.16045454444E+04  0.15294330000E+03 0.  0.
    8880022    1    1    2    0    0  0.26366828041E+03  0.11191465534E+04  0.12150455906E+03  0.11662611119E+04  0.15294330000E+03 0.  0.
<mgrwt>
<rscale>  0 0.11599145E+04</rscale>
<asrwt>0</asrwt>
<pdfrwt beam="1">  1        2 0.30776830E+00 0.11599145E+04</pdfrwt>
<pdfrwt beam="2">  1       -2 0.11850963E+00 0.11599145E+04</pdfrwt>
<totfact> 0.35866055E+00</totfact>
</mgrwt>
</event>
<event>
 4    1  0.4880711E-008  0.5579641E+03  0.7818608E-02  0.9996672E-01
         -2   -1    0    0    0  501 -0.00000000000E+00  0.00000000000E+00  0.29228120564E+03  0.29228120565E+03  0.25500000000E-02 0.  1.
          2   -1    0    0  501    0  0.00000000000E+00 -0.00000000000E+00 -0.22616928924E+04  0.22616928924E+04  0.25500000000E-02 0. -1.
    8880022    1    1    2    0    0  0.20684792809E+03 -0.49512239732E+03 -0.19135298920E+04  0.19932186418E+04  0.15294330000E+03 0.  0.
    8880022    1    1    2    0    0 -0.20684792809E+03  0.49512239732E+03 -0.55881794803E+02  0.56075545623E+03  0.15294330000E+03 0.  0.
<mgrwt>
<rscale>  0 0.55796407E+03</rscale>
<asrwt>0</asrwt>
<pdfrwt beam="1">  1        2 0.34795274E+00 0.55796407E+03</pdfrwt>
<pdfrwt beam="2">  1       -2 0.44966341E-01 0.55796407E+03</pdfrwt>
<totfact> 0.23986592E+01</totfact>
</mgrwt>
</event>
<event>
 4    1  0.4880711E-008  0.3414299E+03  0.7818608E-02  0.1066189E+00
          2   -1    0    0  501    0  0.00000000000E+00  0.00000000000E+00  0.83707162574E+03  0.83707162574E+03  0.25500000000E-02 0. -1.
         -2   -1    0    0    0  501 -0.00000000000E+00 -0.00000000000E+00 -0.34835660144E+03  0.34835660145E+03  0.25500000000E-02 0.  1.
    8880022    1    1    2    0    0 -0.30514258558E+03  0.84101056336E+01  0.70355767814E+03  0.78202799624E+03  0.15294330000E+03 0.  0.
    8880022    1    1    2    0    0  0.30514258558E+03 -0.84101056336E+01 -0.21484265384E+03  0.40340023095E+03  0.15294330000E+03 0.  1.
<mgrwt>
<rscale>  0 0.34142991E+03</rscale>
<asrwt>0</asrwt>
<pdfrwt beam="1">  1        2 0.12878025E+00 0.34142991E+03</pdfrwt>
<pdfrwt beam="2">  1       -2 0.53593324E-01 0.34142991E+03</pdfrwt>
<totfact> 0.11181590E+02</totfact>
</mgrwt>
</event>
<event>
 4    1  0.4880711E-008  0.6564899E+03  0.7818608E-02  0.9794677E-01
          2   -1    0    0  501    0  0.00000000000E+00  0.00000000000E+00  0.26050646140E+04  0.26050646140E+04  0.25500000000E-02 0. -1.
         -2   -1    0    0    0  501 -0.00000000000E+00 -0.00000000000E+00 -0.34449629231E+03  0.34449629232E+03  0.25500000000E-02 0.  1.
    8880022    1    1    2    0    0  0.62561831624E+03  0.12723616038E+03  0.21935240197E+04  0.22896564363E+04  0.15294330000E+03 0.  0.
    8880022    1    1    2    0    0 -0.62561831624E+03 -0.12723616038E+03  0.67044301954E+02  0.65990447003E+03  0.15294330000E+03 0.  0.
<mgrwt>
<rscale>  0 0.65648989E+03</rscale>
<asrwt>0</asrwt>
<pdfrwt beam="1">  1        2 0.40077915E+00 0.65648989E+03</pdfrwt>
<pdfrwt beam="2">  1       -2 0.52999432E-01 0.65648989E+03</pdfrwt>
<totfact> 0.10849352E+01</totfact>
</mgrwt>
</event>
<event>
 4    1  0.4880711E-008  0.7268510E+03  0.7818608E-02  0.9672384E-01
          2   -1    0    0  501    0  0.00000000000E+00  0.00000000000E+00  0.35013734901E+04  0.35013734901E+04  0.25500000000E-02 0. -1.
         -2   -1    0    0    0  501 -0.00000000000E+00 -0.00000000000E+00 -0.40594882109E+03  0.40594882110E+03  0.25500000000E-02 0.  1.
    8880022    1    1    2    0    0 -0.14749467271E+03 -0.69510147520E+03  0.30963013316E+04  0.31804707715E+04  0.15294330000E+03 0.  0.
    8880022    1    1    2    0    0  0.14749467271E+03  0.69510147520E+03 -0.87666252159E+00  0.72685153976E+03  0.15294330000E+03 0.  0.
<mgrwt>
<rscale>  0 0.72685101E+03</rscale>
<asrwt>0</asrwt>
<pdfrwt beam="1">  1        2 0.53867283E+00 0.72685101E+03</pdfrwt>
<pdfrwt beam="2">  1       -2 0.62453666E-01 0.72685101E+03</pdfrwt>
<totfact> 0.21087476E+00</totfact>
</mgrwt>
</event>
<event>
 4    1  0.4880711E-008  0.4779157E+03  0.7818608E-02  0.1019710E+00
         -2   -1    0    0    0  501 -0.00000000000E+00  0.00000000000E+00  0.20572865985E+03  0.20572865987E+03  0.25500000000E-02 0.  1.
          2   -1    0    0  501    0  0.00000000000E+00 -0.00000000000E+00 -0.19995111416E+04  0.19995111416E+04  0.25500000000E-02 0. -1.
    8880022    1    1    2    0    0 -0.14777668297E+03  0.42798810427E+03 -0.16155381221E+03  0.50448295579E+03  0.15294330000E+03 0.  0.
    8880022    1    1    2    0    0  0.14777668297E+03 -0.42798810427E+03 -0.16322286696E+04  0.17007568457E+04  0.15294330000E+03 0.  0.
<mgrwt>
<rscale>  0 0.47791570E+03</rscale>
<asrwt>0</asrwt>
<pdfrwt beam="1">  1        2 0.30761709E+00 0.47791570E+03</pdfrwt>
<pdfrwt beam="2">  1       -2 0.31650564E-01 0.47791570E+03</pdfrwt>
<totfact> 0.66290735E+01</totfact>
</mgrwt>
</event>
<event>
 4    1  0.4880711E-008  0.3862698E+03  0.7818608E-02  0.1048640E+00
         -2   -1    0    0    0  501 -0.00000000000E+00  0.00000000000E+00  0.45905942807E+03  0.45905942808E+03  0.25500000000E-02 0.  1.
          2   -1    0    0  501    0  0.00000000000E+00 -0.00000000000E+00 -0.68057485361E+03  0.68057485362E+03  0.25500000000E-02 0. -1.
    8880022    1    1    2    0    0  0.32883196683E+03  0.13297453790E+03  0.30110240356E+03  0.48976218779E+03  0.15294330000E+03 0.  1.
    8880022    1    1    2    0    0 -0.32883196683E+03 -0.13297453790E+03 -0.52261782910E+03  0.64987209391E+03  0.15294330000E+03 0.  0.
<mgrwt>
<rscale>  0 0.38626978E+03</rscale>
<asrwt>0</asrwt>
<pdfrwt beam="1">  1        2 0.10470382E+00 0.38626978E+03</pdfrwt>
<pdfrwt beam="2">  1       -2 0.70624528E-01 0.38626978E+03</pdfrwt>
<totfact> 0.80911997E+01</totfact>
</mgrwt>
</event>
<event>
 4    1  0.4880711E-008  0.5941050E+03  0.7818608E-02  0.9917712E-01
          2   -1    0    0  501    0  0.00000000000E+00  0.00000000000E+00  0.47903752120E+03  0.47903752120E+03  0.25500000000E-02 0. -1.
         -2   -1    0    0    0  501 -0.00000000000E+00 -0.00000000000E+00 -0.12903614739E+04  0.12903614739E+04  0.25500000000E-02 0.  1.
    8880022    1    1    2    0    0  0.55066986158E+03 -0.16227059237E+03  0.17379103675E+03  0.61900243867E+03  0.15294330000E+03 0.  0.
    8880022    1    1    2    0    0 -0.55066986158E+03  0.16227059237E+03 -0.98511498947E+03  0.11503965565E+04  0.15294330000E+03 0.  0.
<mgrwt>
<rscale>  0 0.59410495E+03</rscale>
<asrwt>0</asrwt>
<pdfrwt beam="1">  1        2 0.73698081E-01 0.59410495E+03</pdfrwt>
<pdfrwt beam="2">  1       -2 0.19851715E+00 0.59410495E+03</pdfrwt>
<totfact> 0.91416027E+00</totfact>
</mgrwt>
</event>
<event>
 4    1  0.4880711E-008  0.3306989E+03  0.7818608E-02  0.1070828E+00
          2   -1    0    0  501    0  0.00000000000E+00  0.00000000000E+00  0.19487050180E+04  0.19487050180E+04  0.25500000000E-02 0. -1.
         -2   -1    0    0    0  501 -0.00000000000E+00 -0.00000000000E+00 -0.13300802328E+03  0.13300802331E+03  0.25500000000E-02 0.  1.
    8880022    1    1    2    0    0  0.28755419752E+03 -0.57294882863E+02  0.16992204369E+04  0.17311013449E+04  0.15294330000E+03 0. -1.
    8880022    1    1    2    0    0 -0.28755419752E+03  0.57294882863E+02  0.11647655780E+03  0.35061169639E+03  0.15294330000E+03 0.  0.
<mgrwt>
<rscale>  0 0.33069892E+03</rscale>
<asrwt>0</asrwt>
<pdfrwt beam="1">  1        2 0.29980075E+00 0.33069892E+03</pdfrwt>
<pdfrwt beam="2">  1       -2 0.20462774E-01 0.33069892E+03</pdfrwt>
<totfact> 0.15863594E+02</totfact>
</mgrwt>
</event>
<event>
 4    1  0.4880711E-008  0.4460289E+03  0.7818608E-02  0.1028913E+00
         -2   -1    0    0    0  501 -0.00000000000E+00  0.00000000000E+00  0.19514751604E+03  0.19514751606E+03  0.25500000000E-02 0.  1.
          2   -1    0    0  501    0  0.00000000000E+00 -0.00000000000E+00 -0.12329471167E+04  0.12329471167E+04  0.25500000000E-02 0. -1.
    8880022    1    1    2    0    0 -0.11846449217E+03  0.40189084413E+03 -0.22176190148E+03  0.49811653302E+03  0.15294330000E+03 0.  0.
    8880022    1    1    2    0    0  0.11846449217E+03 -0.40189084413E+03 -0.81603769921E+03  0.92997809977E+03  0.15294330000E+03 0.  0.
<mgrwt>
<rscale>  0 0.44602886E+03</rscale>
<asrwt>0</asrwt>
<pdfrwt beam="1">  1        2 0.18968417E+00 0.44602886E+03</pdfrwt>
<pdfrwt beam="2">  1       -2 0.30022695E-01 0.44602886E+03</pdfrwt>
<totfact> 0.19256156E+02</totfact>
</mgrwt>
</event>
<event>
 4    1  0.4880711E-008  0.4950174E+03  0.7818608E-02  0.1015088E+00
          2   -1    0    0  501    0  0.00000000000E+00  0.00000000000E+00  0.20682485016E+04  0.20682485016E+04  0.25500000000E-02 0. -1.
         -2   -1    0    0    0  501 -0.00000000000E+00 -0.00000000000E+00 -0.13691191485E+03  0.13691191487E+03  0.25500000000E-02 0.  1.
    8880022    1    1    2    0    0  0.46119197120E+03 -0.94617868091E+02  0.13702411583E+04  0.14569155982E+04  0.15294330000E+03 0.  0.
    8880022    1    1    2    0    0 -0.46119197120E+03  0.94617868091E+02  0.56109542842E+03  0.74824481828E+03  0.15294330000E+03 0.  0.
<mgrwt>
<rscale>  0 0.49501740E+03</rscale>
<asrwt>0</asrwt>
<pdfrwt beam="1">  1        2 0.31819208E+00 0.49501740E+03</pdfrwt>
<pdfrwt beam="2">  1       -2 0.21063372E-01 0.49501740E+03</pdfrwt>
<totfact> 0.12638973E+02</totfact>
</mgrwt>
</event>
<event>
 4    1  0.4880711E-008  0.3306038E+03  0.7818608E-02  0.1070870E+00
          2   -1    0    0  501    0  0.00000000000E+00  0.00000000000E+00  0.23512344227E+04  0.23512344227E+04  0.25500000000E-02 0. -1.
         -2   -1    0    0    0  501 -0.00000000000E+00 -0.00000000000E+00 -0.20754997997E+03  0.20754997998E+03  0.25500000000E-02 0.  1.
    8880022    1    1    2    0    0  0.29238284053E+03  0.20480852025E+02  0.21988889720E+04  0.22236032818E+04  0.15294330000E+03 0.  0.
    8880022    1    1    2    0    0 -0.29238284053E+03 -0.20480852025E+02 -0.55204529245E+02  0.33518112089E+03  0.15294330000E+03 0.  0.
<mgrwt>
<rscale>  0 0.33060376E+03</rscale>
<asrwt>0</asrwt>
<pdfrwt beam="1">  1        2 0.36172834E+00 0.33060376E+03</pdfrwt>
<pdfrwt beam="2">  1       -2 0.31930769E-01 0.33060376E+03</pdfrwt>
<totfact> 0.43642176E+01</totfact>
</mgrwt>
</event>
<event>
 4    1  0.4880711E-008  0.1598995E+03  0.7818608E-02  0.1188810E+00
          2   -1    0    0  501    0  0.00000000000E+00  0.00000000000E+00  0.37354136454E+04  0.37354136454E+04  0.25500000000E-02 0. -1.
         -2   -1    0    0    0  501 -0.00000000000E+00 -0.00000000000E+00 -0.18598511361E+03  0.18598511363E+03  0.25500000000E-02 0.  1.
    8880022    1    1    2    0    0 -0.56222811722E+01 -0.46309617044E+02  0.36989961299E+04  0.37024505686E+04  0.15294330000E+03 0.  0.
    8880022    1    1    2    0    0  0.56222811722E+01  0.46309617044E+02 -0.14956759812E+03  0.21894819044E+03  0.15294330000E+03 0.  1.
<mgrwt>
<rscale>  0 0.15989948E+03</rscale>
<asrwt>0</asrwt>
<pdfrwt beam="1">  1        2 0.57467902E+00 0.15989948E+03</pdfrwt>
<pdfrwt beam="2">  1       -2 0.28613095E-01 0.15989948E+03</pdfrwt>
<totfact> 0.86204865E+00</totfact>
</mgrwt>
</event>
<event>
 4    1  0.4880711E-008  0.2454119E+03  0.7818608E-02  0.1116239E+00
          2   -1    0    0  501    0  0.00000000000E+00  0.00000000000E+00  0.61853751726E+03  0.61853751726E+03  0.25500000000E-02 0. -1.
         -2   -1    0    0    0  501 -0.00000000000E+00 -0.00000000000E+00 -0.33701428821E+03  0.33701428822E+03  0.25500000000E-02 0.  1.
    8880022    1    1    2    0    0 -0.59737747167E+02 -0.18239171333E+03 -0.26212574332E+03  0.35907783815E+03  0.15294330000E+03 0.  0.
    8880022    1    1    2    0    0  0.59737747167E+02  0.18239171333E+03  0.54364897237E+03  0.59647396733E+03  0.15294330000E+03 0.  0.
<mgrwt>
<rscale>  0 0.24541188E+03</rscale>
<asrwt>0</asrwt>
<pdfrwt beam="1">  1        2 0.95159618E-01 0.24541188E+03</pdfrwt>
<pdfrwt beam="2">  1       -2 0.51848352E-01 0.24541188E+03</pdfrwt>
<totfact> 0.17609969E+02</totfact>
</mgrwt>
</event>
<event>
 4    1  0.4880711E-008  0.1189471E+04  0.7818608E-02  0.9122122E-01
          2   -1    0    0  501    0  0.00000000000E+00  0.00000000000E+00  0.22361339966E+04  0.22361339966E+04  0.25500000000E-02 0. -1.
         -2   -1    0    0    0  501 -0.00000000000E+00 -0.00000000000E+00 -0.12536382402E+04  0.12536382402E+04  0.25500000000E-02 0.  1.
    8880022    1    1    2    0    0 -0.28640305756E+03 -0.11443006920E+04 -0.73675348212E+03  0.13991597949E+04  0.15294330000E+03 0.  0.
    8880022    1    1    2    0    0  0.28640305756E+03  0.11443006920E+04  0.17192492385E+04  0.20906124419E+04  0.15294330000E+03 0.  0.
<mgrwt>
<rscale>  0 0.11894715E+04</rscale>
<asrwt>0</asrwt>
<pdfrwt beam="1">  1        2 0.34402061E+00 0.11894715E+04</pdfrwt>
<pdfrwt beam="2">  1       -2 0.19286742E+00 0.11894715E+04</pdfrwt>
<totfact> 0.71205554E-01</totfact>
</mgrwt>
</event>
<event>
 4    1  0.4880711E-008  0.2938503E+03  0.7818608E-02  0.1088356E+00
         -2   -1    0    0    0  501 -0.00000000000E+00  0.00000000000E+00  0.40606223277E+03  0.40606223278E+03  0.25500000000E-02 0.  1.
          2   -1    0    0  501    0  0.00000000000E+00 -0.00000000000E+00 -0.54893984171E+03  0.54893984172E+03  0.25500000000E-02 0. -1.
    8880022    1    1    2    0    0 -0.25091024489E+03  0.63530941994E+00  0.30230207926E+03  0.42158576203E+03  0.15294330000E+03 0.  0.
    8880022    1    1    2    0    0  0.25091024489E+03 -0.63530941994E+00 -0.44517968820E+03  0.53341631247E+03  0.15294330000E+03 0.  0.
<mgrwt>
<rscale>  0 0.29385031E+03</rscale>
<asrwt>0</asrwt>
<pdfrwt beam="1">  1        2 0.84452283E-01 0.29385031E+03</pdfrwt>
<pdfrwt beam="2">  1       -2 0.62471113E-01 0.29385031E+03</pdfrwt>
<totfact> 0.13706510E+02</totfact>
</mgrwt>
</event>
<event>
 4    1  0.4880711E-008  0.4310560E+03  0.7818608E-02  0.1033527E+00
          2   -1    0    0  501    0  0.00000000000E+00  0.00000000000E+00  0.50092791150E+03  0.50092791151E+03  0.25500000000E-02 0. -1.
         -2   -1    0    0    0  501 -0.00000000000E+00 -0.00000000000E+00 -0.51331505981E+03  0.51331505982E+03  0.25500000000E-02 0.  1.
    8880022    1    1    2    0    0  0.52597004665E+02  0.39956368426E+03 -0.27328016253E+03  0.51038346655E+03  0.15294330000E+03 0.  0.
    8880022    1    1    2    0    0 -0.52597004665E+02 -0.39956368426E+03  0.26089301421E+03  0.50385950478E+03  0.15294330000E+03 0.  0.
<mgrwt>
<rscale>  0 0.43105595E+03</rscale>
<asrwt>0</asrwt>
<pdfrwt beam="1">  1        2 0.77065833E-01 0.43105595E+03</pdfrwt>
<pdfrwt beam="2">  1       -2 0.78971548E-01 0.43105595E+03</pdfrwt>
<totfact> 0.90446728E+01</totfact>
</mgrwt>
</event>
<event>
 4    1  0.4880711E-008  0.6506754E+03  0.7818608E-02  0.9805513E-01
          2   -1    0    0  501    0  0.00000000000E+00  0.00000000000E+00  0.86853281589E+03  0.86853281589E+03  0.25500000000E-02 0. -1.
         -2   -1    0    0    0  501 -0.00000000000E+00 -0.00000000000E+00 -0.65914474313E+03  0.65914474314E+03  0.25500000000E-02 0.  1.
    8880022    1    1    2    0    0 -0.54307010219E+03 -0.32413218370E+03  0.49452122617E+03  0.81726966452E+03  0.15294330000E+03 0.  0.
    8880022    1    1    2    0    0  0.54307010219E+03  0.32413218370E+03 -0.28513315341E+03  0.71040789451E+03  0.15294330000E+03 0.  0.
<mgrwt>
<rscale>  0 0.65067539E+03</rscale>
<asrwt>0</asrwt>
<pdfrwt beam="1">  1        2 0.13362043E+00 0.65067539E+03</pdfrwt>
<pdfrwt beam="2">  1       -2 0.10140688E+00 0.65067539E+03</pdfrwt>
<totfact> 0.25241205E+01</totfact>
</mgrwt>
</event>
<event>
 4    1  0.9302202E-008  0.7434047E+03  0.7818608E-02  0.9645755E-01
          2   -1    0    0  501    0  0.00000000000E+00  0.00000000000E+00  0.19329930949E+04  0.19329930949E+04  0.25500000000E-02 0. -1.
         -2   -1    0    0    0  501 -0.00000000000E+00 -0.00000000000E+00 -0.11801095514E+04  0.11801095514E+04  0.25500000000E-02 0.  1.
    8880022    1    1    2    0    0 -0.72644250838E+03 -0.39244331115E+02 -0.97850102129E+03  0.12288672578E+04  0.15294330000E+03 0.  0.
    8880022    1    1    2    0    0  0.72644250838E+03  0.39244331115E+02  0.17313845648E+04  0.18842353886E+04  0.15294330000E+03 0.  0.
<mgrwt>
<rscale>  0 0.74340466E+03</rscale>
<asrwt>0</asrwt>
<pdfrwt beam="1">  1        2 0.29738355E+00 0.74340466E+03</pdfrwt>
<pdfrwt beam="2">  1       -2 0.18155532E+00 0.74340466E+03</pdfrwt>
<totfact> 0.13403279E+00</totfact>
</mgrwt>
</event>
<event>
 4    1  0.4880711E-008  0.3067551E+03  0.7818608E-02  0.1081912E+00
         -2   -1    0    0    0  501 -0.00000000000E+00  0.00000000000E+00  0.38482675677E+03  0.38482675678E+03  0.25500000000E-02 0.  1.
          2   -1    0    0  501    0  0.00000000000E+00 -0.00000000000E+00 -0.40099062797E+03  0.40099062798E+03  0.25500000000E-02 0. -1.
    8880022    1    1    2    0    0 -0.25971538407E+03  0.57051992097E+02  0.23735389431E+03  0.38786019992E+03  0.15294330000E+03 0.  0.
    8880022    1    1    2    0    0  0.25971538407E+03 -0.57051992097E+02 -0.25351776551E+03  0.39795718484E+03  0.15294330000E+03 0.  0.
<mgrwt>
<rscale>  0 0.30675505E+03</rscale>
<asrwt>0</asrwt>
<pdfrwt beam="1">  1        2 0.61690866E-01 0.30675505E+03</pdfrwt>
<pdfrwt beam="2">  1       -2 0.59204116E-01 0.30675505E+03</pdfrwt>
<totfact> 0.21770094E+02</totfact>
</mgrwt>
</event>
<event>
 4    1  0.4880711E-008  0.1024058E+04  0.7818608E-02  0.9282545E-01
         -2   -1    0    0    0  501 -0.00000000000E+00  0.00000000000E+00  0.86746479082E+03  0.86746479082E+03  0.25500000000E-02 0.  1.
          2   -1    0    0  501    0  0.00000000000E+00 -0.00000000000E+00 -0.16715082796E+04  0.16715082796E+04  0.25500000000E-02 0. -1.
    8880022    1    1    2    0    0 -0.54658059061E+03 -0.85238109374E+03 -0.10698597820E+04  0.14809778787E+04  0.15294330000E+03 0.  0.
    8880022    1    1    2    0    0  0.54658059061E+03  0.85238109374E+03  0.26581629322E+03  0.10579951917E+04  0.15294330000E+03 0.  0.
<mgrwt>
<rscale>  0 0.10240584E+04</rscale>
<asrwt>0</asrwt>
<pdfrwt beam="1">  1        2 0.25715512E+00 0.10240584E+04</pdfrwt>
<pdfrwt beam="2">  1       -2 0.13345612E+00 0.10240584E+04</pdfrwt>
<totfact> 0.40988570E+00</totfact>
</mgrwt>
</event>
<event>
 4    1  0.4880711E-008  0.2583120E+03  0.7818608E-02  0.1108162E+00
         -2   -1    0    0    0  501 -0.00000000000E+00  0.00000000000E+00  0.55394434007E+02  0.55394434065E+02  0.25500000000E-02 0.  1.
          2   -1    0    0  501    0  0.00000000000E+00 -0.00000000000E+00 -0.15441888629E+04  0.15441888630E+04  0.25500000000E-02 0. -1.
    8880022    1    1    2    0    0 -0.90405416407E+02  0.18751077897E+03 -0.11194898944E+04  0.11489050040E+04  0.15294330000E+03 0.  0.
    8880022    1    1    2    0    0  0.90405416407E+02 -0.18751077897E+03 -0.36930453454E+03  0.45067829302E+03  0.15294330000E+03 0.  1.
<mgrwt>
<rscale>  0 0.25831199E+03</rscale>
<asrwt>0</asrwt>
<pdfrwt beam="1">  1        2 0.23756748E+00 0.25831199E+03</pdfrwt>
<pdfrwt beam="2">  1       -2 0.85222218E-02 0.25831199E+03</pdfrwt>
<totfact> 0.11082822E+03</totfact>
</mgrwt>
</event>
<event>
 4    1  0.4880711E-008  0.5925469E+03  0.7818608E-02  0.9920991E-01
         -2   -1    0    0    0  501 -0.00000000000E+00  0.00000000000E+00  0.71828274866E+03  0.71828274867E+03  0.25500000000E-02 0.  1.
          2   -1    0    0  501    0  0.00000000000E+00 -0.00000000000E+00 -0.89926200428E+03  0.89926200429E+03  0.25500000000E-02 0. -1.
    8880022    1    1    2    0    0 -0.38253838540E+03 -0.42589266248E+03 -0.63688681743E+03  0.86990611418E+03  0.15294330000E+03 0.  0.
    8880022    1    1    2    0    0  0.38253838540E+03  0.42589266248E+03  0.45590756181E+03  0.74763863877E+03  0.15294330000E+03 0.  0.
<mgrwt>
<rscale>  0 0.59254690E+03</rscale>
<asrwt>0</asrwt>
<pdfrwt beam="1">  1        2 0.13834800E+00 0.59254690E+03</pdfrwt>
<pdfrwt beam="2">  1       -2 0.11050504E+00 0.59254690E+03</pdfrwt>
<totfact> 0.19721178E+01</totfact>
</mgrwt>
</event>
<event>
 4    1  0.4880711E-008  0.7909194E+03  0.7818608E-02  0.9573255E-01
         -2   -1    0    0    0  501 -0.00000000000E+00  0.00000000000E+00  0.73766871999E+03  0.73766871999E+03  0.25500000000E-02 0.  1.
          2   -1    0    0  501    0  0.00000000000E+00 -0.00000000000E+00 -0.10701997740E+04  0.10701997740E+04  0.25500000000E-02 0. -1.
    8880022    1    1    2    0    0  0.35787155753E+03  0.68854184064E+03  0.24560651553E+03  0.82817638912E+03  0.15294330000E+03 0.  0.
    8880022    1    1    2    0    0 -0.35787155753E+03 -0.68854184064E+03 -0.57813756950E+03  0.97969210484E+03  0.15294330000E+03 0.  0.
<mgrwt>
<rscale>  0 0.79091945E+03</rscale>
<asrwt>0</asrwt>
<pdfrwt beam="1">  1        2 0.16464612E+00 0.79091945E+03</pdfrwt>
<pdfrwt beam="2">  1       -2 0.11348750E+00 0.79091945E+03</pdfrwt>
<totfact> 0.14027474E+01</totfact>
</mgrwt>
</event>
<event>
 4    1  0.4880711E-008  0.2316349E+03  0.7818608E-02  0.1125494E+00
          2   -1    0    0  501    0  0.00000000000E+00  0.00000000000E+00  0.26025704558E+03  0.26025704559E+03  0.25500000000E-02 0. -1.
         -2   -1    0    0    0  501 -0.00000000000E+00 -0.00000000000E+00 -0.59308590041E+03  0.59308590042E+03  0.25500000000E-02 0.  1.
    8880022    1    1    2    0    0 -0.14941257348E+03  0.89100910848E+02  0.17821184694E+03  0.29225708688E+03  0.15294330000E+03 0. -1.
    8880022    1    1    2    0    0  0.14941257348E+03 -0.89100910848E+02 -0.51104070177E+03  0.56108585913E+03  0.15294330000E+03 0.  0.
<mgrwt>
<rscale>  0 0.23163493E+03</rscale>
<asrwt>0</asrwt>
<pdfrwt beam="1">  1        2 0.40039546E-01 0.23163493E+03</pdfrwt>
<pdfrwt beam="2">  1       -2 0.91243984E-01 0.23163493E+03</pdfrwt>
<totfact> 0.13672186E+02</totfact>
</mgrwt>
</event>
<event>
 4    1  0.4880711E-008  0.1407277E+04  0.7818608E-02  0.8948568E-01
          2   -1    0    0  501    0  0.00000000000E+00  0.00000000000E+00  0.25839510775E+04  0.25839510775E+04  0.25500000000E-02 0. -1.
         -2   -1    0    0    0  501 -0.00000000000E+00 -0.00000000000E+00 -0.92871915134E+03  0.92871915134E+03  0.25500000000E-02 0.  1.
    8880022    1    1    2    0    0 -0.13579854255E+04 -0.33602470000E+03  0.15617987693E+04  0.21022949516E+04  0.15294330000E+03 0.  0.
    8880022    1    1    2    0    0  0.13579854255E+04  0.33602470000E+03  0.93433156851E+02  0.14103752772E+04  0.15294330000E+03 0.  0.
<mgrwt>
<rscale>  0 0.14072770E+04</rscale>
<asrwt>0</asrwt>
<pdfrwt beam="1">  1        2 0.39753093E+00 0.14072770E+04</pdfrwt>
<pdfrwt beam="2">  1       -2 0.14287987E+00 0.14072770E+04</pdfrwt>
<totfact> 0.10121536E+00</totfact>
</mgrwt>
</event>
<event>
 4    1  0.4880711E-008  0.1862239E+03  0.7818608E-02  0.1161912E+00
         -2   -1    0    0    0  501 -0.00000000000E+00  0.00000000000E+00  0.86259850840E+03  0.86259850840E+03  0.25500000000E-02 0.  1.
          2   -1    0    0  501    0  0.00000000000E+00 -0.00000000000E+00 -0.43228339411E+02  0.43228339486E+02  0.25500000000E-02 0. -1.
    8880022    1    1    2    0    0  0.25208181606E+02  0.10320961883E+03  0.52949545762E+03  0.56128849132E+03  0.15294330000E+03 0.  1.
    8880022    1    1    2    0    0 -0.25208181606E+02 -0.10320961883E+03  0.28987471137E+03  0.34453835657E+03  0.15294330000E+03 0. -1.
<mgrwt>
<rscale>  0 0.18622387E+03</rscale>
<asrwt>0</asrwt>
<pdfrwt beam="1">  1        2 0.66505139E-02 0.18622387E+03</pdfrwt>
<pdfrwt beam="2">  1       -2 0.13270746E+00 0.18622387E+03</pdfrwt>
<totfact> 0.46375531E+02</totfact>
</mgrwt>
</event>
<event>
 4    1  0.4880711E-008  0.4793804E+03  0.7818608E-02  0.1019306E+00
          2   -1    0    0  501    0  0.00000000000E+00  0.00000000000E+00  0.78602446762E+03  0.78602446762E+03  0.25500000000E-02 0. -1.
         -2   -1    0    0    0  501 -0.00000000000E+00 -0.00000000000E+00 -0.49288379936E+03  0.49288379937E+03  0.25500000000E-02 0.  1.
    8880022    1    1    2    0    0  0.40586500826E+03  0.20417523593E+03 -0.26129360266E+03  0.54596696942E+03  0.15294330000E+03 0.  1.
    8880022    1    1    2    0    0 -0.40586500826E+03 -0.20417523593E+03  0.55443427091E+03  0.73294129756E+03  0.15294330000E+03 0.  0.
<mgrwt>
<rscale>  0 0.47938042E+03</rscale>
<asrwt>0</asrwt>
<pdfrwt beam="1">  1        2 0.12092684E+00 0.47938042E+03</pdfrwt>
<pdfrwt beam="2">  1       -2 0.75828277E-01 0.47938042E+03</pdfrwt>
<totfact> 0.57128186E+01</totfact>
</mgrwt>
</event>
<event>
 4    1  0.4880711E-008  0.3277707E+03  0.7818608E-02  0.1072128E+00
          2   -1    0    0  501    0  0.00000000000E+00  0.00000000000E+00  0.30327075863E+03  0.30327075864E+03  0.25500000000E-02 0. -1.
         -2   -1    0    0    0  501 -0.00000000000E+00 -0.00000000000E+00 -0.16560412151E+04  0.16560412151E+04  0.25500000000E-02 0.  1.
    8880022    1    1    2    0    0  0.28702509428E+03 -0.40725367908E+02 -0.15449630254E+04  0.15793493480E+04  0.15294330000E+03 0.  0.
    8880022    1    1    2    0    0 -0.28702509428E+03  0.40725367908E+02  0.19219256894E+03  0.37996262567E+03  0.15294330000E+03 0.  0.
<mgrwt>
<rscale>  0 0.32777067E+03</rscale>
<asrwt>0</asrwt>
<pdfrwt beam="1">  1        2 0.46657041E-01 0.32777067E+03</pdfrwt>
<pdfrwt beam="2">  1       -2 0.25477557E+00 0.32777067E+03</pdfrwt>
<totfact> 0.72036578E+00</totfact>
</mgrwt>
</event>
<event>
 4    1  0.4880711E-008  0.7432263E+03  0.7818608E-02  0.9646038E-01
         -2   -1    0    0    0  501 -0.00000000000E+00  0.00000000000E+00  0.30043641094E+03  0.30043641095E+03  0.25500000000E-02 0.  1.
          2   -1    0    0  501    0  0.00000000000E+00 -0.00000000000E+00 -0.18835326785E+04  0.18835326785E+04  0.25500000000E-02 0. -1.
    8880022    1    1    2    0    0 -0.31103697182E+03  0.65745696946E+03 -0.96018941456E+03  0.12142277502E+04  0.15294330000E+03 0. -1.
    8880022    1    1    2    0    0  0.31103697182E+03 -0.65745696946E+03 -0.62290685302E+03  0.96974133926E+03  0.15294330000E+03 0. -1.
<mgrwt>
<rscale>  0 0.74322629E+03</rscale>
<asrwt>0</asrwt>
<pdfrwt beam="1">  1        2 0.28977425E+00 0.74322629E+03</pdfrwt>
<pdfrwt beam="2">  1       -2 0.46220988E-01 0.74322629E+03</pdfrwt>
<totfact> 0.35463604E+01</totfact>
</mgrwt>
</event>
<event>
 4    1  0.4880711E-008  0.4300223E+03  0.7818608E-02  0.1033853E+00
         -2   -1    0    0    0  501 -0.00000000000E+00  0.00000000000E+00  0.16225934034E+04  0.16225934034E+04  0.25500000000E-02 0.  1.
          2   -1    0    0  501    0  0.00000000000E+00 -0.00000000000E+00 -0.44506218123E+03  0.44506218124E+03  0.25500000000E-02 0. -1.
    8880022    1    1    2    0    0 -0.14445497496E+02 -0.40164514189E+03 -0.30292764548E+03  0.52600789330E+03  0.15294330000E+03 0.  0.
    8880022    1    1    2    0    0  0.14445497496E+02  0.40164514189E+03  0.14804588676E+04  0.15416476913E+04  0.15294330000E+03 0.  0.
<mgrwt>
<rscale>  0 0.43002226E+03</rscale>
<asrwt>0</asrwt>
<pdfrwt beam="1">  1        2 0.68471106E-01 0.43002226E+03</pdfrwt>
<pdfrwt beam="2">  1       -2 0.24962975E+00 0.43002226E+03</pdfrwt>
<totfact> 0.49403252E+00</totfact>
</mgrwt>
</event>
<event>
 4    1  0.4880711E-008  0.6684510E+03  0.7818608E-02  0.9772760E-01
         -2   -1    0    0    0  501 -0.00000000000E+00  0.00000000000E+00  0.17225183751E+03  0.17225183753E+03  0.25500000000E-02 0.  1.
          2   -1    0    0  501    0  0.00000000000E+00 -0.00000000000E+00 -0.26723641452E+04  0.26723641452E+04  0.25500000000E-02 0. -1.
    8880022    1    1    2    0    0 -0.14600066764E+03 -0.63412842635E+03 -0.14935662436E+04  0.16363272390E+04  0.15294330000E+03 0.  0.
    8880022    1    1    2    0    0  0.14600066764E+03  0.63412842635E+03 -0.10065460641E+04  0.12082887437E+04  0.15294330000E+03 0.  0.
<mgrwt>
<rscale>  0 0.66845098E+03</rscale>
<asrwt>0</asrwt>
<pdfrwt beam="1">  1        2 0.41113291E+00 0.66845098E+03</pdfrwt>
<pdfrwt beam="2">  1       -2 0.26500285E-01 0.66845098E+03</pdfrwt>
<totfact> 0.37680891E+01</totfact>
</mgrwt>
</event>
<event>
 4    1  0.4880711E-008  0.5367173E+03  0.7818608E-02  0.1004616E+00
         -2   -1    0    0    0  501 -0.00000000000E+00  0.00000000000E+00  0.37276148981E+03  0.37276148981E+03  0.25500000000E-02 0.  1.
          2   -1    0    0  501    0  0.00000000000E+00 -0.00000000000E+00 -0.15885132361E+04  0.15885132361E+04  0.25500000000E-02 0. -1.
    8880022    1    1    2    0    0  0.16240755471E+03 -0.48815734537E+03  0.94848586532E+02  0.54503368249E+03  0.15294330000E+03 0.  0.
    8880022    1    1    2    0    0 -0.16240755471E+03  0.48815734537E+03 -0.13106003328E+04  0.14162410434E+04  0.15294330000E+03 0.  0.
<mgrwt>
<rscale>  0 0.53671730E+03</rscale>
<asrwt>0</asrwt>
<pdfrwt beam="1">  1        2 0.24438665E+00 0.53671730E+03</pdfrwt>
<pdfrwt beam="2">  1       -2 0.57347922E-01 0.53671730E+03</pdfrwt>
<totfact> 0.34011806E+01</totfact>
</mgrwt>
</event>
<event>
 4    1  0.4880711E-008  0.5586397E+03  0.7818608E-02  0.9995137E-01
         -2   -1    0    0    0  501 -0.00000000000E+00  0.00000000000E+00  0.30504898336E+03  0.30504898337E+03  0.25500000000E-02 0.  1.
          2   -1    0    0  501    0  0.00000000000E+00 -0.00000000000E+00 -0.23001342073E+04  0.23001342073E+04  0.25500000000E-02 0. -1.
    8880022    1    1    2    0    0 -0.18316604979E+03 -0.50511071086E+03 -0.26937423882E+02  0.55928875354E+03  0.15294330000E+03 0.  0.
    8880022    1    1    2    0    0  0.18316604979E+03  0.50511071086E+03 -0.19681478001E+04  0.20458944372E+04  0.15294330000E+03 0. -1.
<mgrwt>
<rscale>  0 0.55863967E+03</rscale>
<asrwt>0</asrwt>
<pdfrwt beam="1">  1        2 0.35386679E+00 0.55863967E+03</pdfrwt>
<pdfrwt beam="2">  1       -2 0.46930614E-01 0.55863967E+03</pdfrwt>
<totfact> 0.20979164E+01</totfact>
</mgrwt>
</event>
<event>
 4    1  0.4880711E-008  0.2223239E+03  0.7818608E-02  0.1132162E+00
          2   -1    0    0  501    0  0.00000000000E+00  0.00000000000E+00  0.68688130417E+03  0.68688130418E+03  0.25500000000E-02 0. -1.
         -2   -1    0    0    0  501 -0.00000000000E+00 -0.00000000000E+00 -0.55455800941E+03  0.55455800941E+03  0.25500000000E-02 0.  1.
    8880022    1    1    2    0    0  0.72758090858E+02  0.14402259675E+03  0.64520998818E+03  0.68243961640E+03  0.15294330000E+03 0. -1.
    8880022    1    1    2    0    0 -0.72758090858E+02 -0.14402259675E+03 -0.51288669342E+03  0.55899969719E+03  0.15294330000E+03 0.  0.
<mgrwt>
<rscale>  0 0.22232387E+03</rscale>
<asrwt>0</asrwt>
<pdfrwt beam="1">  1        2 0.10567405E+00 0.22232387E+03</pdfrwt>
<pdfrwt beam="2">  1       -2 0.85316617E-01 0.22232387E+03</pdfrwt>
<totfact> 0.54260080E+01</totfact>
</mgrwt>
</event>
<event>
 4    1  0.4880711E-008  0.8069809E+03  0.7818608E-02  0.9549967E-01
          2   -1    0    0  501    0  0.00000000000E+00  0.00000000000E+00  0.17878255758E+04  0.17878255758E+04  0.25500000000E-02 0. -1.
         -2   -1    0    0    0  501 -0.00000000000E+00 -0.00000000000E+00 -0.78510173520E+03  0.78510173520E+03  0.25500000000E-02 0.  1.
    8880022    1    1    2    0    0 -0.73746000479E+03  0.28979180397E+03 -0.44052404199E+03  0.91939090321E+03  0.15294330000E+03 0.  0.
    8880022    1    1    2    0    0  0.73746000479E+03 -0.28979180397E+03  0.14432478826E+04  0.16535364078E+04  0.15294330000E+03 0.  0.
<mgrwt>
<rscale>  0 0.80698092E+03</rscale>
<asrwt>0</asrwt>
<pdfrwt beam="1">  1        2 0.27505009E+00 0.80698092E+03</pdfrwt>
<pdfrwt beam="2">  1       -2 0.12078488E+00 0.80698092E+03</pdfrwt>
<totfact> 0.46808160E+00</totfact>
</mgrwt>
</event>
<event>
 4    1  0.4880711E-008  0.2490679E+03  0.7818608E-02  0.1113895E+00
         -2   -1    0    0    0  501 -0.00000000000E+00  0.00000000000E+00  0.42059551567E+02  0.42059551645E+02  0.25500000000E-02 0.  1.
          2   -1    0    0  501    0  0.00000000000E+00 -0.00000000000E+00 -0.22523116454E+04  0.22523116454E+04  0.25500000000E-02 0. -1.
    8880022    1    1    2    0    0  0.19209308263E+03 -0.41753907368E+02 -0.17790909052E+04  0.17964407151E+04  0.15294330000E+03 0.  0.
    8880022    1    1    2    0    0 -0.19209308263E+03  0.41753907368E+02 -0.43116118864E+03  0.49793048188E+03  0.15294330000E+03 0.  1.
<mgrwt>
<rscale>  0 0.24906785E+03</rscale>
<asrwt>0</asrwt>
<pdfrwt beam="1">  1        2 0.34650939E+00 0.24906785E+03</pdfrwt>
<pdfrwt beam="2">  1       -2 0.64707020E-02 0.24906785E+03</pdfrwt>
<totfact> 0.72204671E+02</totfact>
</mgrwt>
</event>
<event>
 4    1  0.4880711E-008  0.2582476E+03  0.7818608E-02  0.1108201E+00
         -2   -1    0    0    0  501 -0.00000000000E+00  0.00000000000E+00  0.14132473523E+03  0.14132473525E+03  0.25500000000E-02 0.  1.
          2   -1    0    0  501    0  0.00000000000E+00 -0.00000000000E+00 -0.20690097980E+04  0.20690097980E+04  0.25500000000E-02 0. -1.
    8880022    1    1    2    0    0 -0.18736423026E+03  0.90525354698E+02 -0.19348296049E+04  0.19519880757E+04  0.15294330000E+03 0.  0.
    8880022    1    1    2    0    0  0.18736423026E+03 -0.90525354698E+02  0.71445421537E+01  0.25834645754E+03  0.15294330000E+03 0.  0.
<mgrwt>
<rscale>  0 0.25824765E+03</rscale>
<asrwt>0</asrwt>
<pdfrwt beam="1">  1        2 0.31830918E+00 0.25824765E+03</pdfrwt>
<pdfrwt beam="2">  1       -2 0.21742268E-01 0.25824765E+03</pdfrwt>
<totfact> 0.12565853E+02</totfact>
</mgrwt>
</event>
<event>
 4    1  0.4880711E-008  0.3725667E+03  0.7818608E-02  0.1053716E+00
          2   -1    0    0  501    0  0.00000000000E+00  0.00000000000E+00  0.96258614080E+03  0.96258614080E+03  0.25500000000E-02 0. -1.
         -2   -1    0    0    0  501 -0.00000000000E+00 -0.00000000000E+00 -0.10924715125E+04  0.10924715125E+04  0.25500000000E-02 0.  1.
    8880022    1    1    2    0    0 -0.33024298143E+03  0.79710940941E+02  0.89237276837E+03  0.96702382164E+03  0.15294330000E+03 0.  0.
    8880022    1    1    2    0    0  0.33024298143E+03 -0.79710940941E+02 -0.10222581401E+04  0.10880338317E+04  0.15294330000E+03 0.  1.
<mgrwt>
<rscale>  0 0.37256666E+03</rscale>
<asrwt>0</asrwt>
<pdfrwt beam="1">  1        2 0.14809018E+00 0.37256666E+03</pdfrwt>
<pdfrwt beam="2">  1       -2 0.16807254E+00 0.37256666E+03</pdfrwt>
<totfact> 0.64055216E+00</totfact>
</mgrwt>
</event>
<event>
 4    1  0.4880711E-008  0.8659782E+03  0.7818608E-02  0.9469139E-01
         -2   -1    0    0    0  501 -0.00000000000E+00  0.00000000000E+00  0.42260921108E+03  0.42260921109E+03  0.25500000000E-02 0.  1.
          2   -1    0    0  501    0  0.00000000000E+00 -0.00000000000E+00 -0.20090564768E+04  0.20090564768E+04  0.25500000000E-02 0. -1.
    8880022    1    1    2    0    0  0.57960296984E+03 -0.62496958472E+03 -0.12086609192E+04  0.14868690108E+04  0.15294330000E+03 0.  0.
    8880022    1    1    2    0    0 -0.57960296984E+03  0.62496958472E+03 -0.37778634645E+03  0.94479667709E+03  0.15294330000E+03 0.  0.
<mgrwt>
<rscale>  0 0.86597820E+03</rscale>
<asrwt>0</asrwt>
<pdfrwt beam="1">  1        2 0.30908561E+00 0.86597820E+03</pdfrwt>
<pdfrwt beam="2">  1       -2 0.65016803E-01 0.86597820E+03</pdfrwt>
<totfact> 0.14683493E+01</totfact>
</mgrwt>
</event>
<event>
 4    1  0.4880711E-008  0.3364429E+03  0.7818608E-02  0.1068321E+00
         -2   -1    0    0    0  501 -0.00000000000E+00  0.00000000000E+00  0.32708558728E+03  0.32708558729E+03  0.25500000000E-02 0.  1.
          2   -1    0    0  501    0  0.00000000000E+00 -0.00000000000E+00 -0.41715867539E+03  0.41715867540E+03  0.25500000000E-02 0. -1.
    8880022    1    1    2    0    0  0.16670957332E+03  0.24901824281E+03  0.10858124353E+03  0.35353034743E+03  0.15294330000E+03 0.  0.
    8880022    1    1    2    0    0 -0.16670957332E+03 -0.24901824281E+03 -0.19865433163E+03  0.39071391527E+03  0.15294330000E+03 0.  0.
<mgrwt>
<rscale>  0 0.33644289E+03</rscale>
<asrwt>0</asrwt>
<pdfrwt beam="1">  1        2 0.64178257E-01 0.33644289E+03</pdfrwt>
<pdfrwt beam="2">  1       -2 0.50320860E-01 0.33644289E+03</pdfrwt>
<totfact> 0.29011072E+02</totfact>
</mgrwt>
</event>
<event>
 4    1  0.4880711E-008  0.9629385E+03  0.7818608E-02  0.9350154E-01
          2   -1    0    0  501    0  0.00000000000E+00  0.00000000000E+00  0.92331252933E+03  0.92331252934E+03  0.25500000000E-02 0. -1.
         -2   -1    0    0    0  501 -0.00000000000E+00 -0.00000000000E+00 -0.16712628393E+04  0.16712628393E+04  0.25500000000E-02 0.  1.
    8880022    1    1    2    0    0  0.59764924911E+03  0.73937419690E+03 -0.11935264143E+04  0.15335435379E+04  0.15294330000E+03 0.  0.
    8880022    1    1    2    0    0 -0.59764924911E+03 -0.73937419690E+03  0.44557610435E+03  0.10610318307E+04  0.15294330000E+03 0. -1.
<mgrwt>
<rscale>  0 0.96293846E+03</rscale>
<asrwt>0</asrwt>
<pdfrwt beam="1">  1        2 0.14204808E+00 0.96293846E+03</pdfrwt>
<pdfrwt beam="2">  1       -2 0.25711736E+00 0.96293846E+03</pdfrwt>
<totfact> 0.16476840E+00</totfact>
</mgrwt>
</event>
<event>
 4    1  0.4880711E-008  0.3939801E+03  0.7818608E-02  0.1045884E+00
          2   -1    0    0  501    0  0.00000000000E+00  0.00000000000E+00  0.21347350405E+04  0.21347350405E+04  0.25500000000E-02 0. -1.
         -2   -1    0    0    0  501 -0.00000000000E+00 -0.00000000000E+00 -0.11208970134E+03  0.11208970137E+03  0.25500000000E-02 0.  1.
    8880022    1    1    2    0    0  0.23586021523E+03  0.27604099866E+03  0.34546272818E+03  0.52398933543E+03  0.15294330000E+03 0.  0.
    8880022    1    1    2    0    0 -0.23586021523E+03 -0.27604099866E+03  0.16771826110E+04  0.17228354064E+04  0.15294330000E+03 0.  0.
<mgrwt>
<rscale>  0 0.39398011E+03</rscale>
<asrwt>0</asrwt>
<pdfrwt beam="1">  1        2 0.32842074E+00 0.39398011E+03</pdfrwt>
<pdfrwt beam="2">  1       -2 0.17244571E-01 0.39398011E+03</pdfrwt>
<totfact> 0.16713912E+02</totfact>
</mgrwt>
</event>
<event>
 4    1  0.4880711E-008  0.7883558E+03  0.7818608E-02  0.9577026E-01
         -2   -1    0    0    0  501 -0.00000000000E+00  0.00000000000E+00  0.39955197835E+03  0.39955197836E+03  0.25500000000E-02 0.  1.
          2   -1    0    0  501    0  0.00000000000E+00 -0.00000000000E+00 -0.17595895476E+04  0.17595895476E+04  0.25500000000E-02 0. -1.
    8880022    1    1    2    0    0  0.68960292399E+02 -0.77029719391E+03 -0.31235495161E+03  0.84798028143E+03  0.15294330000E+03 0.  0.
    8880022    1    1    2    0    0 -0.68960292399E+02  0.77029719391E+03 -0.10476826177E+04  0.13111612446E+04  0.15294330000E+03 0.  0.
<mgrwt>
<rscale>  0 0.78835585E+03</rscale>
<asrwt>0</asrwt>
<pdfrwt beam="1">  1        2 0.27070608E+00 0.78835585E+03</pdfrwt>
<pdfrwt beam="2">  1       -2 0.61469536E-01 0.78835585E+03</pdfrwt>
<totfact> 0.22885655E+01</totfact>
</mgrwt>
</event>
<event>
 4    1  0.4880711E-008  0.1117263E+04  0.7818608E-02  0.9188527E-01
          2   -1    0    0  501    0  0.00000000000E+00  0.00000000000E+00  0.13704287080E+04  0.13704287080E+04  0.25500000000E-02 0. -1.
         -2   -1    0    0    0  501 -0.00000000000E+00 -0.00000000000E+00 -0.28745661571E+04  0.28745661571E+04  0.25500000000E-02 0.  1.
    8880022    1    1    2    0    0 -0.10815127868E+04 -0.23498010169E+03  0.10022099467E+04  0.15009003919E+04  0.15294330000E+03 0.  0.
    8880022    1    1    2    0    0  0.10815127868E+04  0.23498010169E+03 -0.25063473959E+04  0.27440944732E+04  0.15294330000E+03 0.  0.
<mgrwt>
<rscale>  0 0.11172633E+04</rscale>
<asrwt>0</asrwt>
<pdfrwt beam="1">  1        2 0.21083519E+00 0.11172633E+04</pdfrwt>
<pdfrwt beam="2">  1       -2 0.44224095E+00 0.11172633E+04</pdfrwt>
<totfact> 0.58608125E-02</totfact>
</mgrwt>
</event>
<event>
 4    1  0.4880711E-008  0.8579857E+03  0.7818608E-02  0.9479681E-01
         -2   -1    0    0    0  501 -0.00000000000E+00  0.00000000000E+00  0.11698072465E+04  0.11698072465E+04  0.25500000000E-02 0.  1.
          2   -1    0    0  501    0  0.00000000000E+00 -0.00000000000E+00 -0.98385498097E+03  0.98385498097E+03  0.25500000000E-02 0. -1.
    8880022    1    1    2    0    0  0.49182329340E+03 -0.68619073201E+03 -0.55347307673E+03  0.10210151675E+04  0.15294330000E+03 0.  0.
    8880022    1    1    2    0    0 -0.49182329340E+03  0.68619073201E+03  0.73942534229E+03  0.11326470600E+04  0.15294330000E+03 0.  0.
<mgrwt>
<rscale>  0 0.85798574E+03</rscale>
<asrwt>0</asrwt>
<pdfrwt beam="1">  1        2 0.15136231E+00 0.85798574E+03</pdfrwt>
<pdfrwt beam="2">  1       -2 0.17997034E+00 0.85798574E+03</pdfrwt>
<totfact> 0.47136781E+00</totfact>
</mgrwt>
</event>
<event>
 4    1  0.4880711E-008  0.7952635E+03  0.7818608E-02  0.9566898E-01
         -2   -1    0    0    0  501 -0.00000000000E+00  0.00000000000E+00  0.66534216324E+03  0.66534216324E+03  0.25500000000E-02 0.  1.
          2   -1    0    0  501    0  0.00000000000E+00 -0.00000000000E+00 -0.17015377648E+04  0.17015377648E+04  0.25500000000E-02 0. -1.
    8880022    1    1    2    0    0  0.77328788855E+03  0.10525337270E+03  0.26811574544E+03  0.83924378878E+03  0.15294330000E+03 0.  0.
    8880022    1    1    2    0    0 -0.77328788855E+03 -0.10525337270E+03 -0.13043113470E+04  0.15276361392E+04  0.15294330000E+03 0.  0.
<mgrwt>
<rscale>  0 0.79526353E+03</rscale>
<asrwt>0</asrwt>
<pdfrwt beam="1">  1        2 0.26177504E+00 0.79526353E+03</pdfrwt>
<pdfrwt beam="2">  1       -2 0.10236033E+00 0.79526353E+03</pdfrwt>
<totfact> 0.78176239E+00</totfact>
</mgrwt>
</event>
<event>
 4    1  0.4880711E-008  0.8284266E+03  0.7818608E-02  0.9519758E-01
         -2   -1    0    0    0  501 -0.00000000000E+00  0.00000000000E+00  0.44020435943E+03  0.44020435944E+03  0.25500000000E-02 0.  1.
          2   -1    0    0  501    0  0.00000000000E+00 -0.00000000000E+00 -0.21022592007E+04  0.21022592007E+04  0.25500000000E-02 0. -1.
    8880022    1    1    2    0    0 -0.29785057183E+03 -0.75774926114E+03 -0.18481649980E+03  0.84879190472E+03  0.15294330000E+03 0.  0.
    8880022    1    1    2    0    0  0.29785057183E+03  0.75774926114E+03 -0.14772383415E+04  0.16936716554E+04  0.15294330000E+03 0.  0.
<mgrwt>
<rscale>  0 0.82842656E+03</rscale>
<asrwt>0</asrwt>
<pdfrwt beam="1">  1        2 0.32342449E+00 0.82842656E+03</pdfrwt>
<pdfrwt beam="2">  1       -2 0.67723749E-01 0.82842656E+03</pdfrwt>
<totfact> 0.12008827E+01</totfact>
</mgrwt>
</event>
<event>
 4    1  0.4880711E-008  0.2929867E+03  0.7818608E-02  0.1088800E+00
          2   -1    0    0  501    0  0.00000000000E+00  0.00000000000E+00  0.12720997405E+04  0.12720997405E+04  0.25500000000E-02 0. -1.
         -2   -1    0    0    0  501 -0.00000000000E+00 -0.00000000000E+00 -0.18402159314E+03  0.18402159316E+03  0.25500000000E-02 0.  1.
    8880022    1    1    2    0    0  0.19053704785E+03  0.16169472162E+03 -0.35354641557E+02  0.29511210293E+03  0.15294330000E+03 0.  1.
    8880022    1    1    2    0    0 -0.19053704785E+03 -0.16169472162E+03  0.11234327889E+04  0.11610092307E+04  0.15294330000E+03 0.  0.
<mgrwt>
<rscale>  0 0.29298669E+03</rscale>
<asrwt>0</asrwt>
<pdfrwt beam="1">  1        2 0.19570766E+00 0.29298669E+03</pdfrwt>
<pdfrwt beam="2">  1       -2 0.28311013E-01 0.29298669E+03</pdfrwt>
<totfact> 0.20790614E+02</totfact>
</mgrwt>
</event>
<event>
 4    1  0.4880711E-008  0.6113458E+03  0.7818608E-02  0.9882143E-01
         -2   -1    0    0    0  501 -0.00000000000E+00  0.00000000000E+00  0.48759484971E+03  0.48759484971E+03  0.25500000000E-02 0.  1.
          2   -1    0    0  501    0  0.00000000000E+00 -0.00000000000E+00 -0.17655861533E+04  0.17655861533E+04  0.25500000000E-02 0. -1.
    8880022    1    1    2    0    0 -0.49322899660E+03  0.32722645404E+03 -0.14864613314E+04  0.16072681600E+04  0.15294330000E+03 0.  0.
    8880022    1    1    2    0    0  0.49322899660E+03 -0.32722645404E+03  0.20847002780E+03  0.64591284305E+03  0.15294330000E+03 0.  0.
<mgrwt>
<rscale>  0 0.61134577E+03</rscale>
<asrwt>0</asrwt>
<pdfrwt beam="1">  1        2 0.27162864E+00 0.61134577E+03</pdfrwt>
<pdfrwt beam="2">  1       -2 0.75014593E-01 0.61134577E+03</pdfrwt>
<totfact> 0.15132921E+01</totfact>
</mgrwt>
</event>
<event>
 4    1  0.4880711E-008  0.7251725E+03  0.7818608E-02  0.9675127E-01
          2   -1    0    0  501    0  0.00000000000E+00  0.00000000000E+00  0.46860140689E+04  0.46860140689E+04  0.25500000000E-02 0. -1.
         -2   -1    0    0    0  501 -0.00000000000E+00 -0.00000000000E+00 -0.26368379730E+03  0.26368379731E+03  0.25500000000E-02 0.  1.
    8880022    1    1    2    0    0  0.22422590935E+03  0.67246280448E+03  0.33548776662E+03  0.79901638056E+03  0.15294330000E+03 0.  1.
    8880022    1    1    2    0    0 -0.22422590935E+03 -0.67246280448E+03  0.40868425050E+04  0.41506814857E+04  0.15294330000E+03 0.  0.
<mgrwt>
<rscale>  0 0.72517249E+03</rscale>
<asrwt>0</asrwt>
<pdfrwt beam="1">  1        2 0.72092520E+00 0.72517249E+03</pdfrwt>
<pdfrwt beam="2">  1       -2 0.40566741E-01 0.72517249E+03</pdfrwt>
<totfact> 0.53087811E-01</totfact>
</mgrwt>
</event>
<event>
 4    1  0.4880711E-008  0.7467570E+03  0.7818608E-02  0.9640452E-01
         -2   -1    0    0    0  501 -0.00000000000E+00  0.00000000000E+00  0.95661902244E+03  0.95661902245E+03  0.25500000000E-02 0.  1.
          2   -1    0    0  501    0  0.00000000000E+00 -0.00000000000E+00 -0.26817695668E+04  0.26817695668E+04  0.25500000000E-02 0. -1.
    8880022    1    1    2    0    0  0.54168249308E+03 -0.49074889398E+03 -0.24719513124E+04  0.25822837458E+04  0.15294330000E+03 0.  0.
    8880022    1    1    2    0    0 -0.54168249308E+03  0.49074889398E+03  0.74680076799E+03  0.10561048434E+04  0.15294330000E+03 0.  0.
<mgrwt>
<rscale>  0 0.74675702E+03</rscale>
<asrwt>0</asrwt>
<pdfrwt beam="1">  1        2 0.41257993E+00 0.74675702E+03</pdfrwt>
<pdfrwt beam="2">  1       -2 0.14717216E+00 0.74675702E+03</pdfrwt>
<totfact> 0.90847593E-01</totfact>
</mgrwt>
</event>
<event>
 4    1  0.4880711E-008  0.5674405E+03  0.7818608E-02  0.9975358E-01
          2   -1    0    0  501    0  0.00000000000E+00  0.00000000000E+00  0.43874823133E+03  0.43874823134E+03  0.25500000000E-02 0. -1.
         -2   -1    0    0    0  501 -0.00000000000E+00 -0.00000000000E+00 -0.15479611927E+04  0.15479611927E+04  0.25500000000E-02 0.  1.
    8880022    1    1    2    0    0 -0.34244039682E+03 -0.42583054075E+03 -0.12749805571E+04  0.13955515572E+04  0.15294330000E+03 0.  0.
    8880022    1    1    2    0    0  0.34244039682E+03  0.42583054075E+03  0.16576759566E+03  0.59115786690E+03  0.15294330000E+03 0.  0.
<mgrwt>
<rscale>  0 0.56744051E+03</rscale>
<asrwt>0</asrwt>
<pdfrwt beam="1">  1        2 0.67499729E-01 0.56744051E+03</pdfrwt>
<pdfrwt beam="2">  1       -2 0.23814787E+00 0.56744051E+03</pdfrwt>
<totfact> 0.57330352E+00</totfact>
</mgrwt>
</event>
<event>
 4    1  0.4880711E-008  0.6134494E+03  0.7818608E-02  0.9877889E-01
         -2   -1    0    0    0  501 -0.00000000000E+00  0.00000000000E+00  0.49674278274E+03  0.49674278275E+03  0.25500000000E-02 0.  1.
          2   -1    0    0  501    0  0.00000000000E+00 -0.00000000000E+00 -0.11866783107E+04  0.11866783107E+04  0.25500000000E-02 0. -1.
    8880022    1    1    2    0    0 -0.14559889673E+03  0.57595966482E+03 -0.85111501188E+03  0.10491506044E+04  0.15294330000E+03 0.  0.
    8880022    1    1    2    0    0  0.14559889673E+03 -0.57595966482E+03  0.16117948393E+03  0.63427048905E+03  0.15294330000E+03 0.  0.
<mgrwt>
<rscale>  0 0.61344945E+03</rscale>
<asrwt>0</asrwt>
<pdfrwt beam="1">  1        2 0.18256589E+00 0.61344945E+03</pdfrwt>
<pdfrwt beam="2">  1       -2 0.76421967E-01 0.61344945E+03</pdfrwt>
<totfact> 0.30566007E+01</totfact>
</mgrwt>
</event>
<event>
 4    1  0.4880711E-008  0.1835699E+03  0.7818608E-02  0.1164392E+00
          2   -1    0    0  501    0  0.00000000000E+00  0.00000000000E+00  0.14303477240E+04  0.14303477240E+04  0.25500000000E-02 0. -1.
         -2   -1    0    0    0  501 -0.00000000000E+00 -0.00000000000E+00 -0.19281453221E+03  0.19281453223E+03  0.25500000000E-02 0.  1.
    8880022    1    1    2    0    0  0.45232931669E+02  0.90885842906E+02 -0.14161778014E+03  0.23184801749E+03  0.15294330000E+03 0.  0.
    8880022    1    1    2    0    0 -0.45232931669E+02 -0.90885842906E+02  0.13791509719E+04  0.13913142387E+04  0.15294330000E+03 0. -1.
<mgrwt>
<rscale>  0 0.18356990E+03</rscale>
<asrwt>0</asrwt>
<pdfrwt beam="1">  1        2 0.22005350E+00 0.18356990E+03</pdfrwt>
<pdfrwt beam="2">  1       -2 0.29663774E-01 0.18356990E+03</pdfrwt>
<totfact> 0.16051051E+02</totfact>
</mgrwt>
</event>
<event>
 4    1  0.4880711E-008  0.4905177E+03  0.7818608E-02  0.1016284E+00
         -2   -1    0    0    0  501 -0.00000000000E+00  0.00000000000E+00  0.95100021807E+03  0.95100021807E+03  0.25500000000E-02 0.  1.
          2   -1    0    0  501    0  0.00000000000E+00 -0.00000000000E+00 -0.49527927780E+03  0.49527927781E+03  0.25500000000E-02 0. -1.
    8880022    1    1    2    0    0 -0.39307149567E+02 -0.46440378773E+03 -0.27790715080E+03  0.56377297518E+03  0.15294330000E+03 0.  0.
    8880022    1    1    2    0    0  0.39307149567E+02  0.46440378773E+03  0.73362809106E+03  0.88250652070E+03  0.15294330000E+03 0.  0.
<mgrwt>
<rscale>  0 0.49051767E+03</rscale>
<asrwt>0</asrwt>
<pdfrwt beam="1">  1        2 0.76196812E-01 0.49051767E+03</pdfrwt>
<pdfrwt beam="2">  1       -2 0.14630772E+00 0.49051767E+03</pdfrwt>
<totfact> 0.20754616E+01</totfact>
</mgrwt>
</event>
<event>
 4    1  0.4880711E-008  0.4455199E+03  0.7818608E-02  0.1029067E+00
          2   -1    0    0  501    0  0.00000000000E+00  0.00000000000E+00  0.39500604509E+04  0.39500604509E+04  0.25500000000E-02 0. -1.
         -2   -1    0    0    0  501 -0.00000000000E+00 -0.00000000000E+00 -0.18738450311E+03  0.18738450313E+03  0.25500000000E-02 0.  1.
    8880022    1    1    2    0    0 -0.77702502772E+02  0.41116744372E+03  0.36510792650E+04  0.36781609261E+04  0.15294330000E+03 0.  0.
    8880022    1    1    2    0    0  0.77702502772E+02 -0.41116744372E+03  0.11159668279E+03  0.45928402796E+03  0.15294330000E+03 0.  0.
<mgrwt>
<rscale>  0 0.44551992E+03</rscale>
<asrwt>0</asrwt>
<pdfrwt beam="1">  1        2 0.60770155E+00 0.44551992E+03</pdfrwt>
<pdfrwt beam="2">  1       -2 0.28828388E-01 0.44551992E+03</pdfrwt>
<totfact> 0.49828976E+00</totfact>
</mgrwt>
</event>
<event>
 4    1  0.4880711E-008  0.7521575E+03  0.7818608E-02  0.9631972E-01
          2   -1    0    0  501    0  0.00000000000E+00  0.00000000000E+00  0.16147791460E+03  0.16147791462E+03  0.25500000000E-02 0. -1.
         -2   -1    0    0    0  501 -0.00000000000E+00 -0.00000000000E+00 -0.47945899225E+04  0.47945899225E+04  0.25500000000E-02 0.  1.
    8880022    1    1    2    0    0  0.73493555912E+03  0.47105236889E+02 -0.10306575430E+04  0.12759293880E+04  0.15294330000E+03 0.  0.
    8880022    1    1    2    0    0 -0.73493555912E+03 -0.47105236889E+02 -0.36024544649E+04  0.36801384491E+04  0.15294330000E+03 0.  0.
<mgrwt>
<rscale>  0 0.75215745E+03</rscale>
<asrwt>0</asrwt>
<pdfrwt beam="1">  1        2 0.24842760E-01 0.75215745E+03</pdfrwt>
<pdfrwt beam="2">  1       -2 0.73762911E+00 0.75215745E+03</pdfrwt>
<totfact> 0.39053438E-02</totfact>
</mgrwt>
</event>
<event>
 4    1  0.4880711E-008  0.6810913E+03  0.7818608E-02  0.9750126E-01
         -2   -1    0    0    0  501 -0.00000000000E+00  0.00000000000E+00  0.63435318611E+03  0.63435318611E+03  0.25500000000E-02 0.  1.
          2   -1    0    0  501    0  0.00000000000E+00 -0.00000000000E+00 -0.21121675743E+04  0.21121675743E+04  0.25500000000E-02 0. -1.
    8880022    1    1    2    0    0  0.56437757905E+03  0.34924431923E+03  0.37146603107E+03  0.77580429974E+03  0.15294330000E+03 0.  0.
    8880022    1    1    2    0    0 -0.56437757905E+03 -0.34924431923E+03 -0.18492804192E+04  0.19707164606E+04  0.15294330000E+03 0. -1.
<mgrwt>
<rscale>  0 0.68109126E+03</rscale>
<asrwt>0</asrwt>
<pdfrwt beam="1">  1        2 0.32494885E+00 0.68109126E+03</pdfrwt>
<pdfrwt beam="2">  1       -2 0.97592799E-01 0.68109126E+03</pdfrwt>
<totfact> 0.53220652E+00</totfact>
</mgrwt>
</event>
<event>
 4    1  0.4880711E-008  0.7548673E+03  0.7818608E-02  0.9627745E-01
         -2   -1    0    0    0  501 -0.00000000000E+00  0.00000000000E+00  0.37747892540E+03  0.37747892541E+03  0.25500000000E-02 0.  1.
          2   -1    0    0  501    0  0.00000000000E+00 -0.00000000000E+00 -0.20985198809E+04  0.20985198809E+04  0.25500000000E-02 0. -1.
    8880022    1    1    2    0    0 -0.18092710162E+03  0.71672757404E+03 -0.15163773803E+04  0.16938786982E+04  0.15294330000E+03 0.  0.
    8880022    1    1    2    0    0  0.18092710162E+03 -0.71672757404E+03 -0.20466357511E+03  0.78212010809E+03  0.15294330000E+03 0.  0.
<mgrwt>
<rscale>  0 0.75486733E+03</rscale>
<asrwt>0</asrwt>
<pdfrwt beam="1">  1        2 0.32284921E+00 0.75486733E+03</pdfrwt>
<pdfrwt beam="2">  1       -2 0.58073682E-01 0.75486733E+03</pdfrwt>
<totfact> 0.16922289E+01</totfact>
</mgrwt>
</event>
<event>
 4    1  0.4880711E-008  0.6373461E+03  0.7818608E-02  0.9830817E-01
          2   -1    0    0  501    0  0.00000000000E+00  0.00000000000E+00  0.12043119861E+04  0.12043119861E+04  0.25500000000E-02 0. -1.
         -2   -1    0    0    0  501 -0.00000000000E+00 -0.00000000000E+00 -0.14386043182E+04  0.14386043182E+04  0.25500000000E-02 0.  1.
    8880022    1    1    2    0    0 -0.23167051336E+03  0.57371350053E+03 -0.12733572319E+04  0.14239553015E+04  0.15294330000E+03 0.  0.
    8880022    1    1    2    0    0  0.23167051336E+03 -0.57371350053E+03  0.10390648998E+04  0.12189610029E+04  0.15294330000E+03 0.  0.
<mgrwt>
<rscale>  0 0.63734611E+03</rscale>
<asrwt>0</asrwt>
<pdfrwt beam="1">  1        2 0.18527877E+00 0.63734611E+03</pdfrwt>
<pdfrwt beam="2">  1       -2 0.22132374E+00 0.63734611E+03</pdfrwt>
<totfact> 0.19215965E+00</totfact>
</mgrwt>
</event>
<event>
 4    1  0.4880711E-008  0.6887170E+03  0.7818608E-02  0.9736725E-01
          2   -1    0    0  501    0  0.00000000000E+00  0.00000000000E+00  0.13041995206E+04  0.13041995206E+04  0.25500000000E-02 0. -1.
         -2   -1    0    0    0  501 -0.00000000000E+00 -0.00000000000E+00 -0.13218503969E+04  0.13218503969E+04  0.25500000000E-02 0.  1.
    8880022    1    1    2    0    0  0.64380992968E+03 -0.19091429116E+03 -0.11267171891E+04  0.13205388178E+04  0.15294330000E+03 0.  0.
    8880022    1    1    2    0    0 -0.64380992968E+03  0.19091429116E+03  0.11090663128E+04  0.13055110997E+04  0.15294330000E+03 0.  0.
<mgrwt>
<rscale>  0 0.68871703E+03</rscale>
<asrwt>0</asrwt>
<pdfrwt beam="1">  1        2 0.20064608E+00 0.68871703E+03</pdfrwt>
<pdfrwt beam="2">  1       -2 0.20336160E+00 0.68871703E+03</pdfrwt>
<totfact> 0.21624517E+00</totfact>
</mgrwt>
</event>
<event>
 4    1  0.4880711E-008  0.8662067E+03  0.7818608E-02  0.9468839E-01
          2   -1    0    0  501    0  0.00000000000E+00  0.00000000000E+00  0.67798379001E+03  0.67798379002E+03  0.25500000000E-02 0. -1.
         -2   -1    0    0    0  501 -0.00000000000E+00 -0.00000000000E+00 -0.15496395652E+04  0.15496395652E+04  0.25500000000E-02 0.  1.
    8880022    1    1    2    0    0  0.59784349788E+03  0.60786973657E+03 -0.10313203649E+04  0.13468243437E+04  0.15294330000E+03 0.  0.
    8880022    1    1    2    0    0 -0.59784349788E+03 -0.60786973657E+03  0.15966458970E+03  0.88079901158E+03  0.15294330000E+03 0.  0.
<mgrwt>
<rscale>  0 0.86620674E+03</rscale>
<asrwt>0</asrwt>
<pdfrwt beam="1">  1        2 0.10430520E+00 0.86620674E+03</pdfrwt>
<pdfrwt beam="2">  1       -2 0.23840609E+00 0.86620674E+03</pdfrwt>
<totfact> 0.32724346E+00</totfact>
</mgrwt>
</event>
<event>
 4    1  0.4880711E-008  0.1049575E+04  0.7818608E-02  0.9255783E-01
          2   -1    0    0  501    0  0.00000000000E+00  0.00000000000E+00  0.31953799647E+04  0.31953799647E+04  0.25500000000E-02 0. -1.
         -2   -1    0    0    0  501 -0.00000000000E+00 -0.00000000000E+00 -0.65126179610E+03  0.65126179611E+03  0.25500000000E-02 0.  1.
    8880022    1    1    2    0    0 -0.10114808097E+04  0.23478078848E+03  0.25915231689E+04  0.27959970377E+04  0.15294330000E+03 0.  0.
    8880022    1    1    2    0    0  0.10114808097E+04 -0.23478078848E+03 -0.47405000306E+02  0.10506447231E+04  0.15294330000E+03 0.  0.
<mgrwt>
<rscale>  0 0.10495747E+04</rscale>
<asrwt>0</asrwt>
<pdfrwt beam="1">  1        2 0.49159692E+00 0.10495747E+04</pdfrwt>
<pdfrwt beam="2">  1       -2 0.10019412E+00 0.10495747E+04</pdfrwt>
<totfact> 0.10911268E+00</totfact>
</mgrwt>
</event>
<event>
 4    1  0.4880711E-008  0.7346875E+03  0.7818608E-02  0.9659684E-01
          2   -1    0    0  501    0  0.00000000000E+00  0.00000000000E+00  0.12260788715E+04  0.12260788715E+04  0.25500000000E-02 0. -1.
         -2   -1    0    0    0  501 -0.00000000000E+00 -0.00000000000E+00 -0.82698252809E+03  0.82698252809E+03  0.25500000000E-02 0.  1.
    8880022    1    1    2    0    0 -0.60813717004E+03  0.38280974840E+03 -0.50245035549E+03  0.89006861185E+03  0.15294330000E+03 0.  0.
    8880022    1    1    2    0    0  0.60813717004E+03 -0.38280974840E+03  0.90154669894E+03  0.11629927878E+04  0.15294330000E+03 0.  0.
<mgrwt>
<rscale>  0 0.73468753E+03</rscale>
<asrwt>0</asrwt>
<pdfrwt beam="1">  1        2 0.18862752E+00 0.73468753E+03</pdfrwt>
<pdfrwt beam="2">  1       -2 0.12722808E+00 0.73468753E+03</pdfrwt>
<totfact> 0.85698955E+00</totfact>
</mgrwt>
</event>
<event>
 4    1  0.4880711E-008  0.8009849E+03  0.7818608E-02  0.9558593E-01
          2   -1    0    0  501    0  0.00000000000E+00  0.00000000000E+00  0.22501007905E+04  0.22501007905E+04  0.25500000000E-02 0. -1.
         -2   -1    0    0    0  501 -0.00000000000E+00 -0.00000000000E+00 -0.34717029118E+03  0.34717029119E+03  0.25500000000E-02 0.  1.
    8880022    1    1    2    0    0 -0.77864924807E+03 -0.10904377877E+03  0.15004296624E+04  0.17008427388E+04  0.15294330000E+03 0. -1.
    8880022    1    1    2    0    0  0.77864924807E+03  0.10904377877E+03  0.40250083689E+03  0.89642834288E+03  0.15294330000E+03 0.  0.
<mgrwt>
<rscale>  0 0.80098493E+03</rscale>
<asrwt>0</asrwt>
<pdfrwt beam="1">  1        2 0.34616935E+00 0.80098493E+03</pdfrwt>
<pdfrwt beam="2">  1       -2 0.53410814E-01 0.80098493E+03</pdfrwt>
<totfact> 0.16510958E+01</totfact>
</mgrwt>
</event>
<event>
 4    1  0.4880711E-008  0.6720743E+03  0.7818608E-02  0.9766218E-01
          2   -1    0    0  501    0  0.00000000000E+00  0.00000000000E+00  0.17398934985E+04  0.17398934985E+04  0.25500000000E-02 0. -1.
         -2   -1    0    0    0  501 -0.00000000000E+00 -0.00000000000E+00 -0.37116182110E+03  0.37116182111E+03  0.25500000000E-02 0.  1.
    8880022    1    1    2    0    0  0.19891136992E+03  0.62347927981E+03  0.10568721876E+03  0.68033343785E+03  0.15294330000E+03 0.  0.
    8880022    1    1    2    0    0 -0.19891136992E+03 -0.62347927981E+03  0.12630444586E+04  0.14307218818E+04  0.15294330000E+03 0.  0.
<mgrwt>
<rscale>  0 0.67207425E+03</rscale>
<asrwt>0</asrwt>
<pdfrwt beam="1">  1        2 0.26767593E+00 0.67207425E+03</pdfrwt>
<pdfrwt beam="2">  1       -2 0.57101818E-01 0.67207425E+03</pdfrwt>
<totfact> 0.27814006E+01</totfact>
</mgrwt>
</event>
<event>
 4    1  0.4880711E-008  0.1034963E+04  0.7818608E-02  0.9271008E-01
         -2   -1    0    0    0  501 -0.00000000000E+00  0.00000000000E+00  0.69407084311E+03  0.69407084311E+03  0.25500000000E-02 0.  1.
          2   -1    0    0  501    0  0.00000000000E+00 -0.00000000000E+00 -0.16611006548E+04  0.16611006548E+04  0.25500000000E-02 0. -1.
    8880022    1    1    2    0    0  0.81098752695E+03 -0.62454469946E+03 -0.79713054172E+03  0.13063558489E+04  0.15294330000E+03 0.  0.
    8880022    1    1    2    0    0 -0.81098752695E+03  0.62454469946E+03 -0.16989926993E+03  0.10488156489E+04  0.15294330000E+03 0.  0.
<mgrwt>
<rscale>  0 0.10349630E+04</rscale>
<asrwt>0</asrwt>
<pdfrwt beam="1">  1        2 0.25555395E+00 0.10349630E+04</pdfrwt>
<pdfrwt beam="2">  1       -2 0.10678013E+00 0.10349630E+04</pdfrwt>
<totfact> 0.72226744E+00</totfact>
</mgrwt>
</event>
<event>
 4    1  0.4880711E-008  0.7168023E+03  0.7818608E-02  0.9688922E-01
         -2   -1    0    0    0  501 -0.00000000000E+00  0.00000000000E+00  0.50401513493E+03  0.50401513493E+03  0.25500000000E-02 0.  1.
          2   -1    0    0  501    0  0.00000000000E+00 -0.00000000000E+00 -0.14134219340E+04  0.14134219340E+04  0.25500000000E-02 0. -1.
    8880022    1    1    2    0    0 -0.39135255805E+03  0.58073831790E+03 -0.96087969540E+03  0.11987890810E+04  0.15294330000E+03 0.  0.
    8880022    1    1    2    0    0  0.39135255805E+03 -0.58073831790E+03  0.51472896316E+02  0.71864798799E+03  0.15294330000E+03 0.  0.
<mgrwt>
<rscale>  0 0.71680225E+03</rscale>
<asrwt>0</asrwt>
<pdfrwt beam="1">  1        2 0.21744953E+00 0.71680225E+03</pdfrwt>
<pdfrwt beam="2">  1       -2 0.77540791E-01 0.71680225E+03</pdfrwt>
<totfact> 0.21635394E+01</totfact>
</mgrwt>
</event>
<event>
 4    1  0.4880711E-008  0.2527961E+03  0.7818608E-02  0.1111550E+00
         -2   -1    0    0    0  501 -0.00000000000E+00  0.00000000000E+00  0.95964404538E+02  0.95964404572E+02  0.25500000000E-02 0.  1.
          2   -1    0    0  501    0  0.00000000000E+00 -0.00000000000E+00 -0.25498560933E+04  0.25498560933E+04  0.25500000000E-02 0. -1.
    8880022    1    1    2    0    0 -0.16224158924E+03  0.11912968328E+03 -0.23640601569E+04  0.23775378636E+04  0.15294330000E+03 0.  0.
    8880022    1    1    2    0    0  0.16224158924E+03 -0.11912968328E+03 -0.89831531958E+02  0.26828263430E+03  0.15294330000E+03 0.  0.
<mgrwt>
<rscale>  0 0.25279610E+03</rscale>
<asrwt>0</asrwt>
<pdfrwt beam="1">  1        2 0.39228550E+00 0.25279610E+03</pdfrwt>
<pdfrwt beam="2">  1       -2 0.14763756E-01 0.25279610E+03</pdfrwt>
<totfact> 0.13376982E+02</totfact>
</mgrwt>
</event>
<event>
 4    1  0.4880711E-008  0.5846216E+03  0.7818608E-02  0.9937835E-01
         -2   -1    0    0    0  501 -0.00000000000E+00  0.00000000000E+00  0.78531470277E+03  0.78531470278E+03  0.25500000000E-02 0.  1.
          2   -1    0    0  501    0  0.00000000000E+00 -0.00000000000E+00 -0.74590187636E+03  0.74590187636E+03  0.25500000000E-02 0. -1.
    8880022    1    1    2    0    0 -0.38400693731E+03  0.41343611893E+03  0.51381880769E+03  0.77832652048E+03  0.15294330000E+03 0.  0.
    8880022    1    1    2    0    0  0.38400693731E+03 -0.41343611893E+03 -0.47440598128E+03  0.75289005866E+03  0.15294330000E+03 0.  0.
<mgrwt>
<rscale>  0 0.58462159E+03</rscale>
<asrwt>0</asrwt>
<pdfrwt beam="1">  1        2 0.11475413E+00 0.58462159E+03</pdfrwt>
<pdfrwt beam="2">  1       -2 0.12081765E+00 0.58462159E+03</pdfrwt>
<totfact> 0.20357802E+01</totfact>
</mgrwt>
</event>
<event>
 4    1  0.4880711E-008  0.1096944E+04  0.7818608E-02  0.9208175E-01
          2   -1    0    0  501    0  0.00000000000E+00  0.00000000000E+00  0.47945798079E+04  0.47945798079E+04  0.25500000000E-02 0. -1.
         -2   -1    0    0    0  501 -0.00000000000E+00 -0.00000000000E+00 -0.70883399759E+03  0.70883399760E+03  0.25500000000E-02 0.  1.
    8880022    1    1    2    0    0  0.10738164609E+04  0.16374760421E+03 -0.16868868673E+03  0.11098389954E+04  0.15294330000E+03 0.  0.
    8880022    1    1    2    0    0 -0.10738164609E+04 -0.16374760421E+03  0.42544344970E+04  0.43935748101E+04  0.15294330000E+03 0.  0.
<mgrwt>
<rscale>  0 0.10969443E+04</rscale>
<asrwt>0</asrwt>
<pdfrwt beam="1">  1        2 0.73762767E+00 0.10969443E+04</pdfrwt>
<pdfrwt beam="2">  1       -2 0.10905138E+00 0.10969443E+04</pdfrwt>
<totfact> 0.43074612E-02</totfact>
</mgrwt>
</event>
<event>
 4    1  0.4880711E-008  0.5835228E+03  0.7818608E-02  0.9940193E-01
          2   -1    0    0  501    0  0.00000000000E+00  0.00000000000E+00  0.43411653022E+04  0.43411653022E+04  0.25500000000E-02 0. -1.
         -2   -1    0    0    0  501 -0.00000000000E+00 -0.00000000000E+00 -0.21127908496E+03  0.21127908497E+03  0.25500000000E-02 0.  1.
    8880022    1    1    2    0    0 -0.25707457573E+03 -0.50101886815E+03  0.26002433298E+03  0.63883609047E+03  0.15294330000E+03 0.  0.
    8880022    1    1    2    0    0  0.25707457573E+03  0.50101886815E+03  0.38698618843E+04  0.39136082967E+04  0.15294330000E+03 0. -1.
<mgrwt>
<rscale>  0 0.58352283E+03</rscale>
<asrwt>0</asrwt>
<pdfrwt beam="1">  1        2 0.66787150E+00 0.58352283E+03</pdfrwt>
<pdfrwt beam="2">  1       -2 0.32504479E-01 0.58352283E+03</pdfrwt>
<totfact> 0.18127556E+00</totfact>
</mgrwt>
</event>
<event>
 4    1  0.4880711E-008  0.4318279E+03  0.7818608E-02  0.1033284E+00
          2   -1    0    0  501    0  0.00000000000E+00  0.00000000000E+00  0.40684461657E+03  0.40684461658E+03  0.25500000000E-02 0. -1.
         -2   -1    0    0    0  501 -0.00000000000E+00 -0.00000000000E+00 -0.48794161709E+03  0.48794161710E+03  0.25500000000E-02 0.  1.
    8880022    1    1    2    0    0  0.34116112230E+03  0.21608501652E+03 -0.15073402586E+03  0.45737954185E+03  0.15294330000E+03 0.  0.
    8880022    1    1    2    0    0 -0.34116112230E+03 -0.21608501652E+03  0.69637025343E+02  0.43740669182E+03  0.15294330000E+03 0.  0.
<mgrwt>
<rscale>  0 0.43182786E+03</rscale>
<asrwt>0</asrwt>
<pdfrwt beam="1">  1        2 0.62591480E-01 0.43182786E+03</pdfrwt>
<pdfrwt beam="2">  1       -2 0.75067941E-01 0.43182786E+03</pdfrwt>
<totfact> 0.12785879E+02</totfact>
</mgrwt>
</event>
<event>
 4    1  0.4880711E-008  0.4004371E+03  0.7818608E-02  0.1043628E+00
          2   -1    0    0  501    0  0.00000000000E+00  0.00000000000E+00  0.70105783682E+03  0.70105783682E+03  0.25500000000E-02 0. -1.
         -2   -1    0    0    0  501 -0.00000000000E+00 -0.00000000000E+00 -0.49543339140E+03  0.49543339141E+03  0.25500000000E-02 0.  1.
    8880022    1    1    2    0    0 -0.31563118984E+03 -0.19322303571E+03  0.54175183415E+03  0.67368011129E+03  0.15294330000E+03 0. -1.
    8880022    1    1    2    0    0  0.31563118984E+03  0.19322303571E+03 -0.33612738873E+03  0.52281111694E+03  0.15294330000E+03 0.  0.
<mgrwt>
<rscale>  0 0.40043706E+03</rscale>
<asrwt>0</asrwt>
<pdfrwt beam="1">  1        2 0.10785505E+00 0.40043706E+03</pdfrwt>
<pdfrwt beam="2">  1       -2 0.76220522E-01 0.40043706E+03</pdfrwt>
<totfact> 0.65923169E+01</totfact>
</mgrwt>
</event>
<event>
 4    1  0.4880711E-008  0.4133726E+03  0.7818608E-02  0.1039245E+00
         -2   -1    0    0    0  501 -0.00000000000E+00  0.00000000000E+00  0.69973871923E+03  0.69973871923E+03  0.25500000000E-02 0.  1.
          2   -1    0    0  501    0  0.00000000000E+00 -0.00000000000E+00 -0.13774567469E+04  0.13774567469E+04  0.25500000000E-02 0. -1.
    8880022    1    1    2    0    0  0.34174525678E+03 -0.17520105090E+03 -0.12809055428E+04  0.13459553824E+04  0.15294330000E+03 0.  0.
    8880022    1    1    2    0    0 -0.34174525678E+03  0.17520105090E+03  0.60318751509E+03  0.73124008379E+03  0.15294330000E+03 0.  1.
<mgrwt>
<rscale>  0 0.41337257E+03</rscale>
<asrwt>0</asrwt>
<pdfrwt beam="1">  1        2 0.21191642E+00 0.41337257E+03</pdfrwt>
<pdfrwt beam="2">  1       -2 0.10765211E+00 0.41337257E+03</pdfrwt>
<totfact> 0.11193173E+01</totfact>
</mgrwt>
</event>
<event>
 4    1  0.4880711E-008  0.2350133E+03  0.7818608E-02  0.1123160E+00
         -2   -1    0    0    0  501 -0.00000000000E+00  0.00000000000E+00  0.48287886861E+03  0.48287886862E+03  0.25500000000E-02 0.  1.
          2   -1    0    0  501    0  0.00000000000E+00 -0.00000000000E+00 -0.51409797924E+03  0.51409797925E+03  0.25500000000E-02 0. -1.
    8880022    1    1    2    0    0  0.13562523198E+03 -0.11595425336E+03  0.42394163973E+03  0.48472441586E+03  0.15294330000E+03 0.  1.
    8880022    1    1    2    0    0 -0.13562523198E+03  0.11595425336E+03 -0.45516075035E+03  0.51225243201E+03  0.15294330000E+03 0.  0.
<mgrwt>
<rscale>  0 0.23501329E+03</rscale>
<asrwt>0</asrwt>
<pdfrwt beam="1">  1        2 0.79091997E-01 0.23501329E+03</pdfrwt>
<pdfrwt beam="2">  1       -2 0.74289057E-01 0.23501329E+03</pdfrwt>
<totfact> 0.10279266E+02</totfact>
</mgrwt>
</event>
<event>
 4    1  0.4880711E-008  0.4284823E+03  0.7818608E-02  0.1034340E+00
         -2   -1    0    0    0  501 -0.00000000000E+00  0.00000000000E+00  0.17655790574E+03  0.17655790576E+03  0.25500000000E-02 0.  1.
          2   -1    0    0  501    0  0.00000000000E+00 -0.00000000000E+00 -0.19618694648E+04  0.19618694648E+04  0.25500000000E-02 0. -1.
    8880022    1    1    2    0    0 -0.22722448360E+03 -0.32950632920E+03 -0.15967076540E+03  0.45726556099E+03  0.15294330000E+03 0.  0.
    8880022    1    1    2    0    0  0.22722448360E+03  0.32950632920E+03 -0.16256407936E+04  0.16811618095E+04  0.15294330000E+03 0.  0.
<mgrwt>
<rscale>  0 0.42848225E+03</rscale>
<asrwt>0</asrwt>
<pdfrwt beam="1">  1        2 0.30182606E+00 0.42848225E+03</pdfrwt>
<pdfrwt beam="2">  1       -2 0.27162756E-01 0.42848225E+03</pdfrwt>
<totfact> 0.92767419E+01</totfact>
</mgrwt>
</event>
<event>
 4    1  0.4880711E-008  0.5716051E+03  0.7818608E-02  0.9966133E-01
          2   -1    0    0  501    0  0.00000000000E+00  0.00000000000E+00  0.56118232878E+03  0.56118232879E+03  0.25500000000E-02 0. -1.
         -2   -1    0    0    0  501 -0.00000000000E+00 -0.00000000000E+00 -0.11735851239E+04  0.11735851239E+04  0.25500000000E-02 0.  1.
    8880022    1    1    2    0    0  0.42987666857E+03 -0.34430618545E+03 -0.92191864251E+03  0.10847425206E+04  0.15294330000E+03 0.  0.
    8880022    1    1    2    0    0 -0.42987666857E+03  0.34430618545E+03  0.30951584742E+03  0.65002493209E+03  0.15294330000E+03 0. -1.
<mgrwt>
<rscale>  0 0.57160507E+03</rscale>
<asrwt>0</asrwt>
<pdfrwt beam="1">  1        2 0.86335743E-01 0.57160507E+03</pdfrwt>
<pdfrwt beam="2">  1       -2 0.18055156E+00 0.57160507E+03</pdfrwt>
<totfact> 0.10043496E+01</totfact>
</mgrwt>
</event>
<event>
 4    1  0.4880711E-008  0.4581691E+03  0.7818608E-02  0.1025314E+00
          2   -1    0    0  501    0  0.00000000000E+00  0.00000000000E+00  0.20277013681E+04  0.20277013681E+04  0.25500000000E-02 0. -1.
         -2   -1    0    0    0  501 -0.00000000000E+00 -0.00000000000E+00 -0.46298852099E+03  0.46298852100E+03  0.25500000000E-02 0.  1.
    8880022    1    1    2    0    0 -0.24982731238E+02  0.43116487330E+03 -0.31495934114E+03  0.55598410446E+03  0.15294330000E+03 0.  0.
    8880022    1    1    2    0    0  0.24982731238E+02 -0.43116487330E+03  0.18796721882E+04  0.19347057846E+04  0.15294330000E+03 0.  0.
<mgrwt>
<rscale>  0 0.45816911E+03</rscale>
<asrwt>0</asrwt>
<pdfrwt beam="1">  1        2 0.31195405E+00 0.45816911E+03</pdfrwt>
<pdfrwt beam="2">  1       -2 0.71229004E-01 0.45816911E+03</pdfrwt>
<totfact> 0.12636726E+01</totfact>
</mgrwt>
</event>
<event>
 4    1  0.4880711E-008  0.3511655E+03  0.7818608E-02  0.1062138E+00
          2   -1    0    0  501    0  0.00000000000E+00  0.00000000000E+00  0.66030549547E+03  0.66030549547E+03  0.25500000000E-02 0. -1.
         -2   -1    0    0    0  501 -0.00000000000E+00 -0.00000000000E+00 -0.34163783451E+03  0.34163783452E+03  0.25500000000E-02 0.  1.
    8880022    1    1    2    0    0 -0.14617131929E+03 -0.28028463593E+03 -0.17797517562E+03  0.39369067537E+03  0.15294330000E+03 0.  0.
    8880022    1    1    2    0    0  0.14617131929E+03  0.28028463593E+03  0.49664283657E+03  0.60825265462E+03  0.15294330000E+03 0.  0.
<mgrwt>
<rscale>  0 0.35116547E+03</rscale>
<asrwt>0</asrwt>
<pdfrwt beam="1">  1        2 0.10158546E+00 0.35116547E+03</pdfrwt>
<pdfrwt beam="2">  1       -2 0.52559667E-01 0.35116547E+03</pdfrwt>
<totfact> 0.15659487E+02</totfact>
</mgrwt>
</event>
<event>
 4    1  0.4880711E-008  0.1851989E+03  0.7818608E-02  0.1162864E+00
          2   -1    0    0  501    0  0.00000000000E+00  0.00000000000E+00  0.10446832151E+03  0.10446832155E+03  0.25500000000E-02 0. -1.
         -2   -1    0    0    0  501 -0.00000000000E+00 -0.00000000000E+00 -0.12207615067E+04  0.12207615067E+04  0.25500000000E-02 0.  1.
    8880022    1    1    2    0    0 -0.10416157337E+03  0.75727061599E+01 -0.11246944767E+04  0.11398404705E+04  0.15294330000E+03 0.  0.
    8880022    1    1    2    0    0  0.10416157337E+03 -0.75727061599E+01  0.84012915382E+01  0.18538935773E+03  0.15294330000E+03 0.  0.
<mgrwt>
<rscale>  0 0.18519890E+03</rscale>
<asrwt>0</asrwt>
<pdfrwt beam="1">  1        2 0.16072050E-01 0.18519890E+03</pdfrwt>
<pdfrwt beam="2">  1       -2 0.18780945E+00 0.18519890E+03</pdfrwt>
<totfact> 0.62832131E+01</totfact>
</mgrwt>
</event>
<event>
 4    1  0.4880711E-008  0.4969557E+03  0.7818608E-02  0.1014577E+00
          2   -1    0    0  501    0  0.00000000000E+00  0.00000000000E+00  0.39389673314E+04  0.39389673314E+04  0.25500000000E-02 0. -1.
         -2   -1    0    0    0  501 -0.00000000000E+00 -0.00000000000E+00 -0.12285764434E+03  0.12285764436E+03  0.25500000000E-02 0.  1.
    8880022    1    1    2    0    0  0.30791817542E+03 -0.35883104512E+03  0.48689439047E+03  0.69572345238E+03  0.15294330000E+03 0.  0.
    8880022    1    1    2    0    0 -0.30791817542E+03  0.35883104512E+03  0.33292152966E+04  0.33661015234E+04  0.15294330000E+03 0.  0.
<mgrwt>
<rscale>  0 0.49695571E+03</rscale>
<asrwt>0</asrwt>
<pdfrwt beam="1">  1        2 0.60599493E+00 0.49695571E+03</pdfrwt>
<pdfrwt beam="2">  1       -2 0.18901177E-01 0.49695571E+03</pdfrwt>
<totfact> 0.10553361E+01</totfact>
</mgrwt>
</event>
<event>
 4    1  0.5077933E-008  0.6259507E+03  0.7818608E-02  0.9852983E-01
         -2   -1    0    0    0  501 -0.00000000000E+00  0.00000000000E+00  0.56037721237E+03  0.56037721237E+03  0.25500000000E-02 0.  1.
          2   -1    0    0  501    0  0.00000000000E+00 -0.00000000000E+00 -0.26437172776E+04  0.26437172776E+04  0.25500000000E-02 0. -1.
    8880022    1    1    2    0    0 -0.17570800172E+02  0.60672386250E+03 -0.24156298132E+04  0.24954121154E+04  0.15294330000E+03 0.  0.
    8880022    1    1    2    0    0  0.17570800172E+02 -0.60672386250E+03  0.33228974799E+03  0.70868237453E+03  0.15294330000E+03 0.  1.
<mgrwt>
<rscale>  0 0.62595066E+03</rscale>
<asrwt>0</asrwt>
<pdfrwt beam="1">  1        2 0.40672573E+00 0.62595066E+03</pdfrwt>
<pdfrwt beam="2">  1       -2 0.86211880E-01 0.62595066E+03</pdfrwt>
<totfact> 0.36215558E+00</totfact>
</mgrwt>
</event>
<event>
 4    1  0.4880711E-008  0.9737671E+03  0.7818608E-02  0.9337794E-01
         -2   -1    0    0    0  501 -0.00000000000E+00  0.00000000000E+00  0.60188504983E+03  0.60188504984E+03  0.25500000000E-02 0.  1.
          2   -1    0    0  501    0  0.00000000000E+00 -0.00000000000E+00 -0.19280981766E+04  0.19280981766E+04  0.25500000000E-02 0. -1.
    8880022    1    1    2    0    0 -0.73507418181E+03 -0.62007798571E+03 -0.12208860235E+03  0.98139087063E+03  0.15294330000E+03 0.  0.
    8880022    1    1    2    0    0  0.73507418181E+03  0.62007798571E+03 -0.12041245244E+04  0.15485923558E+04  0.15294330000E+03 0.  0.
<mgrwt>
<rscale>  0 0.97376713E+03</rscale>
<asrwt>0</asrwt>
<pdfrwt beam="1">  1        2 0.29663049E+00 0.97376713E+03</pdfrwt>
<pdfrwt beam="2">  1       -2 0.92597701E-01 0.97376713E+03</pdfrwt>
<totfact> 0.72712120E+00</totfact>
</mgrwt>
</event>
<event>
 4    1  0.4880711E-008  0.3564850E+03  0.7818608E-02  0.1059984E+00
          2   -1    0    0  501    0  0.00000000000E+00  0.00000000000E+00  0.44022549513E+04  0.44022549513E+04  0.25500000000E-02 0. -1.
         -2   -1    0    0    0  501 -0.00000000000E+00 -0.00000000000E+00 -0.93323572543E+02  0.93323572578E+02  0.25500000000E-02 0.  1.
    8880022    1    1    2    0    0  0.31546091550E+03  0.64608721021E+02  0.28639947041E+03  0.45728129823E+03  0.15294330000E+03 0.  0.
    8880022    1    1    2    0    0 -0.31546091550E+03 -0.64608721021E+02  0.40225319084E+04  0.40382972257E+04  0.15294330000E+03 0. -1.
<mgrwt>
<rscale>  0 0.35648496E+03</rscale>
<asrwt>0</asrwt>
<pdfrwt beam="1">  1        2 0.67727007E+00 0.35648496E+03</pdfrwt>
<pdfrwt beam="2">  1       -2 0.14357471E-01 0.35648496E+03</pdfrwt>
<totfact> 0.73523594E+00</totfact>
</mgrwt>
</event>
<event>
 4    1  0.4880711E-008  0.6812921E+03  0.7818608E-02  0.9749771E-01
          2   -1    0    0  501    0  0.00000000000E+00  0.00000000000E+00  0.47579562484E+04  0.47579562484E+04  0.25500000000E-02 0. -1.
         -2   -1    0    0    0  501 -0.00000000000E+00 -0.00000000000E+00 -0.26181471785E+03  0.26181471786E+03  0.25500000000E-02 0.  1.
    8880022    1    1    2    0    0 -0.65078222779E+03 -0.13133826016E+03  0.26003866202E+03  0.72923179123E+03  0.15294330000E+03 0.  0.
    8880022    1    1    2    0    0  0.65078222779E+03  0.13133826016E+03  0.42361028685E+04  0.42905391750E+04  0.15294330000E+03 0.  0.
<mgrwt>
<rscale>  0 0.68129208E+03</rscale>
<asrwt>0</asrwt>
<pdfrwt beam="1">  1        2 0.73199323E+00 0.68129208E+03</pdfrwt>
<pdfrwt beam="2">  1       -2 0.40279189E-01 0.68129208E+03</pdfrwt>
<totfact> 0.45807608E-01</totfact>
</mgrwt>
</event>
<event>
 4    1  0.4880711E-008  0.6076978E+03  0.7818608E-02  0.9889563E-01
         -2   -1    0    0    0  501 -0.00000000000E+00  0.00000000000E+00  0.43489800201E+03  0.43489800202E+03  0.25500000000E-02 0.  1.
          2   -1    0    0  501    0  0.00000000000E+00 -0.00000000000E+00 -0.14507656190E+04  0.14507656190E+04  0.25500000000E-02 0. -1.
    8880022    1    1    2    0    0 -0.45158870565E+03 -0.37679252519E+03  0.99211546842E+02  0.61574308778E+03  0.15294330000E+03 0.  0.
    8880022    1    1    2    0    0  0.45158870565E+03  0.37679252519E+03 -0.11150791638E+04  0.12699205332E+04  0.15294330000E+03 0.  0.
<mgrwt>
<rscale>  0 0.60769780E+03</rscale>
<asrwt>0</asrwt>
<pdfrwt beam="1">  1        2 0.22319471E+00 0.60769780E+03</pdfrwt>
<pdfrwt beam="2">  1       -2 0.66907385E-01 0.60769780E+03</pdfrwt>
<totfact> 0.28905871E+01</totfact>
</mgrwt>
</event>
<event>
 4    1  0.4880711E-008  0.5223602E+03  0.7818608E-02  0.1008102E+00
          2   -1    0    0  501    0  0.00000000000E+00  0.00000000000E+00  0.25668481492E+04  0.25668481492E+04  0.25500000000E-02 0. -1.
         -2   -1    0    0    0  501 -0.00000000000E+00 -0.00000000000E+00 -0.16307790652E+03  0.16307790654E+03  0.25500000000E-02 0.  1.
    8880022    1    1    2    0    0 -0.19174550529E+03  0.46119647189E+03  0.39649420824E+03  0.65579557384E+03  0.15294330000E+03 0.  0.
    8880022    1    1    2    0    0  0.19174550529E+03 -0.46119647189E+03  0.20072760345E+04  0.20741304819E+04  0.15294330000E+03 0.  0.
<mgrwt>
<rscale>  0 0.52236020E+03</rscale>
<asrwt>0</asrwt>
<pdfrwt beam="1">  1        2 0.39489968E+00 0.52236020E+03</pdfrwt>
<pdfrwt beam="2">  1       -2 0.25088911E-01 0.52236020E+03</pdfrwt>
<totfact> 0.49051787E+01</totfact>
</mgrwt>
</event>
<event>
 4    1  0.4880711E-008  0.5801899E+03  0.7818608E-02  0.9947380E-01
         -2   -1    0    0    0  501 -0.00000000000E+00  0.00000000000E+00  0.34403500607E+03  0.34403500608E+03  0.25500000000E-02 0.  1.
          2   -1    0    0  501    0  0.00000000000E+00 -0.00000000000E+00 -0.16539455416E+04  0.16539455416E+04  0.25500000000E-02 0. -1.
    8880022    1    1    2    0    0  0.44690073178E+03  0.33691010563E+03 -0.12933842131E+04  0.14175553107E+04  0.15294330000E+03 0.  0.
    8880022    1    1    2    0    0 -0.44690073178E+03 -0.33691010563E+03 -0.16526322451E+02  0.58042523695E+03  0.15294330000E+03 0.  0.
<mgrwt>
<rscale>  0 0.58018991E+03</rscale>
<asrwt>0</asrwt>
<pdfrwt beam="1">  1        2 0.25445315E+00 0.58018991E+03</pdfrwt>
<pdfrwt beam="2">  1       -2 0.52928464E-01 0.58018991E+03</pdfrwt>
<totfact> 0.36729110E+01</totfact>
</mgrwt>
</event>
<event>
 4    1  0.4880711E-008  0.1329080E+04  0.7818608E-02  0.9006817E-01
          2   -1    0    0  501    0  0.00000000000E+00  0.00000000000E+00  0.42885311492E+04  0.42885311492E+04  0.25500000000E-02 0. -1.
         -2   -1    0    0    0  501 -0.00000000000E+00 -0.00000000000E+00 -0.78353215833E+03  0.78353215834E+03  0.25500000000E-02 0.  1.
    8880022    1    1    2    0    0  0.12889448421E+04 -0.28580487922E+03  0.59468246980E+01  0.13290937712E+04  0.15294330000E+03 0.  0.
    8880022    1    1    2    0    0 -0.12889448421E+04  0.28580487922E+03  0.34990521662E+04  0.37429695363E+04  0.15294330000E+03 0.  0.
<mgrwt>
<rscale>  0 0.13290805E+04</rscale>
<asrwt>0</asrwt>
<pdfrwt beam="1">  1        2 0.65977400E+00 0.13290805E+04</pdfrwt>
<pdfrwt beam="2">  1       -2 0.12054341E+00 0.13290805E+04</pdfrwt>
<totfact> 0.10171428E-01</totfact>
</mgrwt>
</event>
<event>
 4    1  0.4880711E-008  0.8177336E+03  0.7818608E-02  0.9534697E-01
         -2   -1    0    0    0  501 -0.00000000000E+00  0.00000000000E+00  0.19937280954E+04  0.19937280954E+04  0.25500000000E-02 0.  1.
          2   -1    0    0  501    0  0.00000000000E+00 -0.00000000000E+00 -0.14185518799E+04  0.14185518799E+04  0.25500000000E-02 0. -1.
    8880022    1    1    2    0    0 -0.81451066589E+02 -0.79916351670E+03  0.17784504610E+04  0.19574407520E+04  0.15294330000E+03 0.  0.
    8880022    1    1    2    0    0  0.81451066589E+02  0.79916351670E+03 -0.12032742455E+04  0.14548392232E+04  0.15294330000E+03 0.  0.
<mgrwt>
<rscale>  0 0.81773361E+03</rscale>
<asrwt>0</asrwt>
<pdfrwt beam="1">  1        2 0.21823875E+00 0.81773361E+03</pdfrwt>
<pdfrwt beam="2">  1       -2 0.30672740E+00 0.81773361E+03</pdfrwt>
<totfact> 0.42441784E-01</totfact>
</mgrwt>
</event>
<event>
 4    1  0.4880711E-008  0.3679188E+03  0.7818608E-02  0.1055492E+00
          2   -1    0    0  501    0  0.00000000000E+00  0.00000000000E+00  0.80602736806E+03  0.80602736806E+03  0.25500000000E-02 0. -1.
         -2   -1    0    0    0  501 -0.00000000000E+00 -0.00000000000E+00 -0.63741655444E+03  0.63741655445E+03  0.25500000000E-02 0.  1.
    8880022    1    1    2    0    0  0.19342582208E+03 -0.27305496013E+03 -0.53508606166E+03  0.64936993024E+03  0.15294330000E+03 0.  0.
    8880022    1    1    2    0    0 -0.19342582208E+03  0.27305496013E+03  0.70369687529E+03  0.79407399227E+03  0.15294330000E+03 0.  0.
<mgrwt>
<rscale>  0 0.36791876E+03</rscale>
<asrwt>0</asrwt>
<pdfrwt beam="1">  1        2 0.12400421E+00 0.36791876E+03</pdfrwt>
<pdfrwt beam="2">  1       -2 0.98064086E-01 0.36791876E+03</pdfrwt>
<totfact> 0.31380391E+01</totfact>
</mgrwt>
</event>
<event>
 4    1  0.4880711E-008  0.4914554E+03  0.7818608E-02  0.1016034E+00
         -2   -1    0    0    0  501 -0.00000000000E+00  0.00000000000E+00  0.13288686745E+03  0.13288686747E+03  0.25500000000E-02 0.  1.
          2   -1    0    0  501    0  0.00000000000E+00 -0.00000000000E+00 -0.32211880913E+04  0.32211880913E+04  0.25500000000E-02 0. -1.
    8880022    1    1    2    0    0 -0.29981968435E+02 -0.46608781909E+03 -0.43711290273E+03  0.65772039370E+03  0.15294330000E+03 0.  0.
    8880022    1    1    2    0    0  0.29981968435E+02  0.46608781909E+03 -0.26511883212E+04  0.26963545651E+04  0.15294330000E+03 0.  0.
<mgrwt>
<rscale>  0 0.49145542E+03</rscale>
<asrwt>0</asrwt>
<pdfrwt beam="1">  1        2 0.49556734E+00 0.49145542E+03</pdfrwt>
<pdfrwt beam="2">  1       -2 0.20444136E-01 0.49145542E+03</pdfrwt>
<totfact> 0.28937016E+01</totfact>
</mgrwt>
</event>
<event>
 4    1  0.4880711E-008  0.3049015E+03  0.7818608E-02  0.1082816E+00
          2   -1    0    0  501    0  0.00000000000E+00  0.00000000000E+00  0.19808267307E+04  0.19808267307E+04  0.25500000000E-02 0. -1.
         -2   -1    0    0    0  501 -0.00000000000E+00 -0.00000000000E+00 -0.19857195609E+03  0.19857195611E+03  0.25500000000E-02 0.  1.
    8880022    1    1    2    0    0 -0.19673231714E+02  0.26303279921E+03  0.18433839877E+04  0.18684296799E+04  0.15294330000E+03 0. -1.
    8880022    1    1    2    0    0  0.19673231714E+02 -0.26303279921E+03 -0.61129213176E+02  0.31096900686E+03  0.15294330000E+03 0.  0.
<mgrwt>
<rscale>  0 0.30490153E+03</rscale>
<asrwt>0</asrwt>
<pdfrwt beam="1">  1        2 0.30474258E+00 0.30490153E+03</pdfrwt>
<pdfrwt beam="2">  1       -2 0.30549531E-01 0.30490153E+03</pdfrwt>
<totfact> 0.75271957E+01</totfact>
</mgrwt>
</event>
<event>
 4    1  0.4880711E-008  0.4152762E+03  0.7818608E-02  0.1038615E+00
          2   -1    0    0  501    0  0.00000000000E+00  0.00000000000E+00  0.70450840565E+03  0.70450840566E+03  0.25500000000E-02 0. -1.
         -2   -1    0    0    0  501 -0.00000000000E+00 -0.00000000000E+00 -0.25569461743E+03  0.25569461744E+03  0.25500000000E-02 0.  1.
    8880022    1    1    2    0    0 -0.16731973769E+03 -0.34794646593E+03  0.12524538781E+03  0.43375188525E+03  0.15294330000E+03 0.  0.
    8880022    1    1    2    0    0  0.16731973769E+03  0.34794646593E+03  0.32356840041E+03  0.52645113784E+03  0.15294330000E+03 0.  0.
<mgrwt>
<rscale>  0 0.41527616E+03</rscale>
<asrwt>0</asrwt>
<pdfrwt beam="1">  1        2 0.10838591E+00 0.41527616E+03</pdfrwt>
<pdfrwt beam="2">  1       -2 0.39337634E-01 0.41527616E+03</pdfrwt>
<totfact> 0.25511981E+02</totfact>
</mgrwt>
</event>
<event>
 4    1  0.4880711E-008  0.5130518E+03  0.7818608E-02  0.1010427E+00
          2   -1    0    0  501    0  0.00000000000E+00  0.00000000000E+00  0.32230010308E+03  0.32230010309E+03  0.25500000000E-02 0. -1.
         -2   -1    0    0    0  501 -0.00000000000E+00 -0.00000000000E+00 -0.12184221874E+04  0.12184221874E+04  0.25500000000E-02 0.  1.
    8880022    1    1    2    0    0  0.41856778221E+03  0.25422734111E+03 -0.89040378161E+03  0.10276385924E+04  0.15294330000E+03 0.  0.
    8880022    1    1    2    0    0 -0.41856778221E+03 -0.25422734111E+03 -0.57183027342E+01  0.51308369812E+03  0.15294330000E+03 0.  0.
<mgrwt>
<rscale>  0 0.51305183E+03</rscale>
<asrwt>0</asrwt>
<pdfrwt beam="1">  1        2 0.49584632E-01 0.51305183E+03</pdfrwt>
<pdfrwt beam="2">  1       -2 0.18744956E+00 0.51305183E+03</pdfrwt>
<totfact> 0.17019349E+01</totfact>
</mgrwt>
</event>
<event>
 4    1  0.4880711E-008  0.7007224E+03  0.7818608E-02  0.9715998E-01
          2   -1    0    0  501    0  0.00000000000E+00  0.00000000000E+00  0.11827728539E+04  0.11827728539E+04  0.25500000000E-02 0. -1.
         -2   -1    0    0    0  501 -0.00000000000E+00 -0.00000000000E+00 -0.63068244954E+03  0.63068244955E+03  0.25500000000E-02 0.  1.
    8880022    1    1    2    0    0 -0.45325190407E+03 -0.51203804577E+03  0.80612549668E+03  0.10681059022E+04  0.15294330000E+03 0.  0.
    8880022    1    1    2    0    0  0.45325190407E+03  0.51203804577E+03 -0.25403509230E+03  0.74534940129E+03  0.15294330000E+03 0.  0.
<mgrwt>
<rscale>  0 0.70072241E+03</rscale>
<asrwt>0</asrwt>
<pdfrwt beam="1">  1        2 0.18196505E+00 0.70072241E+03</pdfrwt>
<pdfrwt beam="2">  1       -2 0.97028069E-01 0.70072241E+03</pdfrwt>
<totfact> 0.17633130E+01</totfact>
</mgrwt>
</event>
<event>
 4    1  0.4880711E-008  0.3411627E+03  0.7818608E-02  0.1066302E+00
         -2   -1    0    0    0  501 -0.00000000000E+00  0.00000000000E+00  0.10178765014E+04  0.10178765014E+04  0.25500000000E-02 0.  1.
          2   -1    0    0  501    0  0.00000000000E+00 -0.00000000000E+00 -0.22764268177E+03  0.22764268178E+03  0.25500000000E-02 0. -1.
    8880022    1    1    2    0    0  0.30332365412E+03  0.31545419996E+02 -0.44220917063E+02  0.34401670772E+03  0.15294330000E+03 0.  0.
    8880022    1    1    2    0    0 -0.30332365412E+03 -0.31545419996E+02  0.83445473670E+03  0.90150247548E+03  0.15294330000E+03 0.  0.
<mgrwt>
<rscale>  0 0.34116273E+03</rscale>
<asrwt>0</asrwt>
<pdfrwt beam="1">  1        2 0.35021952E-01 0.34116273E+03</pdfrwt>
<pdfrwt beam="2">  1       -2 0.15659638E+00 0.34116273E+03</pdfrwt>
<totfact> 0.41812181E+01</totfact>
</mgrwt>
</event>
<event>
 4    1  0.4880711E-008  0.1147683E+04  0.7818608E-02  0.9159923E-01
          2   -1    0    0  501    0  0.00000000000E+00  0.00000000000E+00  0.29567093606E+04  0.29567093606E+04  0.25500000000E-02 0. -1.
         -2   -1    0    0    0  501 -0.00000000000E+00 -0.00000000000E+00 -0.49515580603E+03  0.49515580603E+03  0.25500000000E-02 0.  1.
    8880022    1    1    2    0    0  0.11120880627E+04 -0.23884268860E+03  0.17774051233E+04  0.21157377707E+04  0.15294330000E+03 0.  0.
    8880022    1    1    2    0    0 -0.11120880627E+04  0.23884268860E+03  0.68414843129E+03  0.13361273959E+04  0.15294330000E+03 0.  0.
<mgrwt>
<rscale>  0 0.11476835E+04</rscale>
<asrwt>0</asrwt>
<pdfrwt beam="1">  1        2 0.45487836E+00 0.11476835E+04</pdfrwt>
<pdfrwt beam="2">  1       -2 0.76177816E-01 0.11476835E+04</pdfrwt>
<totfact> 0.28579774E+00</totfact>
</mgrwt>
</event>
<event>
 4    1  0.4880711E-008  0.8968063E+03  0.7818608E-02  0.9429582E-01
          2   -1    0    0  501    0  0.00000000000E+00  0.00000000000E+00  0.21169937204E+04  0.21169937204E+04  0.25500000000E-02 0. -1.
         -2   -1    0    0    0  501 -0.00000000000E+00 -0.00000000000E+00 -0.66463554744E+03  0.66463554745E+03  0.25500000000E-02 0.  1.
    8880022    1    1    2    0    0 -0.88123378779E+03  0.65551287356E+02 -0.18413792420E+03  0.91551536752E+03  0.15294330000E+03 0.  0.
    8880022    1    1    2    0    0  0.88123378779E+03 -0.65551287356E+02  0.16364960972E+04  0.18661139004E+04  0.15294330000E+03 0.  0.
<mgrwt>
<rscale>  0 0.89680634E+03</rscale>
<asrwt>0</asrwt>
<pdfrwt beam="1">  1        2 0.32569134E+00 0.89680634E+03</pdfrwt>
<pdfrwt beam="2">  1       -2 0.10225162E+00 0.89680634E+03</pdfrwt>
<totfact> 0.45740956E+00</totfact>
</mgrwt>
</event>
<event>
 4    1  0.4880711E-008  0.1111103E+04  0.7818608E-02  0.9194438E-01
          2   -1    0    0  501    0  0.00000000000E+00  0.00000000000E+00  0.21500766724E+04  0.21500766724E+04  0.25500000000E-02 0. -1.
         -2   -1    0    0    0  501 -0.00000000000E+00 -0.00000000000E+00 -0.12519065284E+04  0.12519065284E+04  0.25500000000E-02 0.  1.
    8880022    1    1    2    0    0 -0.36433912859E+03  0.10384672457E+04  0.17006137329E+04  0.20314123025E+04  0.15294330000E+03 0.  0.
    8880022    1    1    2    0    0  0.36433912859E+03 -0.10384672457E+04 -0.80244358886E+03  0.13705708983E+04  0.15294330000E+03 0.  0.
<mgrwt>
<rscale>  0 0.11111025E+04</rscale>
<asrwt>0</asrwt>
<pdfrwt beam="1">  1        2 0.33078102E+00 0.11111025E+04</pdfrwt>
<pdfrwt beam="2">  1       -2 0.19260101E+00 0.11111025E+04</pdfrwt>
<totfact> 0.80718581E-01</totfact>
</mgrwt>
</event>
<event>
 4    1  0.4880711E-008  0.5441685E+03  0.7818608E-02  0.1002853E+00
          2   -1    0    0  501    0  0.00000000000E+00  0.00000000000E+00  0.16447052408E+04  0.16447052408E+04  0.25500000000E-02 0. -1.
         -2   -1    0    0    0  501 -0.00000000000E+00 -0.00000000000E+00 -0.49656840866E+03  0.49656840866E+03  0.25500000000E-02 0.  1.
    8880022    1    1    2    0    0  0.50974306177E+03 -0.11353267331E+03  0.14288521258E+04  0.15289662218E+04  0.15294330000E+03 0.  0.
    8880022    1    1    2    0    0 -0.50974306177E+03  0.11353267331E+03 -0.28071529363E+03  0.61230742771E+03  0.15294330000E+03 0.  0.
<mgrwt>
<rscale>  0 0.54416846E+03</rscale>
<asrwt>0</asrwt>
<pdfrwt beam="1">  1        2 0.25303158E+00 0.54416846E+03</pdfrwt>
<pdfrwt beam="2">  1       -2 0.76395139E-01 0.54416846E+03</pdfrwt>
<totfact> 0.17104046E+01</totfact>
</mgrwt>
</event>
<event>
 4    1  0.4880711E-008  0.3487077E+03  0.7818608E-02  0.1063147E+00
         -2   -1    0    0    0  501 -0.00000000000E+00  0.00000000000E+00  0.65228040376E+03  0.65228040376E+03  0.25500000000E-02 0.  1.
          2   -1    0    0  501    0  0.00000000000E+00 -0.00000000000E+00 -0.16915105013E+04  0.16915105013E+04  0.25500000000E-02 0. -1.
    8880022    1    1    2    0    0 -0.30105835630E+03  0.87001518117E+02  0.58581957239E+03  0.68174894386E+03  0.15294330000E+03 0.  1.
    8880022    1    1    2    0    0  0.30105835630E+03 -0.87001518117E+02 -0.16250496699E+04  0.16620419612E+04  0.15294330000E+03 0.  0.
<mgrwt>
<rscale>  0 0.34870769E+03</rscale>
<asrwt>0</asrwt>
<pdfrwt beam="1">  1        2 0.26023238E+00 0.34870769E+03</pdfrwt>
<pdfrwt beam="2">  1       -2 0.10035083E+00 0.34870769E+03</pdfrwt>
<totfact> 0.90945727E+00</totfact>
</mgrwt>
</event>
<event>
 4    1  0.4880711E-008  0.3850544E+03  0.7818608E-02  0.1049081E+00
          2   -1    0    0  501    0  0.00000000000E+00  0.00000000000E+00  0.17532437508E+04  0.17532437508E+04  0.25500000000E-02 0. -1.
         -2   -1    0    0    0  501 -0.00000000000E+00 -0.00000000000E+00 -0.19643977352E+03  0.19643977353E+03  0.25500000000E-02 0.  1.
    8880022    1    1    2    0    0 -0.16693381732E+03  0.31146161819E+03  0.42735025521E+02  0.38741860357E+03  0.15294330000E+03 0.  0.
    8880022    1    1    2    0    0  0.16693381732E+03 -0.31146161819E+03  0.15140689518E+04  0.15622649208E+04  0.15294330000E+03 0.  0.
<mgrwt>
<rscale>  0 0.38505440E+03</rscale>
<asrwt>0</asrwt>
<pdfrwt beam="1">  1        2 0.26972982E+00 0.38505440E+03</pdfrwt>
<pdfrwt beam="2">  1       -2 0.30221502E-01 0.38505440E+03</pdfrwt>
<totfact> 0.99501287E+01</totfact>
</mgrwt>
</event>
<event>
 4    1  0.4880711E-008  0.5377564E+03  0.7818608E-02  0.1004368E+00
         -2   -1    0    0    0  501 -0.00000000000E+00  0.00000000000E+00  0.47806855900E+03  0.47806855901E+03  0.25500000000E-02 0.  1.
          2   -1    0    0  501    0  0.00000000000E+00 -0.00000000000E+00 -0.64288665903E+03  0.64288665903E+03  0.25500000000E-02 0. -1.
    8880022    1    1    2    0    0 -0.57937620238E+02  0.51228260903E+03  0.53838242419E+02  0.54044467683E+03  0.15294330000E+03 0.  0.
    8880022    1    1    2    0    0  0.57937620238E+02 -0.51228260903E+03 -0.21865634244E+03  0.58051054121E+03  0.15294330000E+03 0.  0.
<mgrwt>
<rscale>  0 0.53775635E+03</rscale>
<asrwt>0</asrwt>
<pdfrwt beam="1">  1        2 0.98905640E-01 0.53775635E+03</pdfrwt>
<pdfrwt beam="2">  1       -2 0.73549009E-01 0.53775635E+03</pdfrwt>
<totfact> 0.78153176E+01</totfact>
</mgrwt>
</event>
<event>
 4    1  0.4880711E-008  0.2624615E+03  0.7818608E-02  0.1105673E+00
         -2   -1    0    0    0  501 -0.00000000000E+00  0.00000000000E+00  0.11271577952E+03  0.11271577955E+03  0.25500000000E-02 0.  1.
          2   -1    0    0  501    0  0.00000000000E+00 -0.00000000000E+00 -0.24308563870E+04  0.24308563870E+04  0.25500000000E-02 0. -1.
    8880022    1    1    2    0    0 -0.17903889197E+03  0.11592871176E+03 -0.22594315682E+04  0.22746245966E+04  0.15294330000E+03 0. -1.
    8880022    1    1    2    0    0  0.17903889197E+03 -0.11592871176E+03 -0.58709039212E+02  0.26894756989E+03  0.15294330000E+03 0.  0.
<mgrwt>
<rscale>  0 0.26246151E+03</rscale>
<asrwt>0</asrwt>
<pdfrwt beam="1">  1        2 0.37397787E+00 0.26246151E+03</pdfrwt>
<pdfrwt beam="2">  1       -2 0.17340891E-01 0.26246151E+03</pdfrwt>
<totfact> 0.11839710E+02</totfact>
</mgrwt>
</event>
<event>
 4    1  0.4880711E-008  0.2738679E+03  0.7818608E-02  0.1099086E+00
         -2   -1    0    0    0  501 -0.00000000000E+00  0.00000000000E+00  0.74412171206E+02  0.74412171250E+02  0.25500000000E-02 0.  1.
          2   -1    0    0  501    0  0.00000000000E+00 -0.00000000000E+00 -0.10701511722E+04  0.10701511722E+04  0.25500000000E-02 0. -1.
    8880022    1    1    2    0    0 -0.21778323486E+03 -0.64671840041E+02 -0.63584175135E+03  0.69231378006E+03  0.15294330000E+03 0.  1.
    8880022    1    1    2    0    0  0.21778323486E+03  0.64671840041E+02 -0.35989724965E+03  0.45224956341E+03  0.15294330000E+03 0. -1.
<mgrwt>
<rscale>  0 0.27386792E+03</rscale>
<asrwt>0</asrwt>
<pdfrwt beam="1">  1        2 0.16463863E+00 0.27386792E+03</pdfrwt>
<pdfrwt beam="2">  1       -2 0.11448027E-01 0.27386792E+03</pdfrwt>
<totfact> 0.12711766E+03</totfact>
</mgrwt>
</event>
<event>
 4    1  0.4880711E-008  0.2508544E+03  0.7818608E-02  0.1112766E+00
          2   -1    0    0  501    0  0.00000000000E+00  0.00000000000E+00  0.14837017466E+04  0.14837017466E+04  0.25500000000E-02 0. -1.
         -2   -1    0    0    0  501 -0.00000000000E+00 -0.00000000000E+00 -0.98006080674E+02  0.98006080707E+02  0.25500000000E-02 0.  1.
    8880022    1    1    2    0    0  0.72942949348E+02  0.18497455798E+03  0.12884839061E+04  0.13126761559E+04  0.15294330000E+03 0.  0.
    8880022    1    1    2    0    0 -0.72942949348E+02 -0.18497455798E+03  0.97211759823E+02  0.26903167141E+03  0.15294330000E+03 0.  0.
<mgrwt>
<rscale>  0 0.25085437E+03</rscale>
<asrwt>0</asrwt>
<pdfrwt beam="1">  1        2 0.22826181E+00 0.25085437E+03</pdfrwt>
<pdfrwt beam="2">  1       -2 0.15077858E-01 0.25085437E+03</pdfrwt>
<totfact> 0.47603916E+02</totfact>
</mgrwt>
</event>
<event>
 4    1  0.4880711E-008  0.4188050E+03  0.7818608E-02  0.1037456E+00
         -2   -1    0    0    0  501 -0.00000000000E+00  0.00000000000E+00  0.23414021873E+03  0.23414021874E+03  0.25500000000E-02 0.  1.
          2   -1    0    0  501    0  0.00000000000E+00 -0.00000000000E+00 -0.21291946106E+04  0.21291946106E+04  0.25500000000E-02 0. -1.
    8880022    1    1    2    0    0  0.37521010432E+03  0.10594043064E+03 -0.18988761648E+04  0.19445123655E+04  0.15294330000E+03 0. -1.
    8880022    1    1    2    0    0 -0.37521010432E+03 -0.10594043064E+03  0.38217729829E+01  0.41882246381E+03  0.15294330000E+03 0.  0.
<mgrwt>
<rscale>  0 0.41880503E+03</rscale>
<asrwt>0</asrwt>
<pdfrwt beam="1">  1        2 0.32756839E+00 0.41880503E+03</pdfrwt>
<pdfrwt beam="2">  1       -2 0.36021574E-01 0.41880503E+03</pdfrwt>
<totfact> 0.44827635E+01</totfact>
</mgrwt>
</event>
<event>
 4    1  0.4880711E-008  0.4306988E+03  0.7818608E-02  0.1033639E+00
         -2   -1    0    0    0  501 -0.00000000000E+00  0.00000000000E+00  0.26006844672E+03  0.26006844673E+03  0.25500000000E-02 0.  1.
          2   -1    0    0  501    0  0.00000000000E+00 -0.00000000000E+00 -0.24294901902E+04  0.24294901902E+04  0.25500000000E-02 0. -1.
    8880022    1    1    2    0    0 -0.10374715030E+03  0.38903255283E+03 -0.22149719372E+04  0.22564578733E+04  0.15294330000E+03 0. -1.
    8880022    1    1    2    0    0  0.10374715030E+03 -0.38903255283E+03  0.45550193657E+02  0.43310076370E+03  0.15294330000E+03 0.  0.
<mgrwt>
<rscale>  0 0.43069879E+03</rscale>
<asrwt>0</asrwt>
<pdfrwt beam="1">  1        2 0.37376771E+00 0.43069879E+03</pdfrwt>
<pdfrwt beam="2">  1       -2 0.40010532E-01 0.43069879E+03</pdfrwt>
<totfact> 0.25085757E+01</totfact>
</mgrwt>
</event>
<event>
 4    1  0.4880711E-008  0.5686514E+03  0.7818608E-02  0.9972667E-01
          2   -1    0    0  501    0  0.00000000000E+00  0.00000000000E+00  0.12148609186E+04  0.12148609186E+04  0.25500000000E-02 0. -1.
         -2   -1    0    0    0  501 -0.00000000000E+00 -0.00000000000E+00 -0.27248921612E+03  0.27248921613E+03  0.25500000000E-02 0.  1.
    8880022    1    1    2    0    0 -0.51093295232E+03 -0.19728215962E+03  0.35797115424E+03  0.67194325099E+03  0.15294330000E+03 0.  0.
    8880022    1    1    2    0    0  0.51093295232E+03  0.19728215962E+03  0.58440054826E+03  0.81540688376E+03  0.15294330000E+03 0.  0.
<mgrwt>
<rscale>  0 0.56865137E+03</rscale>
<asrwt>0</asrwt>
<pdfrwt beam="1">  1        2 0.18690168E+00 0.56865137E+03</pdfrwt>
<pdfrwt beam="2">  1       -2 0.41921418E-01 0.56865137E+03</pdfrwt>
<totfact> 0.10330190E+02</totfact>
</mgrwt>
</event>
<event>
 4    1  0.4880711E-008  0.5623332E+03  0.7818608E-02  0.9986789E-01
          2   -1    0    0  501    0  0.00000000000E+00  0.00000000000E+00  0.13091115507E+04  0.13091115507E+04  0.25500000000E-02 0. -1.
         -2   -1    0    0    0  501 -0.00000000000E+00 -0.00000000000E+00 -0.39001739649E+03  0.39001739650E+03  0.25500000000E-02 0.  1.
    8880022    1    1    2    0    0  0.95332730056E+02 -0.53267126648E+03  0.98371061897E+03  0.11330954251E+04  0.15294330000E+03 0.  0.
    8880022    1    1    2    0    0 -0.95332730056E+02  0.53267126648E+03 -0.64616464788E+02  0.56603352205E+03  0.15294330000E+03 0.  0.
<mgrwt>
<rscale>  0 0.56233323E+03</rscale>
<asrwt>0</asrwt>
<pdfrwt beam="1">  1        2 0.20140178E+00 0.56233323E+03</pdfrwt>
<pdfrwt beam="2">  1       -2 0.60002677E-01 0.56233323E+03</pdfrwt>
<totfact> 0.44067730E+01</totfact>
</mgrwt>
</event>
<event>
 4    1  0.4880711E-008  0.3376453E+03  0.7818608E-02  0.1067803E+00
         -2   -1    0    0    0  501 -0.00000000000E+00  0.00000000000E+00  0.18783352252E+03  0.18783352254E+03  0.25500000000E-02 0.  1.
          2   -1    0    0  501    0  0.00000000000E+00 -0.00000000000E+00 -0.15559609105E+04  0.15559609105E+04  0.25500000000E-02 0. -1.
    8880022    1    1    2    0    0 -0.58875449041E+02  0.29520566075E+03 -0.31328323094E+01  0.33765984110E+03  0.15294330000E+03 0.  0.
    8880022    1    1    2    0    0  0.58875449041E+02 -0.29520566075E+03 -0.13649945557E+04  0.14061345920E+04  0.15294330000E+03 0.  0.
<mgrwt>
<rscale>  0 0.33764531E+03</rscale>
<asrwt>0</asrwt>
<pdfrwt beam="1">  1        2 0.23937859E+00 0.33764531E+03</pdfrwt>
<pdfrwt beam="2">  1       -2 0.28897466E-01 0.33764531E+03</pdfrwt>
<totfact> 0.13895893E+02</totfact>
</mgrwt>
</event>
<event>
 4    1  0.4880711E-008  0.3083141E+03  0.7818608E-02  0.1081157E+00
         -2   -1    0    0    0  501 -0.00000000000E+00  0.00000000000E+00  0.80542048281E+02  0.80542048321E+02  0.25500000000E-02 0.  1.
          2   -1    0    0  501    0  0.00000000000E+00 -0.00000000000E+00 -0.17759664400E+04  0.17759664400E+04  0.25500000000E-02 0. -1.
    8880022    1    1    2    0    0  0.99077934746E+02 -0.24869552335E+03 -0.31008737494E+03  0.43727763904E+03  0.15294330000E+03 0.  0.
    8880022    1    1    2    0    0 -0.99077934746E+02  0.24869552335E+03 -0.13853370168E+04  0.14192308493E+04  0.15294330000E+03 0. -1.
<mgrwt>
<rscale>  0 0.30831405E+03</rscale>
<asrwt>0</asrwt>
<pdfrwt beam="1">  1        2 0.27322558E+00 0.30831405E+03</pdfrwt>
<pdfrwt beam="2">  1       -2 0.12391086E-01 0.30831405E+03</pdfrwt>
<totfact> 0.45595952E+02</totfact>
</mgrwt>
</event>
<event>
 4    1  0.4880711E-008  0.8533417E+03  0.7818608E-02  0.9485863E-01
         -2   -1    0    0    0  501 -0.00000000000E+00  0.00000000000E+00  0.86748135519E+03  0.86748135520E+03  0.25500000000E-02 0.  1.
          2   -1    0    0  501    0  0.00000000000E+00 -0.00000000000E+00 -0.10417137222E+04  0.10417137222E+04  0.25500000000E-02 0. -1.
    8880022    1    1    2    0    0  0.47474800506E+03  0.69239777358E+03 -0.50776915128E+03  0.99298615760E+03  0.15294330000E+03 0.  0.
    8880022    1    1    2    0    0 -0.47474800506E+03 -0.69239777358E+03  0.33353678431E+03  0.91620891977E+03  0.15294330000E+03 0.  0.
<mgrwt>
<rscale>  0 0.85334167E+03</rscale>
<asrwt>0</asrwt>
<pdfrwt beam="1">  1        2 0.16026365E+00 0.85334167E+03</pdfrwt>
<pdfrwt beam="2">  1       -2 0.13345867E+00 0.85334167E+03</pdfrwt>
<totfact> 0.96840528E+00</totfact>
</mgrwt>
</event>
<event>
 4    1  0.4880711E-008  0.9099043E+03  0.7818608E-02  0.9413285E-01
          2   -1    0    0  501    0  0.00000000000E+00  0.00000000000E+00  0.17090394492E+04  0.17090394492E+04  0.25500000000E-02 0. -1.
         -2   -1    0    0    0  501 -0.00000000000E+00 -0.00000000000E+00 -0.64650849227E+03  0.64650849227E+03  0.25500000000E-02 0.  1.
    8880022    1    1    2    0    0 -0.70012579528E+03 -0.56067640081E+03 -0.58426364633E+02  0.91177817956E+03  0.15294330000E+03 0.  0.
    8880022    1    1    2    0    0  0.70012579528E+03  0.56067640081E+03  0.11209573216E+04  0.14437697619E+04  0.15294330000E+03 0.  0.
<mgrwt>
<rscale>  0 0.90990429E+03</rscale>
<asrwt>0</asrwt>
<pdfrwt beam="1">  1        2 0.26292914E+00 0.90990429E+03</pdfrwt>
<pdfrwt beam="2">  1       -2 0.99462847E-01 0.90990429E+03</pdfrwt>
<totfact> 0.81708195E+00</totfact>
</mgrwt>
</event>
<event>
 4    1  0.4880711E-008  0.2977393E+03  0.7818608E-02  0.1086376E+00
          2   -1    0    0  501    0  0.00000000000E+00  0.00000000000E+00  0.51148779924E+03  0.51148779925E+03  0.25500000000E-02 0. -1.
         -2   -1    0    0    0  501 -0.00000000000E+00 -0.00000000000E+00 -0.61867283295E+03  0.61867283295E+03  0.25500000000E-02 0.  1.
    8880022    1    1    2    0    0 -0.25395936113E+03 -0.27598970549E+02 -0.53303223383E+03  0.61055063311E+03  0.15294330000E+03 0.  0.
    8880022    1    1    2    0    0  0.25395936113E+03  0.27598970549E+02  0.42584720012E+03  0.51960999909E+03  0.15294330000E+03 0.  0.
<mgrwt>
<rscale>  0 0.29773934E+03</rscale>
<asrwt>0</asrwt>
<pdfrwt beam="1">  1        2 0.78690431E-01 0.29773934E+03</pdfrwt>
<pdfrwt beam="2">  1       -2 0.95180436E-01 0.29773934E+03</pdfrwt>
<totfact> 0.58814636E+01</totfact>
</mgrwt>
</event>
<event>
 4    1  0.4880711E-008  0.6567967E+03  0.7818608E-02  0.9794109E-01
         -2   -1    0    0    0  501 -0.00000000000E+00  0.00000000000E+00  0.38159941084E+03  0.38159941085E+03  0.25500000000E-02 0.  1.
          2   -1    0    0  501    0  0.00000000000E+00 -0.00000000000E+00 -0.23324074975E+04  0.23324074975E+04  0.25500000000E-02 0. -1.
    8880022    1    1    2    0    0 -0.59113202050E+03 -0.24197777485E+03 -0.12628306090E+01  0.65679795747E+03  0.15294330000E+03 0.  0.
    8880022    1    1    2    0    0  0.59113202050E+03  0.24197777485E+03 -0.19495452561E+04  0.20572089509E+04  0.15294330000E+03 0.  0.
<mgrwt>
<rscale>  0 0.65679674E+03</rscale>
<asrwt>0</asrwt>
<pdfrwt beam="1">  1        2 0.35883191E+00 0.65679674E+03</pdfrwt>
<pdfrwt beam="2">  1       -2 0.58707603E-01 0.65679674E+03</pdfrwt>
<totfact> 0.12490741E+01</totfact>
</mgrwt>
</event>
<event>
 4    1  0.4880711E-008  0.1047575E+04  0.7818608E-02  0.9257851E-01
         -2   -1    0    0    0  501 -0.00000000000E+00  0.00000000000E+00  0.29553913931E+03  0.29553913932E+03  0.25500000000E-02 0.  1.
          2   -1    0    0  501    0  0.00000000000E+00 -0.00000000000E+00 -0.38668274899E+04  0.38668274899E+04  0.25500000000E-02 0. -1.
    8880022    1    1    2    0    0  0.98559673979E+03  0.32034601769E+03 -0.22003882789E+04  0.24370315417E+04  0.15294330000E+03 0.  0.
    8880022    1    1    2    0    0 -0.98559673979E+03 -0.32034601769E+03 -0.13709000718E+04  0.17253350875E+04  0.15294330000E+03 0.  0.
<mgrwt>
<rscale>  0 0.10475754E+04</rscale>
<asrwt>0</asrwt>
<pdfrwt beam="1">  1        2 0.59489650E+00 0.10475754E+04</pdfrwt>
<pdfrwt beam="2">  1       -2 0.45467563E-01 0.10475754E+04</pdfrwt>
<totfact> 0.20842435E+00</totfact>
</mgrwt>
</event>
<event>
 4    1  0.4880711E-008  0.3729814E+03  0.7818608E-02  0.1053559E+00
         -2   -1    0    0    0  501 -0.00000000000E+00  0.00000000000E+00  0.10782279512E+03  0.10782279515E+03  0.25500000000E-02 0.  1.
          2   -1    0    0  501    0  0.00000000000E+00 -0.00000000000E+00 -0.23584998523E+04  0.23584998523E+04  0.25500000000E-02 0. -1.
    8880022    1    1    2    0    0  0.31185682651E+03  0.13589984568E+03 -0.29540265843E+03  0.47579179471E+03  0.15294330000E+03 0.  0.
    8880022    1    1    2    0    0 -0.31185682651E+03 -0.13589984568E+03 -0.19552743988E+04  0.19905308528E+04  0.15294330000E+03 0.  0.
<mgrwt>
<rscale>  0 0.37298137E+03</rscale>
<asrwt>0</asrwt>
<pdfrwt beam="1">  1        2 0.36284609E+00 0.37298137E+03</pdfrwt>
<pdfrwt beam="2">  1       -2 0.16588124E-01 0.37298137E+03</pdfrwt>
<totfact> 0.13564443E+02</totfact>
</mgrwt>
</event>
<event>
 4    1  0.4880711E-008  0.8954337E+03  0.7818608E-02  0.9431308E-01
         -2   -1    0    0    0  501 -0.00000000000E+00  0.00000000000E+00  0.58020057099E+03  0.58020057099E+03  0.25500000000E-02 0.  1.
          2   -1    0    0  501    0  0.00000000000E+00 -0.00000000000E+00 -0.22412727182E+04  0.22412727182E+04  0.25500000000E-02 0. -1.
    8880022    1    1    2    0    0 -0.84945747591E+03  0.23839426946E+03  0.42997613338E+02  0.89646543651E+03  0.15294330000E+03 0.  0.
    8880022    1    1    2    0    0  0.84945747591E+03 -0.23839426946E+03 -0.17040697606E+04  0.19250078527E+04  0.15294330000E+03 0.  0.
<mgrwt>
<rscale>  0 0.89543368E+03</rscale>
<asrwt>0</asrwt>
<pdfrwt beam="1">  1        2 0.34481118E+00 0.89543368E+03</pdfrwt>
<pdfrwt beam="2">  1       -2 0.89261628E-01 0.89543368E+03</pdfrwt>
<totfact> 0.53719664E+00</totfact>
</mgrwt>
</event>
<event>
 4    1  0.4880711E-008  0.2803942E+03  0.7818608E-02  0.1095474E+00
          2   -1    0    0  501    0  0.00000000000E+00  0.00000000000E+00  0.21744085114E+04  0.21744085114E+04  0.25500000000E-02 0. -1.
         -2   -1    0    0    0  501 -0.00000000000E+00 -0.00000000000E+00 -0.52039200153E+02  0.52039200215E+02  0.25500000000E-02 0.  1.
    8880022    1    1    2    0    0 -0.71350055398E+02  0.22391614935E+03  0.16761735439E+04  0.16994642316E+04  0.15294330000E+03 0.  0.
    8880022    1    1    2    0    0  0.71350055398E+02 -0.22391614935E+03  0.44619576731E+03  0.52698347994E+03  0.15294330000E+03 0.  0.
<mgrwt>
<rscale>  0 0.28039423E+03</rscale>
<asrwt>0</asrwt>
<pdfrwt beam="1">  1        2 0.33452432E+00 0.28039423E+03</pdfrwt>
<pdfrwt beam="2">  1       -2 0.80060324E-02 0.28039423E+03</pdfrwt>
<totfact> 0.56703184E+02</totfact>
</mgrwt>
</event>
<event>
 4    1  0.4880711E-008  0.2311577E+03  0.7818608E-02  0.1125828E+00
         -2   -1    0    0    0  501 -0.00000000000E+00  0.00000000000E+00  0.10072731552E+03  0.10072731556E+03  0.25500000000E-02 0.  1.
          2   -1    0    0  501    0  0.00000000000E+00 -0.00000000000E+00 -0.15249750850E+04  0.15249750850E+04  0.25500000000E-02 0. -1.
    8880022    1    1    2    0    0  0.16296935921E+03 -0.59018644974E+02 -0.13685425367E+04  0.13879274261E+04  0.15294330000E+03 0.  0.
    8880022    1    1    2    0    0 -0.16296935921E+03  0.59018644974E+02 -0.55705232821E+02  0.23777497445E+03  0.15294330000E+03 0.  0.
<mgrwt>
<rscale>  0 0.23115766E+03</rscale>
<asrwt>0</asrwt>
<pdfrwt beam="1">  1        2 0.23461153E+00 0.23115766E+03</pdfrwt>
<pdfrwt beam="2">  1       -2 0.15496511E-01 0.23115766E+03</pdfrwt>
<totfact> 0.43375830E+02</totfact>
</mgrwt>
</event>
<event>
 4    1  0.4880711E-008  0.1403419E+04  0.7818608E-02  0.8951348E-01
         -2   -1    0    0    0  501 -0.00000000000E+00  0.00000000000E+00  0.25147676692E+04  0.25147676692E+04  0.25500000000E-02 0.  1.
          2   -1    0    0  501    0  0.00000000000E+00 -0.00000000000E+00 -0.16849787238E+04  0.16849787238E+04  0.25500000000E-02 0. -1.
    8880022    1    1    2    0    0 -0.13856141468E+04 -0.16206774318E+03  0.19510815786E+04  0.24033941617E+04  0.15294330000E+03 0.  0.
    8880022    1    1    2    0    0  0.13856141468E+04  0.16206774318E+03 -0.11212926332E+04  0.17963522314E+04  0.15294330000E+03 0.  0.
<mgrwt>
<rscale>  0 0.14034187E+04</rscale>
<asrwt>0</asrwt>
<pdfrwt beam="1">  1        2 0.25922750E+00 0.14034187E+04</pdfrwt>
<pdfrwt beam="2">  1       -2 0.38688734E+00 0.14034187E+04</pdfrwt>
<totfact> 0.86134417E-02</totfact>
</mgrwt>
</event>
<event>
 4    1  0.4880711E-008  0.6785203E+03  0.7818608E-02  0.9754687E-01
         -2   -1    0    0    0  501 -0.00000000000E+00  0.00000000000E+00  0.26664243268E+03  0.26664243269E+03  0.25500000000E-02 0.  1.
          2   -1    0    0  501    0  0.00000000000E+00 -0.00000000000E+00 -0.32445994129E+04  0.32445994129E+04  0.25500000000E-02 0. -1.
    8880022    1    1    2    0    0 -0.21974247216E+02 -0.66069303056E+03 -0.26898134888E+04  0.27740739727E+04  0.15294330000E+03 0.  0.
    8880022    1    1    2    0    0  0.21974247216E+02  0.66069303056E+03 -0.28814349136E+03  0.73716787288E+03  0.15294330000E+03 0.  0.
<mgrwt>
<rscale>  0 0.67852030E+03</rscale>
<asrwt>0</asrwt>
<pdfrwt beam="1">  1        2 0.49916911E+00 0.67852030E+03</pdfrwt>
<pdfrwt beam="2">  1       -2 0.41021915E-01 0.67852030E+03</pdfrwt>
<totfact> 0.74259024E+00</totfact>
</mgrwt>
</event>
<event>
 4    1  0.4880711E-008  0.9927483E+03  0.7818608E-02  0.9316534E-01
          2   -1    0    0  501    0  0.00000000000E+00  0.00000000000E+00  0.26261703709E+04  0.26261703709E+04  0.25500000000E-02 0. -1.
         -2   -1    0    0    0  501 -0.00000000000E+00 -0.00000000000E+00 -0.81441224491E+03  0.81441224492E+03  0.25500000000E-02 0.  1.
    8880022    1    1    2    0    0 -0.42908267961E+03  0.88206892771E+03 -0.35733664139E+03  0.10551012593E+04  0.15294330000E+03 0.  0.
    8880022    1    1    2    0    0  0.42908267961E+03 -0.88206892771E+03  0.21690947674E+04  0.23854813565E+04  0.15294330000E+03 0.  0.
<mgrwt>
<rscale>  0 0.99274830E+03</rscale>
<asrwt>0</asrwt>
<pdfrwt beam="1">  1        2 0.40402622E+00 0.99274830E+03</pdfrwt>
<pdfrwt beam="2">  1       -2 0.12529419E+00 0.99274830E+03</pdfrwt>
<totfact> 0.14146337E+00</totfact>
</mgrwt>
</event>
<event>
 4    1  0.4880711E-008  0.9146286E+03  0.7818608E-02  0.9407477E-01
          2   -1    0    0  501    0  0.00000000000E+00  0.00000000000E+00  0.77415245204E+03  0.77415245204E+03  0.25500000000E-02 0. -1.
         -2   -1    0    0    0  501 -0.00000000000E+00 -0.00000000000E+00 -0.21204164317E+04  0.21204164317E+04  0.25500000000E-02 0.  1.
    8880022    1    1    2    0    0  0.60271714436E+03  0.67073537894E+03 -0.16866293394E+04  0.19186620563E+04  0.15294330000E+03 0.  0.
    8880022    1    1    2    0    0 -0.60271714436E+03 -0.67073537894E+03  0.34036535978E+03  0.97590682743E+03  0.15294330000E+03 0.  0.
<mgrwt>
<rscale>  0 0.91462864E+03</rscale>
<asrwt>0</asrwt>
<pdfrwt beam="1">  1        2 0.11910038E+00 0.91462864E+03</pdfrwt>
<pdfrwt beam="2">  1       -2 0.32621791E+00 0.91462864E+03</pdfrwt>
<totfact> 0.80526755E-01</totfact>
</mgrwt>
</event>
<event>
 4    1  0.4880711E-008  0.3956742E+03  0.7818608E-02  0.1045288E+00
         -2   -1    0    0    0  501 -0.00000000000E+00  0.00000000000E+00  0.61038506308E+03  0.61038506309E+03  0.25500000000E-02 0.  1.
          2   -1    0    0  501    0  0.00000000000E+00 -0.00000000000E+00 -0.24086448561E+04  0.24086448561E+04  0.25500000000E-02 0. -1.
    8880022    1    1    2    0    0 -0.36059117441E+03  0.56039787504E+02 -0.23260107884E+04  0.23594245683E+04  0.15294330000E+03 0. -1.
    8880022    1    1    2    0    0  0.36059117441E+03 -0.56039787504E+02  0.52775099534E+03  0.65960535091E+03  0.15294330000E+03 0.  0.
<mgrwt>
<rscale>  0 0.39567424E+03</rscale>
<asrwt>0</asrwt>
<pdfrwt beam="1">  1        2 0.37056074E+00 0.39567424E+03</pdfrwt>
<pdfrwt beam="2">  1       -2 0.93905396E-01 0.39567424E+03</pdfrwt>
<totfact> 0.43079062E+00</totfact>
</mgrwt>
</event>
<event>
 4    1  0.4880711E-008  0.6945352E+03  0.7818608E-02  0.9726624E-01
         -2   -1    0    0    0  501 -0.00000000000E+00  0.00000000000E+00  0.23697689210E+03  0.23697689211E+03  0.25500000000E-02 0.  1.
          2   -1    0    0  501    0  0.00000000000E+00 -0.00000000000E+00 -0.25674510263E+04  0.25674510263E+04  0.25500000000E-02 0. -1.
    8880022    1    1    2    0    0  0.61344704116E+03  0.28752425640E+03 -0.18034670751E+04  0.19325818519E+04  0.15294330000E+03 0.  0.
    8880022    1    1    2    0    0 -0.61344704116E+03 -0.28752425640E+03 -0.52700705910E+03  0.87184606651E+03  0.15294330000E+03 0.  0.
<mgrwt>
<rscale>  0 0.69453519E+03</rscale>
<asrwt>0</asrwt>
<pdfrwt beam="1">  1        2 0.39499245E+00 0.69453519E+03</pdfrwt>
<pdfrwt beam="2">  1       -2 0.36457985E-01 0.69453519E+03</pdfrwt>
<totfact> 0.23776000E+01</totfact>
</mgrwt>
</event>
<event>
 4    1  0.4880711E-008  0.7891544E+03  0.7818608E-02  0.9575850E-01
         -2   -1    0    0    0  501 -0.00000000000E+00  0.00000000000E+00  0.40009128670E+03  0.40009128671E+03  0.25500000000E-02 0.  1.
          2   -1    0    0  501    0  0.00000000000E+00 -0.00000000000E+00 -0.20370217531E+04  0.20370217531E+04  0.25500000000E-02 0. -1.
    8880022    1    1    2    0    0 -0.48984825422E+03  0.59951794541E+03 -0.22666001150E+03  0.82105998128E+03  0.15294330000E+03 0.  1.
    8880022    1    1    2    0    0  0.48984825422E+03 -0.59951794541E+03 -0.14102704549E+04  0.16160530585E+04  0.15294330000E+03 0.  0.
<mgrwt>
<rscale>  0 0.78915444E+03</rscale>
<asrwt>0</asrwt>
<pdfrwt beam="1">  1        2 0.31338796E+00 0.78915444E+03</pdfrwt>
<pdfrwt beam="2">  1       -2 0.61552507E-01 0.78915444E+03</pdfrwt>
<totfact> 0.16096210E+01</totfact>
</mgrwt>
</event>
<event>
 4    1  0.4880711E-008  0.9841997E+03  0.7818608E-02  0.9326046E-01
         -2   -1    0    0    0  501 -0.00000000000E+00  0.00000000000E+00  0.13215134309E+04  0.13215134309E+04  0.25500000000E-02 0.  1.
          2   -1    0    0  501    0  0.00000000000E+00 -0.00000000000E+00 -0.97938690892E+03  0.97938690893E+03  0.25500000000E-02 0. -1.
    8880022    1    1    2    0    0 -0.85771534835E+03 -0.45780094623E+03 -0.40598622968E+03  0.10646472641E+04  0.15294330000E+03 0.  0.
    8880022    1    1    2    0    0  0.85771534835E+03  0.45780094623E+03  0.74811275166E+03  0.12362530758E+04  0.15294330000E+03 0.  0.
<mgrwt>
<rscale>  0 0.98419966E+03</rscale>
<asrwt>0</asrwt>
<pdfrwt beam="1">  1        2 0.15067491E+00 0.98419966E+03</pdfrwt>
<pdfrwt beam="2">  1       -2 0.20330976E+00 0.98419966E+03</pdfrwt>
<totfact> 0.32671760E+00</totfact>
</mgrwt>
</event>
<event>
 4    1  0.4880711E-008  0.5274395E+03  0.7818608E-02  0.1006855E+00
          2   -1    0    0  501    0  0.00000000000E+00  0.00000000000E+00  0.16027904408E+03  0.16027904411E+03  0.25500000000E-02 0. -1.
         -2   -1    0    0    0  501 -0.00000000000E+00 -0.00000000000E+00 -0.20127209732E+04  0.20127209732E+04  0.25500000000E-02 0.  1.
    8880022    1    1    2    0    0  0.46414151976E+03 -0.19842742933E+03 -0.52312050714E+03  0.74286439751E+03  0.15294330000E+03 0.  0.
    8880022    1    1    2    0    0 -0.46414151976E+03  0.19842742933E+03 -0.13293214220E+04  0.14301356198E+04  0.15294330000E+03 0.  0.
<mgrwt>
<rscale>  0 0.52743952E+03</rscale>
<asrwt>0</asrwt>
<pdfrwt beam="1">  1        2 0.24658316E-01 0.52743952E+03</pdfrwt>
<pdfrwt beam="2">  1       -2 0.30964936E+00 0.52743952E+03</pdfrwt>
<totfact> 0.66346476E+00</totfact>
</mgrwt>
</event>
<event>
 4    1  0.4880711E-008  0.6537599E+03  0.7818608E-02  0.9799750E-01
          2   -1    0    0  501    0  0.00000000000E+00  0.00000000000E+00  0.33056810336E+04  0.33056810336E+04  0.25500000000E-02 0. -1.
         -2   -1    0    0    0  501 -0.00000000000E+00 -0.00000000000E+00 -0.18866685645E+03  0.18866685647E+03  0.25500000000E-02 0.  1.
    8880022    1    1    2    0    0  0.55848702133E+03 -0.30348402837E+03  0.57837328981E+03  0.87287892852E+03  0.15294330000E+03 0.  0.
    8880022    1    1    2    0    0 -0.55848702133E+03  0.30348402837E+03  0.25386408873E+04  0.26214689616E+04  0.15294330000E+03 0.  0.
<mgrwt>
<rscale>  0 0.65375987E+03</rscale>
<asrwt>0</asrwt>
<pdfrwt beam="1">  1        2 0.50856631E+00 0.65375987E+03</pdfrwt>
<pdfrwt beam="2">  1       -2 0.29025670E-01 0.65375987E+03</pdfrwt>
<totfact> 0.13142373E+01</totfact>
</mgrwt>
</event>
<event>
 4    1  0.4880711E-008  0.3948193E+03  0.7818608E-02  0.1045588E+00
         -2   -1    0    0    0  501 -0.00000000000E+00  0.00000000000E+00  0.13710302625E+03  0.13710302628E+03  0.25500000000E-02 0.  1.
          2   -1    0    0  501    0  0.00000000000E+00 -0.00000000000E+00 -0.15351091799E+04  0.15351091799E+04  0.25500000000E-02 0. -1.
    8880022    1    1    2    0    0 -0.28262472297E+03  0.22937717790E+03 -0.27320055685E+03  0.48012583877E+03  0.15294330000E+03 0.  0.
    8880022    1    1    2    0    0  0.28262472297E+03 -0.22937717790E+03 -0.11248055968E+04  0.11920863674E+04  0.15294330000E+03 0.  0.
<mgrwt>
<rscale>  0 0.39481930E+03</rscale>
<asrwt>0</asrwt>
<pdfrwt beam="1">  1        2 0.23617063E+00 0.39481930E+03</pdfrwt>
<pdfrwt beam="2">  1       -2 0.21092774E-01 0.39481930E+03</pdfrwt>
<totfact> 0.24743756E+02</totfact>
</mgrwt>
</event>
<event>
 4    1  0.4880711E-008  0.3527559E+03  0.7818608E-02  0.1061490E+00
          2   -1    0    0  501    0  0.00000000000E+00  0.00000000000E+00  0.18898285672E+04  0.18898285672E+04  0.25500000000E-02 0. -1.
         -2   -1    0    0    0  501 -0.00000000000E+00 -0.00000000000E+00 -0.51906873464E+03  0.51906873465E+03  0.25500000000E-02 0.  1.
    8880022    1    1    2    0    0  0.31417031657E+03 -0.48394911134E+02 -0.44008493642E+03  0.56401370508E+03  0.15294330000E+03 0.  1.
    8880022    1    1    2    0    0 -0.31417031657E+03  0.48394911134E+02  0.18108447690E+04  0.18448835968E+04  0.15294330000E+03 0.  0.
<mgrwt>
<rscale>  0 0.35275588E+03</rscale>
<asrwt>0</asrwt>
<pdfrwt beam="1">  1        2 0.29074286E+00 0.35275588E+03</pdfrwt>
<pdfrwt beam="2">  1       -2 0.79856726E-01 0.35275588E+03</pdfrwt>
<totfact> 0.11994448E+01</totfact>
</mgrwt>
</event>
<event>
 4    1  0.4880711E-008  0.4055162E+03  0.7818608E-02  0.1041886E+00
          2   -1    0    0  501    0  0.00000000000E+00  0.00000000000E+00  0.27180344303E+04  0.27180344303E+04  0.25500000000E-02 0. -1.
         -2   -1    0    0    0  501 -0.00000000000E+00 -0.00000000000E+00 -0.12927596999E+03  0.12927597002E+03  0.25500000000E-02 0.  1.
    8880022    1    1    2    0    0 -0.14595141025E+03  0.34604896979E+03  0.23327719563E+04  0.23677559750E+04  0.15294330000E+03 0.  0.
    8880022    1    1    2    0    0  0.14595141025E+03 -0.34604896979E+03  0.25598650396E+03  0.47955442535E+03  0.15294330000E+03 0.  0.
<mgrwt>
<rscale>  0 0.40551616E+03</rscale>
<asrwt>0</asrwt>
<pdfrwt beam="1">  1        2 0.41815914E+00 0.40551616E+03</pdfrwt>
<pdfrwt beam="2">  1       -2 0.19888611E-01 0.40551616E+03</pdfrwt>
<totfact> 0.62182652E+01</totfact>
</mgrwt>
</event>
<event>
 4    1  0.4880711E-008  0.6077145E+03  0.7818608E-02  0.9889529E-01
          2   -1    0    0  501    0  0.00000000000E+00  0.00000000000E+00  0.51893169413E+03  0.51893169413E+03  0.25500000000E-02 0. -1.
         -2   -1    0    0    0  501 -0.00000000000E+00 -0.00000000000E+00 -0.10384830767E+04  0.10384830767E+04  0.25500000000E-02 0.  1.
    8880022    1    1    2    0    0  0.20988027363E+03 -0.54943197005E+03 -0.69660632516E+03  0.92443347204E+03  0.15294330000E+03 0.  0.
    8880022    1    1    2    0    0 -0.20988027363E+03  0.54943197005E+03  0.17705494255E+03  0.63298129883E+03  0.15294330000E+03 0.  0.
<mgrwt>
<rscale>  0 0.60771447E+03</rscale>
<asrwt>0</asrwt>
<pdfrwt beam="1">  1        2 0.79835646E-01 0.60771447E+03</pdfrwt>
<pdfrwt beam="2">  1       -2 0.15976663E+00 0.60771447E+03</pdfrwt>
<totfact> 0.15355547E+01</totfact>
</mgrwt>
</event>
<event>
 4    1  0.4880711E-008  0.2729902E+03  0.7818608E-02  0.1099580E+00
          2   -1    0    0  501    0  0.00000000000E+00  0.00000000000E+00  0.13071090181E+04  0.13071090181E+04  0.25500000000E-02 0. -1.
         -2   -1    0    0    0  501 -0.00000000000E+00 -0.00000000000E+00 -0.18258855908E+03  0.18258855910E+03  0.25500000000E-02 0.  1.
    8880022    1    1    2    0    0 -0.97819501300E+02 -0.20387084392E+03  0.11799665051E+04  0.12111335938E+04  0.15294330000E+03 0.  0.
    8880022    1    1    2    0    0  0.97819501300E+02  0.20387084392E+03 -0.55446046054E+02  0.27856398344E+03  0.15294330000E+03 0.  1.
<mgrwt>
<rscale>  0 0.27299016E+03</rscale>
<asrwt>0</asrwt>
<pdfrwt beam="1">  1        2 0.20109369E+00 0.27299016E+03</pdfrwt>
<pdfrwt beam="2">  1       -2 0.28090549E-01 0.27299016E+03</pdfrwt>
<totfact> 0.20229948E+02</totfact>
</mgrwt>
</event>
<event>
 4    1  0.4880711E-008  0.4646208E+03  0.7818608E-02  0.1023450E+00
          2   -1    0    0  501    0  0.00000000000E+00  0.00000000000E+00  0.20409937850E+04  0.20409937850E+04  0.25500000000E-02 0. -1.
         -2   -1    0    0    0  501 -0.00000000000E+00 -0.00000000000E+00 -0.27070345300E+03  0.27070345301E+03  0.25500000000E-02 0.  1.
    8880022    1    1    2    0    0 -0.25627675528E+03 -0.35609412150E+03 -0.17071133654E+02  0.46493426985E+03  0.15294330000E+03 0.  0.
    8880022    1    1    2    0    0  0.25627675528E+03  0.35609412150E+03  0.17873614657E+04  0.18467629682E+04  0.15294330000E+03 0.  0.
<mgrwt>
<rscale>  0 0.46462076E+03</rscale>
<asrwt>0</asrwt>
<pdfrwt beam="1">  1        2 0.31399904E+00 0.46462076E+03</pdfrwt>
<pdfrwt beam="2">  1       -2 0.41646686E-01 0.46462076E+03</pdfrwt>
<totfact> 0.37451384E+01</totfact>
</mgrwt>
</event>
<event>
 4    1  0.4880711E-008  0.5137232E+03  0.7818608E-02  0.1010258E+00
          2   -1    0    0  501    0  0.00000000000E+00  0.00000000000E+00  0.89577463265E+03  0.89577463265E+03  0.25500000000E-02 0. -1.
         -2   -1    0    0    0  501 -0.00000000000E+00 -0.00000000000E+00 -0.46867762844E+03  0.46867762844E+03  0.25500000000E-02 0.  1.
    8880022    1    1    2    0    0  0.22107147405E+02 -0.48992973048E+03  0.62930591425E+03  0.81236534484E+03  0.15294330000E+03 0.  0.
    8880022    1    1    2    0    0 -0.22107147405E+02  0.48992973048E+03 -0.20220891004E+03  0.55208691625E+03  0.15294330000E+03 0.  0.
<mgrwt>
<rscale>  0 0.51372319E+03</rscale>
<asrwt>0</asrwt>
<pdfrwt beam="1">  1        2 0.13781148E+00 0.51372319E+03</pdfrwt>
<pdfrwt beam="2">  1       -2 0.72104250E-01 0.51372319E+03</pdfrwt>
<totfact> 0.53383633E+01</totfact>
</mgrwt>
</event>
<event>
 4    1  0.4880711E-008  0.8615041E+03  0.7818608E-02  0.9475025E-01
          2   -1    0    0  501    0  0.00000000000E+00  0.00000000000E+00  0.96103339967E+03  0.96103339967E+03  0.25500000000E-02 0. -1.
         -2   -1    0    0    0  501 -0.00000000000E+00 -0.00000000000E+00 -0.13544945413E+04  0.13544945413E+04  0.25500000000E-02 0.  1.
    8880022    1    1    2    0    0  0.84483735176E+03 -0.71046288039E+02  0.56232216955E+03  0.10287835542E+04  0.15294330000E+03 0.  0.
    8880022    1    1    2    0    0 -0.84483735176E+03  0.71046288039E+02 -0.95578331119E+03  0.12867443868E+04  0.15294330000E+03 0.  0.
<mgrwt>
<rscale>  0 0.86150414E+03</rscale>
<asrwt>0</asrwt>
<pdfrwt beam="1">  1        2 0.14785129E+00 0.86150414E+03</pdfrwt>
<pdfrwt beam="2">  1       -2 0.20838378E+00 0.86150414E+03</pdfrwt>
<totfact> 0.31608203E+00</totfact>
</mgrwt>
</event>
<event>
 4    1  0.4880711E-008  0.5130670E+03  0.7818608E-02  0.1010423E+00
         -2   -1    0    0    0  501 -0.00000000000E+00  0.00000000000E+00  0.56063096017E+03  0.56063096017E+03  0.25500000000E-02 0.  1.
          2   -1    0    0  501    0  0.00000000000E+00 -0.00000000000E+00 -0.25701347386E+04  0.25701347386E+04  0.25500000000E-02 0. -1.
    8880022    1    1    2    0    0  0.48739543652E+03  0.47872789798E+02  0.41043542438E+03  0.65703501135E+03  0.15294330000E+03 0.  0.
    8880022    1    1    2    0    0 -0.48739543652E+03 -0.47872789798E+02 -0.24199392028E+04  0.24737306874E+04  0.15294330000E+03 0.  0.
<mgrwt>
<rscale>  0 0.51306702E+03</rscale>
<asrwt>0</asrwt>
<pdfrwt beam="1">  1        2 0.39540534E+00 0.51306702E+03</pdfrwt>
<pdfrwt beam="2">  1       -2 0.86250919E-01 0.51306702E+03</pdfrwt>
<totfact> 0.40999552E+00</totfact>
</mgrwt>
</event>
<event>
 4    1  0.4880711E-008  0.8605615E+03  0.7818608E-02  0.9476270E-01
          2   -1    0    0  501    0  0.00000000000E+00  0.00000000000E+00  0.31476661306E+04  0.31476661306E+04  0.25500000000E-02 0. -1.
         -2   -1    0    0    0  501 -0.00000000000E+00 -0.00000000000E+00 -0.43854363710E+03  0.43854363710E+03  0.25500000000E-02 0.  1.
    8880022    1    1    2    0    0  0.13405577310E+03  0.83618389554E+03  0.13378849677E+03  0.87089923202E+03  0.15294330000E+03 0.  0.
    8880022    1    1    2    0    0 -0.13405577310E+03 -0.83618389554E+03  0.25753339968E+04  0.27153105357E+04  0.15294330000E+03 0.  0.
<mgrwt>
<rscale>  0 0.86056151E+03</rscale>
<asrwt>0</asrwt>
<pdfrwt beam="1">  1        2 0.48425632E+00 0.86056151E+03</pdfrwt>
<pdfrwt beam="2">  1       -2 0.67468253E-01 0.86056151E+03</pdfrwt>
<totfact> 0.29654268E+00</totfact>
</mgrwt>
</event>
<event>
 4    1  0.4880711E-008  0.5003449E+03  0.7818608E-02  0.1013689E+00
         -2   -1    0    0    0  501 -0.00000000000E+00  0.00000000000E+00  0.36837108385E+03  0.36837108386E+03  0.25500000000E-02 0.  1.
          2   -1    0    0  501    0  0.00000000000E+00 -0.00000000000E+00 -0.12075656929E+04  0.12075656929E+04  0.25500000000E-02 0. -1.
    8880022    1    1    2    0    0 -0.10628403778E+03 -0.46438895286E+03 -0.94061946529E+03  0.10654154249E+04  0.15294330000E+03 0.  0.
    8880022    1    1    2    0    0  0.10628403778E+03  0.46438895286E+03  0.10142485619E+03  0.51052135185E+03  0.15294330000E+03 0.  0.
<mgrwt>
<rscale>  0 0.50034493E+03</rscale>
<asrwt>0</asrwt>
<pdfrwt beam="1">  1        2 0.18577934E+00 0.50034493E+03</pdfrwt>
<pdfrwt beam="2">  1       -2 0.56672475E-01 0.50034493E+03</pdfrwt>
<totfact> 0.57286886E+01</totfact>
</mgrwt>
</event>
<event>
 4    1  0.4880711E-008  0.5784364E+03  0.7818608E-02  0.9951182E-01
          2   -1    0    0  501    0  0.00000000000E+00  0.00000000000E+00  0.13223531288E+04  0.13223531288E+04  0.25500000000E-02 0. -1.
         -2   -1    0    0    0  501 -0.00000000000E+00 -0.00000000000E+00 -0.30169739366E+03  0.30169739367E+03  0.25500000000E-02 0.  1.
    8880022    1    1    2    0    0 -0.53511979636E+03 -0.15761934301E+03  0.83648289684E+03  0.10170016438E+04  0.15294330000E+03 0.  0.
    8880022    1    1    2    0    0  0.53511979636E+03  0.15761934301E+03  0.18417283832E+03  0.60704887870E+03  0.15294330000E+03 0.  0.
<mgrwt>
<rscale>  0 0.57843643E+03</rscale>
<asrwt>0</asrwt>
<pdfrwt beam="1">  1        2 0.20343894E+00 0.57843643E+03</pdfrwt>
<pdfrwt beam="2">  1       -2 0.46414984E-01 0.57843643E+03</pdfrwt>
<totfact> 0.73157014E+01</totfact>
</mgrwt>
</event>
<event>
 4    1  0.4880711E-008  0.3735482E+03  0.7818608E-02  0.1053344E+00
          2   -1    0    0  501    0  0.00000000000E+00  0.00000000000E+00  0.10369180066E+04  0.10369180066E+04  0.25500000000E-02 0. -1.
         -2   -1    0    0    0  501 -0.00000000000E+00 -0.00000000000E+00 -0.23443656429E+03  0.23443656431E+03  0.25500000000E-02 0.  1.
    8880022    1    1    2    0    0 -0.33724683678E+03  0.49103647382E+02  0.81613138951E+03  0.89755707065E+03  0.15294330000E+03 0. -1.
    8880022    1    1    2    0    0  0.33724683678E+03 -0.49103647382E+02 -0.13649947240E+02  0.37379750023E+03  0.15294330000E+03 0.  0.
<mgrwt>
<rscale>  0 0.37354819E+03</rscale>
<asrwt>0</asrwt>
<pdfrwt beam="1">  1        2 0.15952585E+00 0.37354819E+03</pdfrwt>
<pdfrwt beam="2">  1       -2 0.36067164E-01 0.37354819E+03</pdfrwt>
<totfact> 0.18017950E+02</totfact>
</mgrwt>
</event>
<event>
 4    1  0.4880711E-008  0.4001979E+03  0.7818608E-02  0.1043711E+00
          2   -1    0    0  501    0  0.00000000000E+00  0.00000000000E+00  0.33197681162E+03  0.33197681163E+03  0.25500000000E-02 0. -1.
         -2   -1    0    0    0  501 -0.00000000000E+00 -0.00000000000E+00 -0.84320819355E+03  0.84320819356E+03  0.25500000000E-02 0.  1.
    8880022    1    1    2    0    0  0.75103196699E+02 -0.36211350642E+03 -0.63996311077E+03  0.75479210240E+03  0.15294330000E+03 0.  0.
    8880022    1    1    2    0    0 -0.75103196699E+02  0.36211350642E+03  0.12873172884E+03  0.42039290278E+03  0.15294330000E+03 0.  0.
<mgrwt>
<rscale>  0 0.40019787E+03</rscale>
<asrwt>0</asrwt>
<pdfrwt beam="1">  1        2 0.51073356E-01 0.40019787E+03</pdfrwt>
<pdfrwt beam="2">  1       -2 0.12972434E+00 0.40019787E+03</pdfrwt>
<totfact> 0.44561444E+01</totfact>
</mgrwt>
</event>
<event>
 4    1  0.4880711E-008  0.1663365E+03  0.7818608E-02  0.1181723E+00
         -2   -1    0    0    0  501 -0.00000000000E+00  0.00000000000E+00  0.21683136830E+02  0.21683136980E+02  0.25500000000E-02 0.  1.
          2   -1    0    0  501    0  0.00000000000E+00 -0.00000000000E+00 -0.28231227686E+04  0.28231227686E+04  0.25500000000E-02 0. -1.
    8880022    1    1    2    0    0  0.40533248545E+02  0.51315154599E+02 -0.34774225059E+03  0.38547699697E+03  0.15294330000E+03 0.  0.
    8880022    1    1    2    0    0 -0.40533248545E+02 -0.51315154599E+02 -0.24536973812E+04  0.24593289087E+04  0.15294330000E+03 0. -1.
<mgrwt>
<rscale>  0 0.16633653E+03</rscale>
<asrwt>0</asrwt>
<pdfrwt beam="1">  1        2 0.43432629E+00 0.16633653E+03</pdfrwt>
<pdfrwt beam="2">  1       -2 0.33358695E-02 0.16633653E+03</pdfrwt>
<totfact> 0.97640942E+02</totfact>
</mgrwt>
</event>
<event>
 4    1  0.4880711E-008  0.8355607E+03  0.7818608E-02  0.9509924E-01
         -2   -1    0    0    0  501 -0.00000000000E+00  0.00000000000E+00  0.20987478485E+04  0.20987478485E+04  0.25500000000E-02 0.  1.
          2   -1    0    0  501    0  0.00000000000E+00 -0.00000000000E+00 -0.83084155336E+03  0.83084155337E+03  0.25500000000E-02 0. -1.
    8880022    1    1    2    0    0  0.20470504014E+03  0.79552870443E+03 -0.50030806988E+03  0.97389418873E+03  0.15294330000E+03 0.  0.
    8880022    1    1    2    0    0 -0.20470504014E+03 -0.79552870443E+03  0.17682143650E+04  0.19556952131E+04  0.15294330000E+03 0.  0.
<mgrwt>
<rscale>  0 0.83556073E+03</rscale>
<asrwt>0</asrwt>
<pdfrwt beam="1">  1        2 0.12782178E+00 0.83556073E+03</pdfrwt>
<pdfrwt beam="2">  1       -2 0.32288428E+00 0.83556073E+03</pdfrwt>
<totfact> 0.77799400E-01</totfact>
</mgrwt>
</event>
<event>
 4    1  0.4880711E-008  0.9959849E+03  0.7818608E-02  0.9312959E-01
          2   -1    0    0  501    0  0.00000000000E+00  0.00000000000E+00  0.31512387592E+04  0.31512387592E+04  0.25500000000E-02 0. -1.
         -2   -1    0    0    0  501 -0.00000000000E+00 -0.00000000000E+00 -0.54774490273E+03  0.54774490273E+03  0.25500000000E-02 0.  1.
    8880022    1    1    2    0    0  0.65437209842E+02 -0.98199405043E+03  0.95609095984E+02  0.10005633892E+04  0.15294330000E+03 0.  0.
    8880022    1    1    2    0    0 -0.65437209842E+02  0.98199405043E+03  0.25078847605E+04  0.26984202728E+04  0.15294330000E+03 0.  0.
<mgrwt>
<rscale>  0 0.99598494E+03</rscale>
<asrwt>0</asrwt>
<pdfrwt beam="1">  1        2 0.48480597E+00 0.99598494E+03</pdfrwt>
<pdfrwt beam="2">  1       -2 0.84268446E-01 0.99598494E+03</pdfrwt>
<totfact> 0.17577217E+00</totfact>
</mgrwt>
</event>
<event>
 4    1  0.4880711E-008  0.2484447E+03  0.7818608E-02  0.1114292E+00
          2   -1    0    0  501    0  0.00000000000E+00  0.00000000000E+00  0.18300072558E+04  0.18300072558E+04  0.25500000000E-02 0. -1.
         -2   -1    0    0    0  501 -0.00000000000E+00 -0.00000000000E+00 -0.58473805668E+02  0.58473805723E+02  0.25500000000E-02 0.  1.
    8880022    1    1    2    0    0 -0.30927925939E+02 -0.19333021212E+03  0.15000120282E+04  0.15204475806E+04  0.15294330000E+03 0.  0.
    8880022    1    1    2    0    0  0.30927925939E+02  0.19333021212E+03  0.27152142197E+03  0.36803348098E+03  0.15294330000E+03 0.  1.
<mgrwt>
<rscale>  0 0.24844468E+03</rscale>
<asrwt>0</asrwt>
<pdfrwt beam="1">  1        2 0.28153966E+00 0.24844468E+03</pdfrwt>
<pdfrwt beam="2">  1       -2 0.89959675E-02 0.24844468E+03</pdfrwt>
<totfact> 0.72021219E+02</totfact>
</mgrwt>
</event>
<event>
 4    1  0.4880711E-008  0.7598668E+03  0.7818608E-02  0.9619997E-01
         -2   -1    0    0    0  501 -0.00000000000E+00  0.00000000000E+00  0.32874201183E+03  0.32874201184E+03  0.25500000000E-02 0.  1.
          2   -1    0    0  501    0  0.00000000000E+00 -0.00000000000E+00 -0.22580789749E+04  0.22580789749E+04  0.25500000000E-02 0. -1.
    8880022    1    1    2    0    0  0.35307434115E+03  0.65524379038E+03 -0.35501056158E+03  0.83870737868E+03  0.15294330000E+03 0.  0.
    8880022    1    1    2    0    0 -0.35307434115E+03 -0.65524379038E+03 -0.15743264015E+04  0.17481136081E+04  0.15294330000E+03 0.  0.
<mgrwt>
<rscale>  0 0.75986681E+03</rscale>
<asrwt>0</asrwt>
<pdfrwt beam="1">  1        2 0.34739676E+00 0.75986681E+03</pdfrwt>
<pdfrwt beam="2">  1       -2 0.50575695E-01 0.75986681E+03</pdfrwt>
<totfact> 0.18387050E+01</totfact>
</mgrwt>
</event>
<event>
 4    1  0.4880711E-008  0.4588312E+03  0.7818608E-02  0.1025121E+00
         -2   -1    0    0    0  501 -0.00000000000E+00  0.00000000000E+00  0.11927509260E+03  0.11927509262E+03  0.25500000000E-02 0.  1.
          2   -1    0    0  501    0  0.00000000000E+00 -0.00000000000E+00 -0.28357473947E+04  0.28357473947E+04  0.25500000000E-02 0. -1.
    8880022    1    1    2    0    0 -0.23854894441E+03 -0.36087223835E+03 -0.22661219211E+04  0.23121060931E+04  0.15294330000E+03 0.  0.
    8880022    1    1    2    0    0  0.23854894441E+03  0.36087223835E+03 -0.45035038093E+03  0.64291639418E+03  0.15294330000E+03 0.  0.
<mgrwt>
<rscale>  0 0.45883115E+03</rscale>
<asrwt>0</asrwt>
<pdfrwt beam="1">  1        2 0.43626878E+00 0.45883115E+03</pdfrwt>
<pdfrwt beam="2">  1       -2 0.18350016E-01 0.45883115E+03</pdfrwt>
<totfact> 0.60283372E+01</totfact>
</mgrwt>
</event>
<event>
 4    1  0.4880711E-008  0.9071892E+03  0.7818608E-02  0.9416639E-01
         -2   -1    0    0    0  501 -0.00000000000E+00  0.00000000000E+00  0.99615805737E+03  0.99615805737E+03  0.25500000000E-02 0.  1.
          2   -1    0    0  501    0  0.00000000000E+00 -0.00000000000E+00 -0.17841792298E+04  0.17841792298E+04  0.25500000000E-02 0. -1.
    8880022    1    1    2    0    0  0.38092252393E+03  0.80901092087E+03  0.62466035313E+03  0.11014503389E+04  0.15294330000E+03 0.  0.
    8880022    1    1    2    0    0 -0.38092252393E+03 -0.80901092087E+03 -0.14126815256E+04  0.16788869483E+04  0.15294330000E+03 0.  0.
<mgrwt>
<rscale>  0 0.90718923E+03</rscale>
<asrwt>0</asrwt>
<pdfrwt beam="1">  1        2 0.27448911E+00 0.90718923E+03</pdfrwt>
<pdfrwt beam="2">  1       -2 0.15325509E+00 0.90718923E+03</pdfrwt>
<totfact> 0.25107476E+00</totfact>
</mgrwt>
</event>
<event>
 4    1  0.4880711E-008  0.1014622E+04  0.7818608E-02  0.9292652E-01
          2   -1    0    0  501    0  0.00000000000E+00  0.00000000000E+00  0.15544741265E+04  0.15544741265E+04  0.25500000000E-02 0. -1.
         -2   -1    0    0    0  501 -0.00000000000E+00 -0.00000000000E+00 -0.86353894526E+03  0.86353894527E+03  0.25500000000E-02 0.  1.
    8880022    1    1    2    0    0  0.32544263765E+02 -0.10025002707E+04 -0.23823649040E+03  0.10422160045E+04  0.15294330000E+03 0.  0.
    8880022    1    1    2    0    0 -0.32544263765E+02  0.10025002707E+04  0.92917167161E+03  0.13757970672E+04  0.15294330000E+03 0.  0.
<mgrwt>
<rscale>  0 0.10146219E+04</rscale>
<asrwt>0</asrwt>
<pdfrwt beam="1">  1        2 0.23914987E+00 0.10146219E+04</pdfrwt>
<pdfrwt beam="2">  1       -2 0.13285215E+00 0.10146219E+04</pdfrwt>
<totfact> 0.48224673E+00</totfact>
</mgrwt>
</event>
<event>
 4    1  0.4880711E-008  0.6669054E+03  0.7818608E-02  0.9775565E-01
         -2   -1    0    0    0  501 -0.00000000000E+00  0.00000000000E+00  0.55693510442E+03  0.55693510442E+03  0.25500000000E-02 0.  1.
          2   -1    0    0  501    0  0.00000000000E+00 -0.00000000000E+00 -0.91748393085E+03  0.91748393085E+03  0.25500000000E-02 0. -1.
    8880022    1    1    2    0    0 -0.45606847550E+03  0.46192277948E+03  0.85107723022E+02  0.67231397879E+03  0.15294330000E+03 0.  0.
    8880022    1    1    2    0    0  0.45606847550E+03 -0.46192277948E+03 -0.44565654945E+03  0.80210505648E+03  0.15294330000E+03 0.  0.
<mgrwt>
<rscale>  0 0.66690536E+03</rscale>
<asrwt>0</asrwt>
<pdfrwt beam="1">  1        2 0.14115137E+00 0.66690536E+03</pdfrwt>
<pdfrwt beam="2">  1       -2 0.85682324E-01 0.66690536E+03</pdfrwt>
<totfact> 0.34548454E+01</totfact>
</mgrwt>
</event>
<event>
 4    1  0.4880711E-008  0.1950118E+03  0.7818608E-02  0.1154017E+00
          2   -1    0    0  501    0  0.00000000000E+00  0.00000000000E+00  0.16156670384E+04  0.16156670384E+04  0.25500000000E-02 0. -1.
         -2   -1    0    0    0  501 -0.00000000000E+00 -0.00000000000E+00 -0.34516417021E+03  0.34516417021E+03  0.25500000000E-02 0.  1.
    8880022    1    1    2    0    0  0.94997016265E+02  0.74923292044E+02  0.15816477577E+04  0.15936245528E+04  0.15294330000E+03 0.  0.
    8880022    1    1    2    0    0 -0.94997016265E+02 -0.74923292044E+02 -0.31114488952E+03  0.36720665582E+03  0.15294330000E+03 0.  1.
<mgrwt>
<rscale>  0 0.19501176E+03</rscale>
<asrwt>0</asrwt>
<pdfrwt beam="1">  1        2 0.24856416E+00 0.19501176E+03</pdfrwt>
<pdfrwt beam="2">  1       -2 0.53102180E-01 0.19501176E+03</pdfrwt>
<totfact> 0.42085282E+01</totfact>
</mgrwt>
</event>
<event>
 4    1  0.4880711E-008  0.4171726E+03  0.7818608E-02  0.1037990E+00
          2   -1    0    0  501    0  0.00000000000E+00  0.00000000000E+00  0.15045717630E+04  0.15045717630E+04  0.25500000000E-02 0. -1.
         -2   -1    0    0    0  501 -0.00000000000E+00 -0.00000000000E+00 -0.17103010831E+03  0.17103010833E+03  0.25500000000E-02 0.  1.
    8880022    1    1    2    0    0 -0.75838595860E+02  0.38064398774E+03  0.11434269452E+04  0.12171516627E+04  0.15294330000E+03 0. -1.
    8880022    1    1    2    0    0  0.75838595860E+02 -0.38064398774E+03  0.19011470952E+03  0.45845020865E+03  0.15294330000E+03 0.  0.
<mgrwt>
<rscale>  0 0.41717262E+03</rscale>
<asrwt>0</asrwt>
<pdfrwt beam="1">  1        2 0.23147259E+00 0.41717262E+03</pdfrwt>
<pdfrwt beam="2">  1       -2 0.26312323E-01 0.41717262E+03</pdfrwt>
<totfact> 0.17327692E+02</totfact>
</mgrwt>
</event>
<event>
 4    1  0.4880711E-008  0.1795933E+03  0.7818608E-02  0.1168197E+00
          2   -1    0    0  501    0  0.00000000000E+00  0.00000000000E+00  0.94000654654E+03  0.94000654654E+03  0.25500000000E-02 0. -1.
         -2   -1    0    0    0  501 -0.00000000000E+00 -0.00000000000E+00 -0.14780622813E+03  0.14780622815E+03  0.25500000000E-02 0.  1.
    8880022    1    1    2    0    0 -0.86046139688E+02  0.38186029814E+02 -0.80510939651E+02  0.19681406313E+03  0.15294330000E+03 0.  0.
    8880022    1    1    2    0    0  0.86046139688E+02 -0.38186029814E+02  0.87271125806E+03  0.89099871156E+03  0.15294330000E+03 0. -1.
<mgrwt>
<rscale>  0 0.17959333E+03</rscale>
<asrwt>0</asrwt>
<pdfrwt beam="1">  1        2 0.14461639E+00 0.17959333E+03</pdfrwt>
<pdfrwt beam="2">  1       -2 0.22739420E-01 0.17959333E+03</pdfrwt>
<totfact> 0.48812972E+02</totfact>
</mgrwt>
</event>
<event>
 4    1  0.4880711E-008  0.2011900E+03  0.7818608E-02  0.1148739E+00
         -2   -1    0    0    0  501 -0.00000000000E+00  0.00000000000E+00  0.40827921828E+03  0.40827921829E+03  0.25500000000E-02 0.  1.
          2   -1    0    0  501    0  0.00000000000E+00 -0.00000000000E+00 -0.21963495270E+03  0.21963495271E+03  0.25500000000E-02 0. -1.
    8880022    1    1    2    0    0  0.11182423357E+03 -0.67683719748E+02 -0.13821984210E+03  0.24409449584E+03  0.15294330000E+03 0. -1.
    8880022    1    1    2    0    0 -0.11182423357E+03  0.67683719748E+02  0.32686410768E+03  0.38381967516E+03  0.15294330000E+03 0.  0.
<mgrwt>
<rscale>  0 0.20118996E+03</rscale>
<asrwt>0</asrwt>
<pdfrwt beam="1">  1        2 0.33789993E-01 0.20118996E+03</pdfrwt>
<pdfrwt beam="2">  1       -2 0.62812188E-01 0.20118996E+03</pdfrwt>
<totfact> 0.37119339E+02</totfact>
</mgrwt>
</event>
<event>
 4    1  0.4880711E-008  0.6130091E+03  0.7818608E-02  0.9878778E-01
         -2   -1    0    0    0  501 -0.00000000000E+00  0.00000000000E+00  0.49359600561E+03  0.49359600562E+03  0.25500000000E-02 0.  1.
          2   -1    0    0  501    0  0.00000000000E+00 -0.00000000000E+00 -0.24526587602E+04  0.24526587602E+04  0.25500000000E-02 0. -1.
    8880022    1    1    2    0    0 -0.78855047719E+01  0.59357084703E+03 -0.22028459919E+04  0.22865499445E+04  0.15294330000E+03 0.  0.
    8880022    1    1    2    0    0  0.78855047719E+01 -0.59357084703E+03  0.24378323723E+03  0.65970482141E+03  0.15294330000E+03 0.  0.
<mgrwt>
<rscale>  0 0.61300912E+03</rscale>
<asrwt>0</asrwt>
<pdfrwt beam="1">  1        2 0.37733211E+00 0.61300912E+03</pdfrwt>
<pdfrwt beam="2">  1       -2 0.75937848E-01 0.61300912E+03</pdfrwt>
<totfact> 0.61992966E+00</totfact>
</mgrwt>
</event>
<event>
 4    1  0.4880711E-008  0.3324693E+03  0.7818608E-02  0.1070049E+00
         -2   -1    0    0    0  501 -0.00000000000E+00  0.00000000000E+00  0.41027767678E+03  0.41027767678E+03  0.25500000000E-02 0.  1.
          2   -1    0    0  501    0  0.00000000000E+00 -0.00000000000E+00 -0.87668770283E+03  0.87668770283E+03  0.25500000000E-02 0. -1.
    8880022    1    1    2    0    0  0.28977231451E+03 -0.56357395891E+02 -0.76876183563E+03  0.83757421359E+03  0.15294330000E+03 0.  0.
    8880022    1    1    2    0    0 -0.28977231451E+03  0.56357395891E+02  0.30235180958E+03  0.44939116602E+03  0.15294330000E+03 0.  1.
<mgrwt>
<rscale>  0 0.33246925E+03</rscale>
<asrwt>0</asrwt>
<pdfrwt beam="1">  1        2 0.13487503E+00 0.33246925E+03</pdfrwt>
<pdfrwt beam="2">  1       -2 0.63119643E-01 0.33246925E+03</pdfrwt>
<totfact> 0.75016098E+01</totfact>
</mgrwt>
</event>
<event>
 4    1  0.4880711E-008  0.7718410E+03  0.7818608E-02  0.9601695E-01
         -2   -1    0    0    0  501 -0.00000000000E+00  0.00000000000E+00  0.32883578065E+03  0.32883578066E+03  0.25500000000E-02 0.  1.
          2   -1    0    0  501    0  0.00000000000E+00 -0.00000000000E+00 -0.21942942645E+04  0.21942942645E+04  0.25500000000E-02 0. -1.
    8880022    1    1    2    0    0  0.50149239980E+03 -0.56643815110E+03 -0.40591873254E+03  0.87207137123E+03  0.15294330000E+03 0.  0.
    8880022    1    1    2    0    0 -0.50149239980E+03  0.56643815110E+03 -0.14595397513E+04  0.16510586739E+04  0.15294330000E+03 0.  0.
<mgrwt>
<rscale>  0 0.77184095E+03</rscale>
<asrwt>0</asrwt>
<pdfrwt beam="1">  1        2 0.33758372E+00 0.77184095E+03</pdfrwt>
<pdfrwt beam="2">  1       -2 0.50590121E-01 0.77184095E+03</pdfrwt>
<totfact> 0.19896153E+01</totfact>
</mgrwt>
</event>
<event>
 4    1  0.4880711E-008  0.5436111E+03  0.7818608E-02  0.1002984E+00
         -2   -1    0    0    0  501 -0.00000000000E+00  0.00000000000E+00  0.22514648741E+03  0.22514648743E+03  0.25500000000E-02 0.  1.
          2   -1    0    0  501    0  0.00000000000E+00 -0.00000000000E+00 -0.15757624658E+04  0.15757624658E+04  0.25500000000E-02 0. -1.
    8880022    1    1    2    0    0  0.44827635921E+03 -0.26677644114E+03 -0.10433357882E+04  0.11764618922E+04  0.15294330000E+03 0.  0.
    8880022    1    1    2    0    0 -0.44827635921E+03  0.26677644114E+03 -0.30728019017E+03  0.62444706105E+03  0.15294330000E+03 0.  0.
<mgrwt>
<rscale>  0 0.54361109E+03</rscale>
<asrwt>0</asrwt>
<pdfrwt beam="1">  1        2 0.24242499E+00 0.54361109E+03</pdfrwt>
<pdfrwt beam="2">  1       -2 0.34637922E-01 0.54361109E+03</pdfrwt>
<totfact> 0.93804714E+01</totfact>
</mgrwt>
</event>
<event>
 4    1  0.4880711E-008  0.3856784E+03  0.7818608E-02  0.1048855E+00
         -2   -1    0    0    0  501 -0.00000000000E+00  0.00000000000E+00  0.25798619671E+03  0.25798619672E+03  0.25500000000E-02 0.  1.
          2   -1    0    0  501    0  0.00000000000E+00 -0.00000000000E+00 -0.38212353814E+04  0.38212353814E+04  0.25500000000E-02 0. -1.
    8880022    1    1    2    0    0  0.31830315887E+03 -0.15504601525E+03  0.97822811096E+02  0.39789084330E+03  0.15294330000E+03 0.  0.
    8880022    1    1    2    0    0 -0.31830315887E+03  0.15504601525E+03 -0.36610719958E+04  0.36813307349E+04  0.15294330000E+03 0. -1.
<mgrwt>
<rscale>  0 0.38567839E+03</rscale>
<asrwt>0</asrwt>
<pdfrwt beam="1">  1        2 0.58788232E+00 0.38567839E+03</pdfrwt>
<pdfrwt beam="2">  1       -2 0.39690187E-01 0.38567839E+03</pdfrwt>
<totfact> 0.35011671E+00</totfact>
</mgrwt>
</event>
<event>
 4    1  0.4880711E-008  0.3691658E+03  0.7818608E-02  0.1055012E+00
          2   -1    0    0  501    0  0.00000000000E+00  0.00000000000E+00  0.46909780292E+03  0.46909780292E+03  0.25500000000E-02 0. -1.
         -2   -1    0    0    0  501 -0.00000000000E+00 -0.00000000000E+00 -0.51234225345E+03  0.51234225345E+03  0.25500000000E-02 0.  1.
    8880022    1    1    2    0    0 -0.29557878979E+03  0.15976508161E+03  0.30126736034E+03  0.47649278872E+03  0.15294330000E+03 0.  0.
    8880022    1    1    2    0    0  0.29557878979E+03 -0.15976508161E+03 -0.34451181087E+03  0.50494726766E+03  0.15294330000E+03 0.  1.
<mgrwt>
<rscale>  0 0.36916576E+03</rscale>
<asrwt>0</asrwt>
<pdfrwt beam="1">  1        2 0.72168893E-01 0.36916576E+03</pdfrwt>
<pdfrwt beam="2">  1       -2 0.78821885E-01 0.36916576E+03</pdfrwt>
<totfact> 0.98431580E+01</totfact>
</mgrwt>
</event>
<event>
 4    1  0.6103348E-008  0.3975322E+03  0.7818608E-02  0.1044638E+00
         -2   -1    0    0    0  501 -0.00000000000E+00  0.00000000000E+00  0.82765385824E+03  0.82765385824E+03  0.25500000000E-02 0.  1.
          2   -1    0    0  501    0  0.00000000000E+00 -0.00000000000E+00 -0.17811598947E+04  0.17811598947E+04  0.25500000000E-02 0. -1.
    8880022    1    1    2    0    0 -0.10167420247E+03 -0.35256570418E+03 -0.17092625186E+04  0.17548818279E+04  0.15294330000E+03 0.  0.
    8880022    1    1    2    0    0  0.10167420247E+03  0.35256570418E+03  0.75575648219E+03  0.85393192504E+03  0.15294330000E+03 0.  0.
<mgrwt>
<rscale>  0 0.39753223E+03</rscale>
<asrwt>0</asrwt>
<pdfrwt beam="1">  1        2 0.27402460E+00 0.39753223E+03</pdfrwt>
<pdfrwt beam="2">  1       -2 0.12733136E+00 0.39753223E+03</pdfrwt>
<totfact> 0.45142358E+00</totfact>
</mgrwt>
</event>
<event>
 4    1  0.4880711E-008  0.4515540E+03  0.7818608E-02  0.1027260E+00
         -2   -1    0    0    0  501 -0.00000000000E+00  0.00000000000E+00  0.30700736491E+03  0.30700736493E+03  0.25500000000E-02 0.  1.
          2   -1    0    0  501    0  0.00000000000E+00 -0.00000000000E+00 -0.10411718295E+04  0.10411718295E+04  0.25500000000E-02 0. -1.
    8880022    1    1    2    0    0 -0.84701020267E+02 -0.41633529526E+03  0.38553138780E+02  0.45319679880E+03  0.15294330000E+03 0.  0.
    8880022    1    1    2    0    0  0.84701020267E+02  0.41633529526E+03 -0.77271760334E+03  0.89498239561E+03  0.15294330000E+03 0.  0.
<mgrwt>
<rscale>  0 0.45155398E+03</rscale>
<asrwt>0</asrwt>
<pdfrwt beam="1">  1        2 0.16018028E+00 0.45155398E+03</pdfrwt>
<pdfrwt beam="2">  1       -2 0.47231903E-01 0.45155398E+03</pdfrwt>
<totfact> 0.10503618E+02</totfact>
</mgrwt>
</event>
<event>
 4    1  0.4880711E-008  0.4200349E+03  0.7818608E-02  0.1037055E+00
         -2   -1    0    0    0  501 -0.00000000000E+00  0.00000000000E+00  0.38176571719E+03  0.38176571719E+03  0.25500000000E-02 0.  1.
          2   -1    0    0  501    0  0.00000000000E+00 -0.00000000000E+00 -0.61697562620E+03  0.61697562620E+03  0.25500000000E-02 0. -1.
    8880022    1    1    2    0    0 -0.34293434713E+03 -0.18823840653E+03 -0.36776853096E+03  0.55828577764E+03  0.15294330000E+03 0.  0.
    8880022    1    1    2    0    0  0.34293434713E+03  0.18823840653E+03  0.13255862195E+03  0.44045556575E+03  0.15294330000E+03 0.  0.
<mgrwt>
<rscale>  0 0.42003490E+03</rscale>
<asrwt>0</asrwt>
<pdfrwt beam="1">  1        2 0.94919327E-01 0.42003490E+03</pdfrwt>
<pdfrwt beam="2">  1       -2 0.58733187E-01 0.42003490E+03</pdfrwt>
<totfact> 0.13429544E+02</totfact>
</mgrwt>
</event>
<event>
 4    1  0.4880711E-008  0.1042216E+04  0.7818608E-02  0.9263418E-01
          2   -1    0    0  501    0  0.00000000000E+00  0.00000000000E+00  0.34797878492E+04  0.34797878492E+04  0.25500000000E-02 0. -1.
         -2   -1    0    0    0  501 -0.00000000000E+00 -0.00000000000E+00 -0.58204102598E+03  0.58204102599E+03  0.25500000000E-02 0.  1.
    8880022    1    1    2    0    0  0.74107818891E+03 -0.71667680460E+03  0.65914044616E+02  0.10442982518E+04  0.15294330000E+03 0.  0.
    8880022    1    1    2    0    0 -0.74107818891E+03  0.71667680460E+03  0.28318327786E+04  0.30175306234E+04  0.15294330000E+03 0.  0.
<mgrwt>
<rscale>  0 0.10422160E+04</rscale>
<asrwt>0</asrwt>
<pdfrwt beam="1">  1        2 0.53535198E+00 0.10422160E+04</pdfrwt>
<pdfrwt beam="2">  1       -2 0.89544772E-01 0.10422160E+04</pdfrwt>
<totfact> 0.92157791E-01</totfact>
</mgrwt>
</event>
<event>
 4    1  0.4880711E-008  0.2038627E+03  0.7818608E-02  0.1146520E+00
         -2   -1    0    0    0  501 -0.00000000000E+00  0.00000000000E+00  0.65930072664E+02  0.65930072713E+02  0.25500000000E-02 0.  1.
          2   -1    0    0  501    0  0.00000000000E+00 -0.00000000000E+00 -0.12536119641E+04  0.12536119641E+04  0.25500000000E-02 0. -1.
    8880022    1    1    2    0    0 -0.10664105119E+03  0.82438164384E+02 -0.12863879206E+03  0.24105592003E+03  0.15294330000E+03 0.  1.
    8880022    1    1    2    0    0  0.10664105119E+03 -0.82438164384E+02 -0.10590430994E+04  0.10784861168E+04  0.15294330000E+03 0.  0.
<mgrwt>
<rscale>  0 0.20386274E+03</rscale>
<asrwt>0</asrwt>
<pdfrwt beam="1">  1        2 0.19286336E+00 0.20386274E+03</pdfrwt>
<pdfrwt beam="2">  1       -2 0.10143089E-01 0.20386274E+03</pdfrwt>
<totfact> 0.12134598E+03</totfact>
</mgrwt>
</event>
<event>
 4    1  0.4880711E-008  0.1691672E+03  0.7818608E-02  0.1178719E+00
          2   -1    0    0  501    0  0.00000000000E+00  0.00000000000E+00  0.42742639968E+04  0.42742639968E+04  0.25500000000E-02 0. -1.
         -2   -1    0    0    0  501 -0.00000000000E+00 -0.00000000000E+00 -0.14484604697E+03  0.14484604700E+03  0.25500000000E-02 0.  1.
    8880022    1    1    2    0    0 -0.64450471861E+02 -0.32741787668E+02 -0.93175017317E+02  0.19312981347E+03  0.15294330000E+03 0.  0.
    8880022    1    1    2    0    0  0.64450471861E+02  0.32741787668E+02  0.42225929672E+04  0.42259802303E+04  0.15294330000E+03 0.  0.
<mgrwt>
<rscale>  0 0.16916720E+03</rscale>
<asrwt>0</asrwt>
<pdfrwt beam="1">  1        2 0.65757906E+00 0.16916720E+03</pdfrwt>
<pdfrwt beam="2">  1       -2 0.22284008E-01 0.16916720E+03</pdfrwt>
<totfact> 0.51658183E+00</totfact>
</mgrwt>
</event>
<event>
 4    1  0.4880711E-008  0.8070868E+03  0.7818608E-02  0.9549816E-01
         -2   -1    0    0    0  501 -0.00000000000E+00  0.00000000000E+00  0.63425882284E+03  0.63425882284E+03  0.25500000000E-02 0.  1.
          2   -1    0    0  501    0  0.00000000000E+00 -0.00000000000E+00 -0.43203117619E+04  0.43203117619E+04  0.25500000000E-02 0. -1.
    8880022    1    1    2    0    0  0.20634560883E+02 -0.79219419642E+03 -0.40059160830E+04  0.40864107413E+04  0.15294330000E+03 0.  0.
    8880022    1    1    2    0    0 -0.20634560883E+02  0.79219419642E+03  0.31986314388E+03  0.86815984345E+03  0.15294330000E+03 0.  0.
<mgrwt>
<rscale>  0 0.80708679E+03</rscale>
<asrwt>0</asrwt>
<pdfrwt beam="1">  1        2 0.66466333E+00 0.80708679E+03</pdfrwt>
<pdfrwt beam="2">  1       -2 0.97578283E-01 0.80708679E+03</pdfrwt>
<totfact> 0.17747325E-01</totfact>
</mgrwt>
</event>
<event>
 4    1  0.4880711E-008  0.8401263E+03  0.7818608E-02  0.9503686E-01
          2   -1    0    0  501    0  0.00000000000E+00  0.00000000000E+00  0.65988233840E+03  0.65988233840E+03  0.25500000000E-02 0. -1.
         -2   -1    0    0    0  501 -0.00000000000E+00 -0.00000000000E+00 -0.19655294731E+04  0.19655294731E+04  0.25500000000E-02 0.  1.
    8880022    1    1    2    0    0  0.79861888886E+03 -0.21125434550E+03 -0.15390890279E+04  0.17534557927E+04  0.15294330000E+03 0.  0.
    8880022    1    1    2    0    0 -0.79861888886E+03  0.21125434550E+03  0.23344189323E+03  0.87195601877E+03  0.15294330000E+03 0.  0.
<mgrwt>
<rscale>  0 0.84012629E+03</rscale>
<asrwt>0</asrwt>
<pdfrwt beam="1">  1        2 0.10152036E+00 0.84012629E+03</pdfrwt>
<pdfrwt beam="2">  1       -2 0.30238915E+00 0.84012629E+03</pdfrwt>
<totfact> 0.13945141E+00</totfact>
</mgrwt>
</event>
<event>
 4    1  0.4880711E-008  0.5147067E+03  0.7818608E-02  0.1010010E+00
         -2   -1    0    0    0  501 -0.00000000000E+00  0.00000000000E+00  0.27530646762E+03  0.27530646763E+03  0.25500000000E-02 0.  1.
          2   -1    0    0  501    0  0.00000000000E+00 -0.00000000000E+00 -0.16465519599E+04  0.16465519599E+04  0.25500000000E-02 0. -1.
    8880022    1    1    2    0    0  0.47691929753E+03 -0.11865627841E+03 -0.66157693462E+02  0.51894105848E+03  0.15294330000E+03 0.  0.
    8880022    1    1    2    0    0 -0.47691929753E+03  0.11865627841E+03 -0.13050877989E+04  0.14029173691E+04  0.15294330000E+03 0.  0.
<mgrwt>
<rscale>  0 0.51470669E+03</rscale>
<asrwt>0</asrwt>
<pdfrwt beam="1">  1        2 0.25331568E+00 0.51470669E+03</pdfrwt>
<pdfrwt beam="2">  1       -2 0.42354842E-01 0.51470669E+03</pdfrwt>
<totfact> 0.58532765E+01</totfact>
</mgrwt>
</event>
<event>
 4    1  0.4880711E-008  0.3895552E+03  0.7818608E-02  0.1047458E+00
          2   -1    0    0  501    0  0.00000000000E+00  0.00000000000E+00  0.16755332299E+04  0.16755332299E+04  0.25500000000E-02 0. -1.
         -2   -1    0    0    0  501 -0.00000000000E+00 -0.00000000000E+00 -0.42887956811E+03  0.42887956812E+03  0.25500000000E-02 0.  1.
    8880022    1    1    2    0    0  0.80506007813E+02  0.34911373742E+03 -0.31119685554E+03  0.49859478022E+03  0.15294330000E+03 0.  0.
    8880022    1    1    2    0    0 -0.80506007813E+02 -0.34911373742E+03  0.15578505173E+04  0.16058180178E+04  0.15294330000E+03 0. -1.
<mgrwt>
<rscale>  0 0.38955522E+03</rscale>
<asrwt>0</asrwt>
<pdfrwt beam="1">  1        2 0.25777434E+00 0.38955522E+03</pdfrwt>
<pdfrwt beam="2">  1       -2 0.65981472E-01 0.38955522E+03</pdfrwt>
<totfact> 0.23392376E+01</totfact>
</mgrwt>
</event>
<event>
 4    1  0.7554250E-008  0.9394635E+03  0.7818608E-02  0.9377552E-01
         -2   -1    0    0    0  501 -0.00000000000E+00  0.00000000000E+00  0.16435652638E+04  0.16435652638E+04  0.25500000000E-02 0.  1.
          2   -1    0    0  501    0  0.00000000000E+00 -0.00000000000E+00 -0.13662489596E+04  0.13662489596E+04  0.25500000000E-02 0. -1.
    8880022    1    1    2    0    0  0.42789743998E+03  0.82225526468E+03  0.13110902798E+04  0.16129319001E+04  0.15294330000E+03 0.  0.
    8880022    1    1    2    0    0 -0.42789743998E+03 -0.82225526468E+03 -0.10337739757E+04  0.13968823233E+04  0.15294330000E+03 0. -1.
<mgrwt>
<rscale>  0 0.93946346E+03</rscale>
<asrwt>0</asrwt>
<pdfrwt beam="1">  1        2 0.21019215E+00 0.93946346E+03</pdfrwt>
<pdfrwt beam="2">  1       -2 0.25285620E+00 0.93946346E+03</pdfrwt>
<totfact> 0.94027719E-01</totfact>
</mgrwt>
</event>
<event>
 4    1  0.4880711E-008  0.4995764E+03  0.7818608E-02  0.1013890E+00
          2   -1    0    0  501    0  0.00000000000E+00  0.00000000000E+00  0.18568906124E+04  0.18568906124E+04  0.25500000000E-02 0. -1.
         -2   -1    0    0    0  501 -0.00000000000E+00 -0.00000000000E+00 -0.18339822603E+03  0.18339822604E+03  0.25500000000E-02 0.  1.
    8880022    1    1    2    0    0  0.57476664660E+02  0.47210314658E+03  0.30948087769E+03  0.58766913707E+03  0.15294330000E+03 0.  0.
    8880022    1    1    2    0    0 -0.57476664660E+02 -0.47210314658E+03  0.13640115087E+04  0.14526197014E+04  0.15294330000E+03 0.  0.
<mgrwt>
<rscale>  0 0.49957642E+03</rscale>
<asrwt>0</asrwt>
<pdfrwt beam="1">  1        2 0.28567548E+00 0.49957642E+03</pdfrwt>
<pdfrwt beam="2">  1       -2 0.28215111E-01 0.49957642E+03</pdfrwt>
<totfact> 0.97366011E+01</totfact>
</mgrwt>
</event>
<event>
 4    1  0.4880711E-008  0.7300367E+03  0.7818608E-02  0.9667201E-01
          2   -1    0    0  501    0  0.00000000000E+00  0.00000000000E+00  0.12287617451E+04  0.12287617451E+04  0.25500000000E-02 0. -1.
         -2   -1    0    0    0  501 -0.00000000000E+00 -0.00000000000E+00 -0.74670550370E+03  0.74670550370E+03  0.25500000000E-02 0.  1.
    8880022    1    1    2    0    0 -0.42847941452E+03 -0.57093545031E+03  0.88049609724E+03  0.11437774816E+04  0.15294330000E+03 0.  0.
    8880022    1    1    2    0    0  0.42847941452E+03  0.57093545031E+03 -0.39843985587E+03  0.83168976720E+03  0.15294330000E+03 0.  0.
<mgrwt>
<rscale>  0 0.73003668E+03</rscale>
<asrwt>0</asrwt>
<pdfrwt beam="1">  1        2 0.18904027E+00 0.73003668E+03</pdfrwt>
<pdfrwt beam="2">  1       -2 0.11487777E+00 0.73003668E+03</pdfrwt>
<totfact> 0.11008197E+01</totfact>
</mgrwt>
</event>
<event>
 4    1  0.4880711E-008  0.9476605E+03  0.7818608E-02  0.9367889E-01
         -2   -1    0    0    0  501 -0.00000000000E+00  0.00000000000E+00  0.94458455535E+03  0.94458455536E+03  0.25500000000E-02 0.  1.
          2   -1    0    0  501    0  0.00000000000E+00 -0.00000000000E+00 -0.15859568514E+04  0.15859568514E+04  0.25500000000E-02 0. -1.
    8880022    1    1    2    0    0  0.77629305856E+03  0.52157255076E+03  0.48006310197E+03  0.10623187249E+04  0.15294330000E+03 0.  0.
    8880022    1    1    2    0    0 -0.77629305856E+03 -0.52157255076E+03 -0.11214353981E+04  0.14682226818E+04  0.15294330000E+03 0.  0.
<mgrwt>
<rscale>  0 0.94766054E+03</rscale>
<asrwt>0</asrwt>
<pdfrwt beam="1">  1        2 0.24399336E+00 0.94766054E+03</pdfrwt>
<pdfrwt beam="2">  1       -2 0.14532070E+00 0.94766054E+03</pdfrwt>
<totfact> 0.36987751E+00</totfact>
</mgrwt>
</event>
<event>
 4    1  0.4880711E-008  0.8492240E+03  0.7818608E-02  0.9491379E-01
          2   -1    0    0  501    0  0.00000000000E+00  0.00000000000E+00  0.27648029525E+04  0.27648029525E+04  0.25500000000E-02 0. -1.
         -2   -1    0    0    0  501 -0.00000000000E+00 -0.00000000000E+00 -0.30039669088E+03  0.30039669089E+03  0.25500000000E-02 0.  1.
    8880022    1    1    2    0    0 -0.83506902465E+03  0.21200869465E+02  0.17883262052E+04  0.19797201878E+04  0.15294330000E+03 0.  0.
    8880022    1    1    2    0    0  0.83506902465E+03 -0.21200869465E+02  0.67608005643E+03  0.10854794556E+04  0.15294330000E+03 0.  0.
<mgrwt>
<rscale>  0 0.84922400E+03</rscale>
<asrwt>0</asrwt>
<pdfrwt beam="1">  1        2 0.42535431E+00 0.84922400E+03</pdfrwt>
<pdfrwt beam="2">  1       -2 0.46214875E-01 0.84922400E+03</pdfrwt>
<totfact> 0.11200112E+01</totfact>
</mgrwt>
</event>
<event>
 4    1  0.4880711E-008  0.6885399E+03  0.7818608E-02  0.9737034E-01
          2   -1    0    0  501    0  0.00000000000E+00  0.00000000000E+00  0.23952284656E+04  0.23952284656E+04  0.25500000000E-02 0. -1.
         -2   -1    0    0    0  501 -0.00000000000E+00 -0.00000000000E+00 -0.53730950755E+03  0.53730950755E+03  0.25500000000E-02 0.  1.
    8880022    1    1    2    0    0  0.18232764162E+03 -0.64610541468E+03 -0.23635806506E+03  0.72797827146E+03  0.15294330000E+03 0.  0.
    8880022    1    1    2    0    0 -0.18232764162E+03  0.64610541468E+03  0.20942770231E+04  0.22045597017E+04  0.15294330000E+03 0.  0.
<mgrwt>
<rscale>  0 0.68853993E+03</rscale>
<asrwt>0</asrwt>
<pdfrwt beam="1">  1        2 0.36849669E+00 0.68853993E+03</pdfrwt>
<pdfrwt beam="2">  1       -2 0.82663001E-01 0.68853993E+03</pdfrwt>
<totfact> 0.54361870E+00</totfact>
</mgrwt>
</event>
<event>
 4    1  0.4880711E-008  0.7955895E+03  0.7818608E-02  0.9566423E-01
          2   -1    0    0  501    0  0.00000000000E+00  0.00000000000E+00  0.10682059860E+04  0.10682059860E+04  0.25500000000E-02 0. -1.
         -2   -1    0    0    0  501 -0.00000000000E+00 -0.00000000000E+00 -0.98002380443E+03  0.98002380443E+03  0.25500000000E-02 0.  1.
    8880022    1    1    2    0    0  0.50758684129E+02  0.77909851281E+03  0.68804242620E+03  0.10518388517E+04  0.15294330000E+03 0.  0.
    8880022    1    1    2    0    0 -0.50758684129E+02 -0.77909851281E+03 -0.59986024464E+03  0.99639093873E+03  0.15294330000E+03 0.  0.
<mgrwt>
<rscale>  0 0.79558946E+03</rscale>
<asrwt>0</asrwt>
<pdfrwt beam="1">  1        2 0.16433938E+00 0.79558946E+03</pdfrwt>
<pdfrwt beam="2">  1       -2 0.15077289E+00 0.79558946E+03</pdfrwt>
<totfact> 0.68302035E+00</totfact>
</mgrwt>
</event>
<event>
 4    1  0.4880711E-008  0.4804912E+03  0.7818608E-02  0.1019000E+00
         -2   -1    0    0    0  501 -0.00000000000E+00  0.00000000000E+00  0.20535038530E+04  0.20535038530E+04  0.25500000000E-02 0.  1.
          2   -1    0    0  501    0  0.00000000000E+00 -0.00000000000E+00 -0.25266285338E+03  0.25266285340E+03  0.25500000000E-02 0. -1.
    8880022    1    1    2    0    0  0.44914852118E+03  0.75800462073E+02  0.41372036365E+02  0.48226901470E+03  0.15294330000E+03 0.  0.
    8880022    1    1    2    0    0 -0.44914852118E+03 -0.75800462073E+02  0.17594689633E+04  0.18238976917E+04  0.15294330000E+03 0.  0.
<mgrwt>
<rscale>  0 0.48049116E+03</rscale>
<asrwt>0</asrwt>
<pdfrwt beam="1">  1        2 0.38871210E-01 0.48049116E+03</pdfrwt>
<pdfrwt beam="2">  1       -2 0.31592366E+00 0.48049116E+03</pdfrwt>
<totfact> 0.36860974E+00</totfact>
</mgrwt>
</event>
<event>
 4    1  0.4880711E-008  0.6320739E+03  0.7818608E-02  0.9841010E-01
          2   -1    0    0  501    0  0.00000000000E+00  0.00000000000E+00  0.30021546478E+04  0.30021546478E+04  0.25500000000E-02 0. -1.
         -2   -1    0    0    0  501 -0.00000000000E+00 -0.00000000000E+00 -0.50167331062E+03  0.50167331063E+03  0.25500000000E-02 0.  1.
    8880022    1    1    2    0    0  0.61274819371E+03  0.25795469441E+02 -0.25144084885E+03  0.68024988689E+03  0.15294330000E+03 0.  0.
    8880022    1    1    2    0    0 -0.61274819371E+03 -0.25795469441E+02  0.27519221860E+04  0.28235780715E+04  0.15294330000E+03 0.  0.
<mgrwt>
<rscale>  0 0.63207389E+03</rscale>
<asrwt>0</asrwt>
<pdfrwt beam="1">  1        2 0.46186996E+00 0.63207389E+03</pdfrwt>
<pdfrwt beam="2">  1       -2 0.77180508E-01 0.63207389E+03</pdfrwt>
<totfact> 0.28495840E+00</totfact>
</mgrwt>
</event>
<event>
 4    1  0.4880711E-008  0.7789790E+03  0.7818608E-02  0.9590953E-01
         -2   -1    0    0    0  501 -0.00000000000E+00  0.00000000000E+00  0.63971217821E+03  0.63971217821E+03  0.25500000000E-02 0.  1.
          2   -1    0    0  501    0  0.00000000000E+00 -0.00000000000E+00 -0.39305670982E+04  0.39305670982E+04  0.25500000000E-02 0. -1.
    8880022    1    1    2    0    0  0.49246812578E+03 -0.58385936052E+03 -0.36358218796E+04  0.37183341702E+04  0.15294330000E+03 0.  0.
    8880022    1    1    2    0    0 -0.49246812578E+03  0.58385936052E+03  0.34496695963E+03  0.85194510623E+03  0.15294330000E+03 0.  0.
<mgrwt>
<rscale>  0 0.77897899E+03</rscale>
<asrwt>0</asrwt>
<pdfrwt beam="1">  1        2 0.60470262E+00 0.77897899E+03</pdfrwt>
<pdfrwt beam="2">  1       -2 0.98417260E-01 0.77897899E+03</pdfrwt>
<totfact> 0.36760341E-01</totfact>
</mgrwt>
</event>
<event>
 4    1  0.4880711E-008  0.5767913E+03  0.7818608E-02  0.9954762E-01
         -2   -1    0    0    0  501 -0.00000000000E+00  0.00000000000E+00  0.67197347475E+03  0.67197347475E+03  0.25500000000E-02 0.  1.
          2   -1    0    0  501    0  0.00000000000E+00 -0.00000000000E+00 -0.15723599597E+04  0.15723599597E+04  0.25500000000E-02 0. -1.
    8880022    1    1    2    0    0  0.52914093206E+03  0.17119132809E+03 -0.13790385679E+04  0.14948028704E+04  0.15294330000E+03 0.  0.
    8880022    1    1    2    0    0 -0.52914093206E+03 -0.17119132809E+03  0.47865208296E+03  0.74953056397E+03  0.15294330000E+03 0.  0.
<mgrwt>
<rscale>  0 0.57679134E+03</rscale>
<asrwt>0</asrwt>
<pdfrwt beam="1">  1        2 0.24190153E+00 0.57679134E+03</pdfrwt>
<pdfrwt beam="2">  1       -2 0.10338054E+00 0.57679134E+03</pdfrwt>
<totfact> 0.93032377E+00</totfact>
</mgrwt>
</event>
<event>
 4    1  0.4880711E-008  0.7148402E+03  0.7818608E-02  0.9692185E-01
         -2   -1    0    0    0  501 -0.00000000000E+00  0.00000000000E+00  0.96037830793E+03  0.96037830793E+03  0.25500000000E-02 0.  1.
          2   -1    0    0  501    0  0.00000000000E+00 -0.00000000000E+00 -0.19475508584E+04  0.19475508584E+04  0.25500000000E-02 0. -1.
    8880022    1    1    2    0    0 -0.53212660728E+02  0.69625659807E+03 -0.17331251326E+04  0.18747584420E+04  0.15294330000E+03 0.  0.
    8880022    1    1    2    0    0  0.53212660728E+02 -0.69625659807E+03  0.74595258218E+03  0.10331707243E+04  0.15294330000E+03 0.  1.
<mgrwt>
<rscale>  0 0.71484019E+03</rscale>
<asrwt>0</asrwt>
<pdfrwt beam="1">  1        2 0.29962321E+00 0.71484019E+03</pdfrwt>
<pdfrwt beam="2">  1       -2 0.14775051E+00 0.71484019E+03</pdfrwt>
<totfact> 0.23246090E+00</totfact>
</mgrwt>
</event>
<event>
 4    1  0.4880711E-008  0.4078919E+03  0.7818608E-02  0.1041081E+00
         -2   -1    0    0    0  501 -0.00000000000E+00  0.00000000000E+00  0.18101579877E+03  0.18101579879E+03  0.25500000000E-02 0.  1.
          2   -1    0    0  501    0  0.00000000000E+00 -0.00000000000E+00 -0.92955538719E+03  0.92955538720E+03  0.25500000000E-02 0. -1.
    8880022    1    1    2    0    0 -0.24997595073E+03  0.28371844380E+03 -0.31544362256E+03  0.51563597947E+03  0.15294330000E+03 0. -1.
    8880022    1    1    2    0    0  0.24997595073E+03 -0.28371844380E+03 -0.43309596586E+03  0.59493520652E+03  0.15294330000E+03 0.  1.
<mgrwt>
<rscale>  0 0.40789188E+03</rscale>
<asrwt>0</asrwt>
<pdfrwt beam="1">  1        2 0.14300852E+00 0.40789188E+03</pdfrwt>
<pdfrwt beam="2">  1       -2 0.27848585E-01 0.40789188E+03</pdfrwt>
<totfact> 0.33874150E+02</totfact>
</mgrwt>
</event>
<event>
 4    1  0.4921282E-008  0.1063021E+04  0.7818608E-02  0.9242003E-01
          2   -1    0    0  501    0  0.00000000000E+00  0.00000000000E+00  0.39714457642E+04  0.39714457642E+04  0.25500000000E-02 0. -1.
         -2   -1    0    0    0  501 -0.00000000000E+00 -0.00000000000E+00 -0.10409504836E+04  0.10409504836E+04  0.25500000000E-02 0.  1.
    8880022    1    1    2    0    0 -0.10139898028E+04 -0.28008330203E+03 -0.67114312594E+03  0.12571581940E+04  0.15294330000E+03 0.  0.
    8880022    1    1    2    0    0  0.10139898028E+04  0.28008330203E+03  0.36016384065E+04  0.37552380538E+04  0.15294330000E+03 0.  0.
<mgrwt>
<rscale>  0 0.10630210E+04</rscale>
<asrwt>0</asrwt>
<pdfrwt beam="1">  1        2 0.61099165E+00 0.10630210E+04</pdfrwt>
<pdfrwt beam="2">  1       -2 0.16014623E+00 0.10630210E+04</pdfrwt>
<totfact> 0.93632505E-02</totfact>
</mgrwt>
</event>
<event>
 4    1  0.4880711E-008  0.4321158E+03  0.7818608E-02  0.1033194E+00
         -2   -1    0    0    0  501 -0.00000000000E+00  0.00000000000E+00  0.88778283487E+03  0.88778283488E+03  0.25500000000E-02 0.  1.
          2   -1    0    0  501    0  0.00000000000E+00 -0.00000000000E+00 -0.36880396078E+03  0.36880396079E+03  0.25500000000E-02 0. -1.
    8880022    1    1    2    0    0  0.25695935987E+03  0.31193643537E+03  0.67134856258E+03  0.79839401165E+03  0.15294330000E+03 0.  0.
    8880022    1    1    2    0    0 -0.25695935987E+03 -0.31193643537E+03 -0.15236968849E+03  0.45819278401E+03  0.15294330000E+03 0.  0.
<mgrwt>
<rscale>  0 0.43211585E+03</rscale>
<asrwt>0</asrwt>
<pdfrwt beam="1">  1        2 0.56739071E-01 0.43211585E+03</pdfrwt>
<pdfrwt beam="2">  1       -2 0.13658197E+00 0.43211585E+03</pdfrwt>
<totfact> 0.34735963E+01</totfact>
</mgrwt>
</event>
<event>
 4    1  0.4880711E-008  0.2200506E+03  0.7818608E-02  0.1133845E+00
         -2   -1    0    0    0  501 -0.00000000000E+00  0.00000000000E+00  0.93724190696E+02  0.93724190731E+02  0.25500000000E-02 0.  1.
          2   -1    0    0  501    0  0.00000000000E+00 -0.00000000000E+00 -0.23674587448E+04  0.23674587448E+04  0.25500000000E-02 0. -1.
    8880022    1    1    2    0    0  0.62533924501E+02 -0.14532766394E+03 -0.22249298515E+04  0.22357851235E+04  0.15294330000E+03 0.  0.
    8880022    1    1    2    0    0 -0.62533924501E+02  0.14532766394E+03 -0.48804702567E+02  0.22539781194E+03  0.15294330000E+03 0.  1.
<mgrwt>
<rscale>  0 0.22005062E+03</rscale>
<asrwt>0</asrwt>
<pdfrwt beam="1">  1        2 0.36422438E+00 0.22005062E+03</pdfrwt>
<pdfrwt beam="2">  1       -2 0.14419108E-01 0.22005062E+03</pdfrwt>
<totfact> 0.17669138E+02</totfact>
</mgrwt>
</event>
<event>
 4    1  0.4880711E-008  0.4738285E+03  0.7818608E-02  0.1020845E+00
          2   -1    0    0  501    0  0.00000000000E+00  0.00000000000E+00  0.13666637608E+04  0.13666637608E+04  0.25500000000E-02 0. -1.
         -2   -1    0    0    0  501 -0.00000000000E+00 -0.00000000000E+00 -0.26856813853E+03  0.26856813855E+03  0.25500000000E-02 0.  1.
    8880022    1    1    2    0    0 -0.43937309684E+03 -0.89850213063E+02  0.39549494645E+02  0.47547617665E+03  0.15294330000E+03 0.  1.
    8880022    1    1    2    0    0  0.43937309684E+03  0.89850213063E+02  0.10585461276E+04  0.11597557227E+04  0.15294330000E+03 0.  0.
<mgrwt>
<rscale>  0 0.47382848E+03</rscale>
<asrwt>0</asrwt>
<pdfrwt beam="1">  1        2 0.21025597E+00 0.47382848E+03</pdfrwt>
<pdfrwt beam="2">  1       -2 0.41318175E-01 0.47382848E+03</pdfrwt>
<totfact> 0.88060501E+01</totfact>
</mgrwt>
</event>
<event>
 4    1  0.4880711E-008  0.2772606E+03  0.7818608E-02  0.1097195E+00
          2   -1    0    0  501    0  0.00000000000E+00  0.00000000000E+00  0.31950106104E+04  0.31950106104E+04  0.25500000000E-02 0. -1.
         -2   -1    0    0    0  501 -0.00000000000E+00 -0.00000000000E+00 -0.12413265586E+03  0.12413265588E+03  0.25500000000E-02 0.  1.
    8880022    1    1    2    0    0 -0.15980063557E+03  0.16716915366E+03  0.45358598760E+02  0.28094630192E+03  0.15294330000E+03 0.  0.
    8880022    1    1    2    0    0  0.15980063557E+03 -0.16716915366E+03  0.30255193558E+04  0.30381969644E+04  0.15294330000E+03 0. -1.
<mgrwt>
<rscale>  0 0.27726057E+03</rscale>
<asrwt>0</asrwt>
<pdfrwt beam="1">  1        2 0.49154011E+00 0.27726057E+03</pdfrwt>
<pdfrwt beam="2">  1       -2 0.19097331E-01 0.27726057E+03</pdfrwt>
<totfact> 0.36297773E+01</totfact>
</mgrwt>
</event>
<event>
 4    1  0.4880711E-008  0.8866296E+03  0.7818608E-02  0.9442451E-01
         -2   -1    0    0    0  501 -0.00000000000E+00  0.00000000000E+00  0.18097105678E+04  0.18097105678E+04  0.25500000000E-02 0.  1.
          2   -1    0    0  501    0  0.00000000000E+00 -0.00000000000E+00 -0.10365342317E+04  0.10365342317E+04  0.25500000000E-02 0. -1.
    8880022    1    1    2    0    0  0.85720811994E+03 -0.16707697274E+03 -0.69809349434E+03  0.11284709370E+04  0.15294330000E+03 0.  0.
    8880022    1    1    2    0    0 -0.85720811994E+03  0.16707697274E+03  0.14712698304E+04  0.17177738625E+04  0.15294330000E+03 0.  0.
<mgrwt>
<rscale>  0 0.88662965E+03</rscale>
<asrwt>0</asrwt>
<pdfrwt beam="1">  1        2 0.15946681E+00 0.88662965E+03</pdfrwt>
<pdfrwt beam="2">  1       -2 0.27841701E+00 0.88662965E+03</pdfrwt>
<totfact> 0.10457324E+00</totfact>
</mgrwt>
</event>
<event>
 4    1  0.4880711E-008  0.1679857E+04  0.7818608E-02  0.8772937E-01
          2   -1    0    0  501    0  0.00000000000E+00  0.00000000000E+00  0.27386689265E+04  0.27386689265E+04  0.25500000000E-02 0. -1.
         -2   -1    0    0    0  501 -0.00000000000E+00 -0.00000000000E+00 -0.10538223547E+04  0.10538223547E+04  0.25500000000E-02 0.  1.
    8880022    1    1    2    0    0  0.51707577031E+03  0.15909624968E+04  0.11251318726E+04  0.20218413395E+04  0.15294330000E+03 0.  0.
    8880022    1    1    2    0    0 -0.51707577031E+03 -0.15909624968E+04  0.55971469921E+03  0.17706499417E+04  0.15294330000E+03 0.  0.
<mgrwt>
<rscale>  0 0.16798573E+04</rscale>
<asrwt>0</asrwt>
<pdfrwt beam="1">  1        2 0.42133367E+00 0.16798573E+04</pdfrwt>
<pdfrwt beam="2">  1       -2 0.16212652E+00 0.16798573E+04</pdfrwt>
<totfact> 0.56711097E-01</totfact>
</mgrwt>
</event>
<event>
 4    1  0.4880711E-008  0.4802615E+03  0.7818608E-02  0.1019063E+00
         -2   -1    0    0    0  501 -0.00000000000E+00  0.00000000000E+00  0.33413367913E+03  0.33413367914E+03  0.25500000000E-02 0.  1.
          2   -1    0    0  501    0  0.00000000000E+00 -0.00000000000E+00 -0.23033968630E+04  0.23033968630E+04  0.25500000000E-02 0. -1.
    8880022    1    1    2    0    0  0.41736350540E+03 -0.18184389768E+03  0.11897395359E+03  0.49477869135E+03  0.15294330000E+03 0.  0.
    8880022    1    1    2    0    0 -0.41736350540E+03  0.18184389768E+03 -0.20882371374E+04  0.21427518508E+04  0.15294330000E+03 0.  0.
<mgrwt>
<rscale>  0 0.48026155E+03</rscale>
<asrwt>0</asrwt>
<pdfrwt beam="1">  1        2 0.35436874E+00 0.48026155E+03</pdfrwt>
<pdfrwt beam="2">  1       -2 0.51405183E-01 0.48026155E+03</pdfrwt>
<totfact> 0.17687426E+01</totfact>
</mgrwt>
</event>
<event>
 4    1  0.4880711E-008  0.6422005E+03  0.7818608E-02  0.9821526E-01
          2   -1    0    0  501    0  0.00000000000E+00  0.00000000000E+00  0.86283183928E+03  0.86283183929E+03  0.25500000000E-02 0. -1.
         -2   -1    0    0    0  501 -0.00000000000E+00 -0.00000000000E+00 -0.86495462263E+03  0.86495462264E+03  0.25500000000E-02 0.  1.
    8880022    1    1    2    0    0  0.57248043376E+03 -0.24758016198E+03 -0.57889307590E+03  0.86460316330E+03  0.15294330000E+03 0.  0.
    8880022    1    1    2    0    0 -0.57248043376E+03  0.24758016198E+03  0.57677029255E+03  0.86318329862E+03  0.15294330000E+03 0.  0.
<mgrwt>
<rscale>  0 0.64220046E+03</rscale>
<asrwt>0</asrwt>
<pdfrwt beam="1">  1        2 0.13274336E+00 0.64220046E+03</pdfrwt>
<pdfrwt beam="2">  1       -2 0.13306994E+00 0.64220046E+03</pdfrwt>
<totfact> 0.13092847E+01</totfact>
</mgrwt>
</event>
<event>
 4    1  0.4880711E-008  0.4159075E+03  0.7818608E-02  0.1038407E+00
          2   -1    0    0  501    0  0.00000000000E+00  0.00000000000E+00  0.50134846266E+03  0.50134846266E+03  0.25500000000E-02 0. -1.
         -2   -1    0    0    0  501 -0.00000000000E+00 -0.00000000000E+00 -0.53904729921E+03  0.53904729922E+03  0.25500000000E-02 0.  1.
    8880022    1    1    2    0    0  0.65681546448E+02 -0.38114733983E+03 -0.33093819603E+03  0.53150644664E+03  0.15294330000E+03 0.  0.
    8880022    1    1    2    0    0 -0.65681546448E+02  0.38114733983E+03  0.29323935948E+03  0.50888931524E+03  0.15294330000E+03 0.  0.
<mgrwt>
<rscale>  0 0.41590746E+03</rscale>
<asrwt>0</asrwt>
<pdfrwt beam="1">  1        2 0.77130532E-01 0.41590746E+03</pdfrwt>
<pdfrwt beam="2">  1       -2 0.82930354E-01 0.41590746E+03</pdfrwt>
<totfact> 0.81119596E+01</totfact>
</mgrwt>
</event>
<event>
 4    1  0.4880711E-008  0.3327301E+03  0.7818608E-02  0.1069935E+00
          2   -1    0    0  501    0  0.00000000000E+00  0.00000000000E+00  0.30729368362E+03  0.30729368363E+03  0.25500000000E-02 0. -1.
         -2   -1    0    0    0  501 -0.00000000000E+00 -0.00000000000E+00 -0.69068227340E+03  0.69068227341E+03  0.25500000000E-02 0.  1.
    8880022    1    1    2    0    0  0.22030951084E+03  0.19692990703E+03  0.15343170167E+03  0.36640225019E+03  0.15294330000E+03 0.  0.
    8880022    1    1    2    0    0 -0.22030951084E+03 -0.19692990703E+03 -0.53682029146E+03  0.63157370685E+03  0.15294330000E+03 0.  0.
<mgrwt>
<rscale>  0 0.33273010E+03</rscale>
<asrwt>0</asrwt>
<pdfrwt beam="1">  1        2 0.47275952E-01 0.33273010E+03</pdfrwt>
<pdfrwt beam="2">  1       -2 0.10625881E+00 0.33273010E+03</pdfrwt>
<totfact> 0.79379275E+01</totfact>
</mgrwt>
</event>
<event>
 4    1  0.4880711E-008  0.3431088E+03  0.7818608E-02  0.1065480E+00
          2   -1    0    0  501    0  0.00000000000E+00  0.00000000000E+00  0.47475491651E+03  0.47475491651E+03  0.25500000000E-02 0. -1.
         -2   -1    0    0    0  501 -0.00000000000E+00 -0.00000000000E+00 -0.11595532003E+04  0.11595532003E+04  0.25500000000E-02 0.  1.
    8880022    1    1    2    0    0  0.18728608951E+03 -0.24342543421E+03 -0.10669308765E+04  0.11207431327E+04  0.15294330000E+03 0.  1.
    8880022    1    1    2    0    0 -0.18728608951E+03  0.24342543421E+03  0.38213259276E+03  0.51356498402E+03  0.15294330000E+03 0.  0.
<mgrwt>
<rscale>  0 0.34310884E+03</rscale>
<asrwt>0</asrwt>
<pdfrwt beam="1">  1        2 0.73039218E-01 0.34310884E+03</pdfrwt>
<pdfrwt beam="2">  1       -2 0.17839280E+00 0.34310884E+03</pdfrwt>
<totfact> 0.13098907E+01</totfact>
</mgrwt>
</event>
<event>
 4    1  0.4880711E-008  0.2999566E+03  0.7818608E-02  0.1085262E+00
          2   -1    0    0  501    0  0.00000000000E+00  0.00000000000E+00  0.46884976365E+04  0.46884976365E+04  0.25500000000E-02 0. -1.
         -2   -1    0    0    0  501 -0.00000000000E+00 -0.00000000000E+00 -0.16191479603E+03  0.16191479605E+03  0.25500000000E-02 0.  1.
    8880022    1    1    2    0    0 -0.22196926547E+03  0.13157501250E+03  0.45402470140E+04  0.45501447164E+04  0.15294330000E+03 0.  0.
    8880022    1    1    2    0    0  0.22196926547E+03 -0.13157501250E+03 -0.13664173535E+02  0.30026771618E+03  0.15294330000E+03 0.  1.
<mgrwt>
<rscale>  0 0.29995665E+03</rscale>
<asrwt>0</asrwt>
<pdfrwt beam="1">  1        2 0.72130723E+00 0.29995665E+03</pdfrwt>
<pdfrwt beam="2">  1       -2 0.24909972E-01 0.29995665E+03</pdfrwt>
<totfact> 0.15775571E+00</totfact>
</mgrwt>
</event>
<event>
 4    1  0.4880711E-008  0.2628166E+03  0.7818608E-02  0.1105463E+00
          2   -1    0    0  501    0  0.00000000000E+00  0.00000000000E+00  0.58553355098E+03  0.58553355098E+03  0.25500000000E-02 0. -1.
         -2   -1    0    0    0  501 -0.00000000000E+00 -0.00000000000E+00 -0.15143200565E+03  0.15143200567E+03  0.25500000000E-02 0.  1.
    8880022    1    1    2    0    0 -0.19761272578E+03  0.81425478403E+02  0.43823671414E+02  0.26644523849E+03  0.15294330000E+03 0.  0.
    8880022    1    1    2    0    0  0.19761272578E+03 -0.81425478403E+02  0.39027787391E+03  0.47052031816E+03  0.15294330000E+03 0.  0.
<mgrwt>
<rscale>  0 0.26281657E+03</rscale>
<asrwt>0</asrwt>
<pdfrwt beam="1">  1        2 0.90082084E-01 0.26281657E+03</pdfrwt>
<pdfrwt beam="2">  1       -2 0.23297232E-01 0.26281657E+03</pdfrwt>
<totfact> 0.83867442E+02</totfact>
</mgrwt>
</event>
<event>
 4    1  0.4880711E-008  0.2573698E+03  0.7818608E-02  0.1108734E+00
         -2   -1    0    0    0  501 -0.00000000000E+00  0.00000000000E+00  0.44759210318E+02  0.44759210391E+02  0.25500000000E-02 0.  1.
          2   -1    0    0  501    0  0.00000000000E+00 -0.00000000000E+00 -0.31910517085E+04  0.31910517085E+04  0.25500000000E-02 0. -1.
    8880022    1    1    2    0    0 -0.18268878715E+03 -0.97326042496E+02 -0.38838637188E+03  0.46592185866E+03  0.15294330000E+03 0.  0.
    8880022    1    1    2    0    0  0.18268878715E+03  0.97326042496E+02 -0.27579061263E+04  0.27698890602E+04  0.15294330000E+03 0.  0.
<mgrwt>
<rscale>  0 0.25736978E+03</rscale>
<asrwt>0</asrwt>
<pdfrwt beam="1">  1        2 0.49093085E+00 0.25736978E+03</pdfrwt>
<pdfrwt beam="2">  1       -2 0.68860349E-02 0.25736978E+03</pdfrwt>
<totfact> 0.19203873E+02</totfact>
</mgrwt>
</event>
<event>
 4    1  0.4880711E-008  0.3634462E+03  0.7818608E-02  0.1057228E+00
          2   -1    0    0  501    0  0.00000000000E+00  0.00000000000E+00  0.21605639410E+04  0.21605639410E+04  0.25500000000E-02 0. -1.
         -2   -1    0    0    0  501 -0.00000000000E+00 -0.00000000000E+00 -0.26238092106E+03  0.26238092107E+03  0.25500000000E-02 0.  1.
    8880022    1    1    2    0    0 -0.47064063219E+02  0.32632267719E+03  0.20100720314E+04  0.20426655968E+04  0.15294330000E+03 0.  0.
    8880022    1    1    2    0    0  0.47064063219E+02 -0.32632267719E+03 -0.11188901150E+03  0.38027926528E+03  0.15294330000E+03 0.  0.
<mgrwt>
<rscale>  0 0.36344624E+03</rscale>
<asrwt>0</asrwt>
<pdfrwt beam="1">  1        2 0.33239445E+00 0.36344624E+03</pdfrwt>
<pdfrwt beam="2">  1       -2 0.40366296E-01 0.36344624E+03</pdfrwt>
<totfact> 0.35175594E+01</totfact>
</mgrwt>
</event>
<event>
 4    1  0.4880711E-008  0.8707494E+03  0.7818608E-02  0.9462903E-01
          2   -1    0    0  501    0  0.00000000000E+00  0.00000000000E+00  0.91016420558E+03  0.91016420558E+03  0.25500000000E-02 0. -1.
         -2   -1    0    0    0  501 -0.00000000000E+00 -0.00000000000E+00 -0.20122284373E+04  0.20122284373E+04  0.25500000000E-02 0.  1.
    8880022    1    1    2    0    0  0.52565794785E+03  0.67712371792E+03  0.56753301778E+03  0.10393739398E+04  0.15294330000E+03 0.  0.
    8880022    1    1    2    0    0 -0.52565794785E+03 -0.67712371792E+03 -0.16695972495E+04  0.18830187030E+04  0.15294330000E+03 0.  0.
<mgrwt>
<rscale>  0 0.87074937E+03</rscale>
<asrwt>0</asrwt>
<pdfrwt beam="1">  1        2 0.14002526E+00 0.87074937E+03</pdfrwt>
<pdfrwt beam="2">  1       -2 0.30957361E+00 0.87074937E+03</pdfrwt>
<totfact> 0.82168567E-01</totfact>
</mgrwt>
</event>
<event>
 4    1  0.4880711E-008  0.6980231E+03  0.7818608E-02  0.9720619E-01
          2   -1    0    0  501    0  0.00000000000E+00  0.00000000000E+00  0.61117114096E+03  0.61117114097E+03  0.25500000000E-02 0. -1.
         -2   -1    0    0    0  501 -0.00000000000E+00 -0.00000000000E+00 -0.95754052957E+03  0.95754052958E+03  0.25500000000E-02 0.  1.
    8880022    1    1    2    0    0 -0.34819755988E+03  0.58532303897E+03 -0.49413121490E+03  0.85522038750E+03  0.15294330000E+03 0.  0.
    8880022    1    1    2    0    0  0.34819755988E+03 -0.58532303897E+03  0.14776182629E+03  0.71349128304E+03  0.15294330000E+03 0.  0.
<mgrwt>
<rscale>  0 0.69802310E+03</rscale>
<asrwt>0</asrwt>
<pdfrwt beam="1">  1        2 0.94026330E-01 0.69802310E+03</pdfrwt>
<pdfrwt beam="2">  1       -2 0.14731393E+00 0.69802310E+03</pdfrwt>
<totfact> 0.15541534E+01</totfact>
</mgrwt>
</event>
<event>
 4    1  0.5237168E-008  0.4956300E+03  0.7818608E-02  0.1014926E+00
          2   -1    0    0  501    0  0.00000000000E+00  0.00000000000E+00  0.10741346298E+04  0.10741346298E+04  0.25500000000E-02 0. -1.
         -2   -1    0    0    0  501 -0.00000000000E+00 -0.00000000000E+00 -0.10844260498E+04  0.10844260498E+04  0.25500000000E-02 0.  1.
    8880022    1    1    2    0    0 -0.33938787986E+03  0.32722057144E+03  0.95359897940E+03  0.10747093104E+04  0.15294330000E+03 0.  0.
    8880022    1    1    2    0    0  0.33938787986E+03 -0.32722057144E+03 -0.96389039938E+03  0.10838513691E+04  0.15294330000E+03 0.  0.
<mgrwt>
<rscale>  0 0.49562999E+03</rscale>
<asrwt>0</asrwt>
<pdfrwt beam="1">  1        2 0.16525148E+00 0.49562999E+03</pdfrwt>
<pdfrwt beam="2">  1       -2 0.16683478E+00 0.49562999E+03</pdfrwt>
<totfact> 0.54111423E+00</totfact>
</mgrwt>
</event>
<event>
 4    1  0.4880711E-008  0.5242153E+03  0.7818608E-02  0.1007645E+00
         -2   -1    0    0    0  501 -0.00000000000E+00  0.00000000000E+00  0.41131122407E+03  0.41131122408E+03  0.25500000000E-02 0.  1.
          2   -1    0    0  501    0  0.00000000000E+00 -0.00000000000E+00 -0.18064196648E+04  0.18064196648E+04  0.25500000000E-02 0. -1.
    8880022    1    1    2    0    0 -0.42056548175E+03  0.27301037152E+03  0.18268254495E+03  0.55513471576E+03  0.15294330000E+03 0.  0.
    8880022    1    1    2    0    0  0.42056548175E+03 -0.27301037152E+03 -0.15777909857E+04  0.16625961732E+04  0.15294330000E+03 0.  0.
<mgrwt>
<rscale>  0 0.52421526E+03</rscale>
<asrwt>0</asrwt>
<pdfrwt beam="1">  1        2 0.27791071E+00 0.52421526E+03</pdfrwt>
<pdfrwt beam="2">  1       -2 0.63278651E-01 0.52421526E+03</pdfrwt>
<totfact> 0.21123721E+01</totfact>
</mgrwt>
</event>
<event>
 4    1  0.4880711E-008  0.2842865E+03  0.7818608E-02  0.1093370E+00
         -2   -1    0    0    0  501 -0.00000000000E+00  0.00000000000E+00  0.15468197045E+03  0.15468197047E+03  0.25500000000E-02 0.  1.
          2   -1    0    0  501    0  0.00000000000E+00 -0.00000000000E+00 -0.14775517417E+04  0.14775517417E+04  0.25500000000E-02 0. -1.
    8880022    1    1    2    0    0 -0.23881832550E+03  0.19824136406E+02 -0.52924812720E+01  0.28433580912E+03  0.15294330000E+03 0.  1.
    8880022    1    1    2    0    0  0.23881832550E+03 -0.19824136406E+02 -0.13175772900E+04  0.13478979031E+04  0.15294330000E+03 0.  0.
<mgrwt>
<rscale>  0 0.28428655E+03</rscale>
<asrwt>0</asrwt>
<pdfrwt beam="1">  1        2 0.22731564E+00 0.28428655E+03</pdfrwt>
<pdfrwt beam="2">  1       -2 0.23797227E-01 0.28428655E+03</pdfrwt>
<totfact> 0.21895828E+02</totfact>
</mgrwt>
</event>
<event>
 4    1  0.4880711E-008  0.7364147E+03  0.7818608E-02  0.9656908E-01
          2   -1    0    0  501    0  0.00000000000E+00  0.00000000000E+00  0.46839043211E+03  0.46839043212E+03  0.25500000000E-02 0. -1.
         -2   -1    0    0    0  501 -0.00000000000E+00 -0.00000000000E+00 -0.19615774640E+04  0.19615774640E+04  0.25500000000E-02 0.  1.
    8880022    1    1    2    0    0  0.36984924748E+02  0.71940747005E+03  0.31144444478E+02  0.73707300999E+03  0.15294330000E+03 0.  0.
    8880022    1    1    2    0    0 -0.36984924748E+02 -0.71940747005E+03 -0.15243314763E+04  0.16928948861E+04  0.15294330000E+03 0.  0.
<mgrwt>
<rscale>  0 0.73641472E+03</rscale>
<asrwt>0</asrwt>
<pdfrwt beam="1">  1        2 0.72060068E-01 0.73641472E+03</pdfrwt>
<pdfrwt beam="2">  1       -2 0.30178114E+00 0.73641472E+03</pdfrwt>
<totfact> 0.21491074E+00</totfact>
</mgrwt>
</event>
<event>
 4    1  0.4880711E-008  0.4372674E+03  0.7818608E-02  0.1031589E+00
          2   -1    0    0  501    0  0.00000000000E+00  0.00000000000E+00  0.63006521968E+03  0.63006521969E+03  0.25500000000E-02 0. -1.
         -2   -1    0    0    0  501 -0.00000000000E+00 -0.00000000000E+00 -0.40983911387E+03  0.40983911388E+03  0.25500000000E-02 0.  1.
    8880022    1    1    2    0    0  0.38683803970E+03 -0.13478664402E+03  0.37500856774E+03  0.57605050756E+03  0.15294330000E+03 0.  0.
    8880022    1    1    2    0    0 -0.38683803970E+03  0.13478664402E+03 -0.15478246193E+03  0.46385382601E+03  0.15294330000E+03 0.  0.
<mgrwt>
<rscale>  0 0.43726738E+03</rscale>
<asrwt>0</asrwt>
<pdfrwt beam="1">  1        2 0.96933110E-01 0.43726738E+03</pdfrwt>
<pdfrwt beam="2">  1       -2 0.63052172E-01 0.43726738E+03</pdfrwt>
<totfact> 0.11264646E+02</totfact>
</mgrwt>
</event>
<event>
 4    1  0.4880711E-008  0.1100623E+04  0.7818608E-02  0.9204585E-01
         -2   -1    0    0    0  501 -0.00000000000E+00  0.00000000000E+00  0.18928694240E+04  0.18928694240E+04  0.25500000000E-02 0.  1.
          2   -1    0    0  501    0  0.00000000000E+00 -0.00000000000E+00 -0.86249427913E+03  0.86249427914E+03  0.25500000000E-02 0. -1.
    8880022    1    1    2    0    0  0.24424206366E+03  0.10622262858E+04  0.12149719312E+04  0.16393679619E+04  0.15294330000E+03 0.  0.
    8880022    1    1    2    0    0 -0.24424206366E+03 -0.10622262858E+04 -0.18459678629E+03  0.11159957413E+04  0.15294330000E+03 0.  0.
<mgrwt>
<rscale>  0 0.11006228E+04</rscale>
<asrwt>0</asrwt>
<pdfrwt beam="1">  1        2 0.13269143E+00 0.11006228E+04</pdfrwt>
<pdfrwt beam="2">  1       -2 0.29121068E+00 0.11006228E+04</pdfrwt>
<totfact> 0.11081140E+00</totfact>
</mgrwt>
</event>
<event>
 4    1  0.4880711E-008  0.2800138E+03  0.7818608E-02  0.1095681E+00
         -2   -1    0    0    0  501 -0.00000000000E+00  0.00000000000E+00  0.50755707000E+02  0.50755707064E+02  0.25500000000E-02 0.  1.
          2   -1    0    0  501    0  0.00000000000E+00 -0.00000000000E+00 -0.20757888432E+04  0.20757888432E+04  0.25500000000E-02 0. -1.
    8880022    1    1    2    0    0  0.15922781880E+03  0.17222820494E+03 -0.15502824774E+04  0.15753677239E+04  0.15294330000E+03 0.  0.
    8880022    1    1    2    0    0 -0.15922781880E+03 -0.17222820494E+03 -0.47475065889E+03  0.55117682643E+03  0.15294330000E+03 0.  0.
<mgrwt>
<rscale>  0 0.28001376E+03</rscale>
<asrwt>0</asrwt>
<pdfrwt beam="1">  1        2 0.31935206E+00 0.28001376E+03</pdfrwt>
<pdfrwt beam="2">  1       -2 0.78085719E-02 0.28001376E+03</pdfrwt>
<totfact> 0.66519625E+02</totfact>
</mgrwt>
</event>
<event>
 4    1  0.4880711E-008  0.9395627E+03  0.7818608E-02  0.9377434E-01
          2   -1    0    0  501    0  0.00000000000E+00  0.00000000000E+00  0.41378463020E+04  0.41378463020E+04  0.25500000000E-02 0. -1.
         -2   -1    0    0    0  501 -0.00000000000E+00 -0.00000000000E+00 -0.54015779520E+03  0.54015779520E+03  0.25500000000E-02 0.  1.
    8880022    1    1    2    0    0 -0.71727205338E+03 -0.58728800977E+03  0.36182163593E+04  0.37382171795E+04  0.15294330000E+03 0.  0.
    8880022    1    1    2    0    0  0.71727205338E+03  0.58728800977E+03 -0.20527852533E+02  0.93978691772E+03  0.15294330000E+03 0.  0.
<mgrwt>
<rscale>  0 0.93956270E+03</rscale>
<asrwt>0</asrwt>
<pdfrwt beam="1">  1        2 0.63659176E+00 0.93956270E+03</pdfrwt>
<pdfrwt beam="2">  1       -2 0.83101196E-01 0.93956270E+03</pdfrwt>
<totfact> 0.35736943E-01</totfact>
</mgrwt>
</event>
<event>
 4    1  0.4880711E-008  0.5986078E+03  0.7818608E-02  0.9908299E-01
         -2   -1    0    0    0  501 -0.00000000000E+00  0.00000000000E+00  0.40840233906E+03  0.40840233907E+03  0.25500000000E-02 0.  1.
          2   -1    0    0  501    0  0.00000000000E+00 -0.00000000000E+00 -0.14006067514E+04  0.14006067514E+04  0.25500000000E-02 0. -1.
    8880022    1    1    2    0    0 -0.19148864630E+03 -0.54614264110E+03 -0.10489304245E+04  0.12077194933E+04  0.15294330000E+03 0.  0.
    8880022    1    1    2    0    0  0.19148864630E+03  0.54614264110E+03  0.56726012225E+02  0.60128959709E+03  0.15294330000E+03 0.  1.
<mgrwt>
<rscale>  0 0.59860783E+03</rscale>
<asrwt>0</asrwt>
<pdfrwt beam="1">  1        2 0.21547796E+00 0.59860783E+03</pdfrwt>
<pdfrwt beam="2">  1       -2 0.62831130E-01 0.59860783E+03</pdfrwt>
<totfact> 0.35316619E+01</totfact>
</mgrwt>
</event>
<event>
 4    1  0.4880711E-008  0.6171935E+03  0.7818608E-02  0.9870363E-01
          2   -1    0    0  501    0  0.00000000000E+00  0.00000000000E+00  0.15579211071E+04  0.15579211071E+04  0.25500000000E-02 0. -1.
         -2   -1    0    0    0  501 -0.00000000000E+00 -0.00000000000E+00 -0.36038255769E+03  0.36038255770E+03  0.25500000000E-02 0.  1.
    8880022    1    1    2    0    0  0.11778224080E+03  0.58622815568E+03  0.54899140680E+02  0.61963027316E+03  0.15294330000E+03 0.  0.
    8880022    1    1    2    0    0 -0.11778224080E+03 -0.58622815568E+03  0.11426394088E+04  0.12986733917E+04  0.15294330000E+03 0.  0.
<mgrwt>
<rscale>  0 0.61719345E+03</rscale>
<asrwt>0</asrwt>
<pdfrwt beam="1">  1        2 0.23968017E+00 0.61719345E+03</pdfrwt>
<pdfrwt beam="2">  1       -2 0.55443471E-01 0.61719345E+03</pdfrwt>
<totfact> 0.37464556E+01</totfact>
</mgrwt>
</event>
<event>
 4    1  0.4880711E-008  0.5639770E+03  0.7818608E-02  0.9983096E-01
         -2   -1    0    0    0  501 -0.00000000000E+00  0.00000000000E+00  0.40122668436E+03  0.40122668437E+03  0.25500000000E-02 0.  1.
          2   -1    0    0  501    0  0.00000000000E+00 -0.00000000000E+00 -0.15717225053E+04  0.15717225053E+04  0.25500000000E-02 0. -1.
    8880022    1    1    2    0    0  0.42506379197E+03 -0.33763766107E+03  0.10923360321E+03  0.57445804938E+03  0.15294330000E+03 0.  1.
    8880022    1    1    2    0    0 -0.42506379197E+03  0.33763766107E+03 -0.12797294241E+04  0.13984911403E+04  0.15294330000E+03 0.  0.
<mgrwt>
<rscale>  0 0.56397701E+03</rscale>
<asrwt>0</asrwt>
<pdfrwt beam="1">  1        2 0.24180346E+00 0.56397701E+03</pdfrwt>
<pdfrwt beam="2">  1       -2 0.61727183E-01 0.56397701E+03</pdfrwt>
<totfact> 0.29637124E+01</totfact>
</mgrwt>
</event>
<event>
 4    1  0.4880711E-008  0.1099628E+04  0.7818608E-02  0.9205555E-01
         -2   -1    0    0    0  501 -0.00000000000E+00  0.00000000000E+00  0.83985380646E+03  0.83985380646E+03  0.25500000000E-02 0.  1.
          2   -1    0    0  501    0  0.00000000000E+00 -0.00000000000E+00 -0.21649665253E+04  0.21649665253E+04  0.25500000000E-02 0. -1.
    8880022    1    1    2    0    0 -0.92491111665E+03  0.57474249317E+03 -0.15321096062E+04  0.18858793720E+04  0.15294330000E+03 0.  0.
    8880022    1    1    2    0    0  0.92491111665E+03 -0.57474249317E+03  0.20699688734E+03  0.11189409598E+04  0.15294330000E+03 0.  0.
<mgrwt>
<rscale>  0 0.10996277E+04</rscale>
<asrwt>0</asrwt>
<pdfrwt beam="1">  1        2 0.33307177E+00 0.10996277E+04</pdfrwt>
<pdfrwt beam="2">  1       -2 0.12920828E+00 0.10996277E+04</pdfrwt>
<totfact> 0.23547344E+00</totfact>
</mgrwt>
</event>
<event>
 4    1  0.4880711E-008  0.3508797E+03  0.7818608E-02  0.1062255E+00
          2   -1    0    0  501    0  0.00000000000E+00  0.00000000000E+00  0.20030494645E+04  0.20030494645E+04  0.25500000000E-02 0. -1.
         -2   -1    0    0    0  501 -0.00000000000E+00 -0.00000000000E+00 -0.74072394818E+02  0.74072394862E+02  0.25500000000E-02 0.  1.
    8880022    1    1    2    0    0  0.30129374452E+03  0.94588458244E+02  0.13929621443E+04  0.14364748815E+04  0.15294330000E+03 0.  0.
    8880022    1    1    2    0    0 -0.30129374452E+03 -0.94588458244E+02  0.53601492545E+03  0.64064697786E+03  0.15294330000E+03 0.  0.
<mgrwt>
<rscale>  0 0.35087968E+03</rscale>
<asrwt>0</asrwt>
<pdfrwt beam="1">  1        2 0.30816147E+00 0.35087968E+03</pdfrwt>
<pdfrwt beam="2">  1       -2 0.11395753E-01 0.35087968E+03</pdfrwt>
<totfact> 0.39359234E+02</totfact>
</mgrwt>
</event>
<event>
 4    1  0.4880711E-008  0.1053440E+04  0.7818608E-02  0.9251799E-01
          2   -1    0    0  501    0  0.00000000000E+00  0.00000000000E+00  0.14761609958E+04  0.14761609958E+04  0.25500000000E-02 0. -1.
         -2   -1    0    0    0  501 -0.00000000000E+00 -0.00000000000E+00 -0.99979698270E+03  0.99979698270E+03  0.25500000000E-02 0.  1.
    8880022    1    1    2    0    0 -0.47077245753E+03 -0.92990237162E+03  0.85478398399E+03  0.13566106441E+04  0.15294330000E+03 0.  0.
    8880022    1    1    2    0    0  0.47077245753E+03  0.92990237162E+03 -0.37841997090E+03  0.11193473343E+04  0.15294330000E+03 0.  0.
<mgrwt>
<rscale>  0 0.10534404E+04</rscale>
<asrwt>0</asrwt>
<pdfrwt beam="1">  1        2 0.22710169E+00 0.10534404E+04</pdfrwt>
<pdfrwt beam="2">  1       -2 0.15381492E+00 0.10534404E+04</pdfrwt>
<totfact> 0.36197637E+00</totfact>
</mgrwt>
</event>
<event>
 4    1  0.4880711E-008  0.7116125E+03  0.7818608E-02  0.9697577E-01
          2   -1    0    0  501    0  0.00000000000E+00  0.00000000000E+00  0.10792065701E+04  0.10792065701E+04  0.25500000000E-02 0. -1.
         -2   -1    0    0    0  501 -0.00000000000E+00 -0.00000000000E+00 -0.54591267183E+03  0.54591267184E+03  0.25500000000E-02 0.  1.
    8880022    1    1    2    0    0 -0.47729838991E+03 -0.50516027609E+03  0.57119246371E+03  0.91249829653E+03  0.15294330000E+03 0.  0.
    8880022    1    1    2    0    0  0.47729838991E+03  0.50516027609E+03 -0.37898565442E+02  0.71262094541E+03  0.15294330000E+03 0.  0.
<mgrwt>
<rscale>  0 0.71161247E+03</rscale>
<asrwt>0</asrwt>
<pdfrwt beam="1">  1        2 0.16603178E+00 0.71161247E+03</pdfrwt>
<pdfrwt beam="2">  1       -2 0.83986566E-01 0.71161247E+03</pdfrwt>
<totfact> 0.28378905E+01</totfact>
</mgrwt>
</event>
<event>
 4    1  0.4880711E-008  0.5859488E+03  0.7818608E-02  0.9934994E-01
          2   -1    0    0  501    0  0.00000000000E+00  0.00000000000E+00  0.33101960813E+04  0.33101960813E+04  0.25500000000E-02 0. -1.
         -2   -1    0    0    0  501 -0.00000000000E+00 -0.00000000000E+00 -0.17125678019E+03  0.17125678021E+03  0.25500000000E-02 0.  1.
    8880022    1    1    2    0    0 -0.40644712647E+03 -0.39337643388E+03  0.26626063634E+04  0.27263177703E+04  0.15294330000E+03 0.  0.
    8880022    1    1    2    0    0  0.40644712647E+03  0.39337643388E+03  0.47633293767E+03  0.75513509114E+03  0.15294330000E+03 0.  0.
<mgrwt>
<rscale>  0 0.58594875E+03</rscale>
<asrwt>0</asrwt>
<pdfrwt beam="1">  1        2 0.50926088E+00 0.58594875E+03</pdfrwt>
<pdfrwt beam="2">  1       -2 0.26347200E-01 0.58594875E+03</pdfrwt>
<totfact> 0.15812407E+01</totfact>
</mgrwt>
</event>
<event>
 4    1  0.4880711E-008  0.3007824E+03  0.7818608E-02  0.1084850E+00
          2   -1    0    0  501    0  0.00000000000E+00  0.00000000000E+00  0.43343808001E+03  0.43343808002E+03  0.25500000000E-02 0. -1.
         -2   -1    0    0    0  501 -0.00000000000E+00 -0.00000000000E+00 -0.89827506130E+03  0.89827506130E+03  0.25500000000E-02 0.  1.
    8880022    1    1    2    0    0  0.24619942256E+03 -0.80400583962E+02 -0.81580772564E+03  0.86948968240E+03  0.15294330000E+03 0.  0.
    8880022    1    1    2    0    0 -0.24619942256E+03  0.80400583962E+02  0.35097074435E+03  0.46222345892E+03  0.15294330000E+03 0.  0.
<mgrwt>
<rscale>  0 0.30078242E+03</rscale>
<asrwt>0</asrwt>
<pdfrwt beam="1">  1        2 0.66682782E-01 0.30078242E+03</pdfrwt>
<pdfrwt beam="2">  1       -2 0.13819616E+00 0.30078242E+03</pdfrwt>
<totfact> 0.28759128E+01</totfact>
</mgrwt>
</event>
<event>
 4    1  0.4880711E-008  0.5884661E+03  0.7818608E-02  0.9929628E-01
          2   -1    0    0  501    0  0.00000000000E+00  0.00000000000E+00  0.72310672247E+03  0.72310672248E+03  0.25500000000E-02 0. -1.
         -2   -1    0    0    0  501 -0.00000000000E+00 -0.00000000000E+00 -0.62409308183E+03  0.62409308184E+03  0.25500000000E-02 0.  1.
    8880022    1    1    2    0    0 -0.36517832068E+03 -0.43536820690E+03 -0.27539899147E+03  0.64972066228E+03  0.15294330000E+03 0.  0.
    8880022    1    1    2    0    0  0.36517832068E+03  0.43536820690E+03  0.37441263211E+03  0.69747914204E+03  0.15294330000E+03 0.  0.
<mgrwt>
<rscale>  0 0.58846609E+03</rscale>
<asrwt>0</asrwt>
<pdfrwt beam="1">  1        2 0.11124719E+00 0.58846609E+03</pdfrwt>
<pdfrwt beam="2">  1       -2 0.96014321E-01 0.58846609E+03</pdfrwt>
<totfact> 0.36761625E+01</totfact>
</mgrwt>
</event>
<event>
 4    1  0.6458116E-008  0.7004746E+03  0.7818608E-02  0.9716421E-01
          2   -1    0    0  501    0  0.00000000000E+00  0.00000000000E+00  0.19847199187E+04  0.19847199187E+04  0.25500000000E-02 0. -1.
         -2   -1    0    0    0  501 -0.00000000000E+00 -0.00000000000E+00 -0.13946434928E+04  0.13946434928E+04  0.25500000000E-02 0.  1.
    8880022    1    1    2    0    0 -0.60147996373E+03  0.32479969623E+03  0.18276598768E+04  0.19572953961E+04  0.15294330000E+03 0.  0.
    8880022    1    1    2    0    0  0.60147996373E+03 -0.32479969623E+03 -0.12375834509E+04  0.14220680154E+04  0.15294330000E+03 0.  0.
<mgrwt>
<rscale>  0 0.70047458E+03</rscale>
<asrwt>0</asrwt>
<pdfrwt beam="1">  1        2 0.30534153E+00 0.70047458E+03</pdfrwt>
<pdfrwt beam="2">  1       -2 0.21456054E+00 0.70047458E+03</pdfrwt>
<totfact> 0.77119662E-01</totfact>
</mgrwt>
</event>
<event>
 4    1  0.4880711E-008  0.3274309E+03  0.7818608E-02  0.1072279E+00
          2   -1    0    0  501    0  0.00000000000E+00  0.00000000000E+00  0.12445946085E+04  0.12445946085E+04  0.25500000000E-02 0. -1.
         -2   -1    0    0    0  501 -0.00000000000E+00 -0.00000000000E+00 -0.37736359286E+03  0.37736359287E+03  0.25500000000E-02 0.  1.
    8880022    1    1    2    0    0  0.52085955746E+02 -0.28479188499E+03  0.11460451152E+04  0.11919020193E+04  0.15294330000E+03 0.  0.
    8880022    1    1    2    0    0 -0.52085955746E+02  0.28479188499E+03 -0.27881409961E+03  0.43005618202E+03  0.15294330000E+03 0.  0.
<mgrwt>
<rscale>  0 0.32743094E+03</rscale>
<asrwt>0</asrwt>
<pdfrwt beam="1">  1        2 0.19147610E+00 0.32743094E+03</pdfrwt>
<pdfrwt beam="2">  1       -2 0.58055936E-01 0.32743094E+03</pdfrwt>
<totfact> 0.53465489E+01</totfact>
</mgrwt>
</event>
<event>
 4    1  0.4880711E-008  0.2573654E+03  0.7818608E-02  0.1108737E+00
         -2   -1    0    0    0  501 -0.00000000000E+00  0.00000000000E+00  0.10514416382E+03  0.10514416385E+03  0.25500000000E-02 0.  1.
          2   -1    0    0  501    0  0.00000000000E+00 -0.00000000000E+00 -0.21277087564E+04  0.21277087564E+04  0.25500000000E-02 0. -1.
    8880022    1    1    2    0    0  0.10255409146E+03 -0.17979980201E+03 -0.74598435642E+02  0.26795874700E+03  0.15294330000E+03 0.  1.
    8880022    1    1    2    0    0 -0.10255409146E+03  0.17979980201E+03 -0.19479661569E+04  0.19648941733E+04  0.15294330000E+03 0.  0.
<mgrwt>
<rscale>  0 0.25736543E+03</rscale>
<asrwt>0</asrwt>
<pdfrwt beam="1">  1        2 0.32733978E+00 0.25736543E+03</pdfrwt>
<pdfrwt beam="2">  1       -2 0.16176027E-01 0.25736543E+03</pdfrwt>
<totfact> 0.19360352E+02</totfact>
</mgrwt>
</event>
<event>
 4    1  0.4880711E-008  0.2720294E+03  0.7818608E-02  0.1100124E+00
          2   -1    0    0  501    0  0.00000000000E+00  0.00000000000E+00  0.31797224242E+03  0.31797224243E+03  0.25500000000E-02 0. -1.
         -2   -1    0    0    0  501 -0.00000000000E+00 -0.00000000000E+00 -0.12162118528E+04  0.12162118528E+04  0.25500000000E-02 0.  1.
    8880022    1    1    2    0    0  0.21199345363E+03  0.75280348043E+02 -0.11389261757E+04  0.11709623572E+04  0.15294330000E+03 0.  0.
    8880022    1    1    2    0    0 -0.21199345363E+03 -0.75280348043E+02  0.24068656539E+03  0.36322173800E+03  0.15294330000E+03 0.  0.
<mgrwt>
<rscale>  0 0.27202943E+03</rscale>
<asrwt>0</asrwt>
<pdfrwt beam="1">  1        2 0.48918807E-01 0.27202943E+03</pdfrwt>
<pdfrwt beam="2">  1       -2 0.18710951E+00 0.27202943E+03</pdfrwt>
<totfact> 0.18082658E+01</totfact>
</mgrwt>
</event>
<event>
 4    1  0.4880711E-008  0.5609192E+03  0.7818608E-02  0.9989977E-01
          2   -1    0    0  501    0  0.00000000000E+00  0.00000000000E+00  0.16628602317E+04  0.16628602317E+04  0.25500000000E-02 0. -1.
         -2   -1    0    0    0  501 -0.00000000000E+00 -0.00000000000E+00 -0.56595674375E+03  0.56595674375E+03  0.25500000000E-02 0.  1.
    8880022    1    1    2    0    0 -0.53226204620E+03  0.89083445594E+02 -0.36078574140E+03  0.66693084373E+03  0.15294330000E+03 0.  0.
    8880022    1    1    2    0    0  0.53226204620E+03 -0.89083445594E+02  0.14576892294E+04  0.15618861317E+04  0.15294330000E+03 0.  0.
<mgrwt>
<rscale>  0 0.56091924E+03</rscale>
<asrwt>0</asrwt>
<pdfrwt beam="1">  1        2 0.25582465E+00 0.56091924E+03</pdfrwt>
<pdfrwt beam="2">  1       -2 0.87070268E-01 0.56091924E+03</pdfrwt>
<totfact> 0.12423005E+01</totfact>
</mgrwt>
</event>
<event>
 4    1  0.4880711E-008  0.9775551E+03  0.7818608E-02  0.9333510E-01
         -2   -1    0    0    0  501 -0.00000000000E+00  0.00000000000E+00  0.69120035038E+03  0.69120035038E+03  0.25500000000E-02 0.  1.
          2   -1    0    0  501    0  0.00000000000E+00 -0.00000000000E+00 -0.22822756437E+04  0.22822756437E+04  0.25500000000E-02 0. -1.
    8880022    1    1    2    0    0 -0.23346060910E+03  0.93686628906E+03 -0.17290223818E+04  0.19862357235E+04  0.15294330000E+03 0. -1.
    8880022    1    1    2    0    0  0.23346060910E+03 -0.93686628906E+03  0.13794708849E+03  0.98724027056E+03  0.15294330000E+03 0.  0.
<mgrwt>
<rscale>  0 0.97755509E+03</rscale>
<asrwt>0</asrwt>
<pdfrwt beam="1">  1        2 0.35111933E+00 0.97755509E+03</pdfrwt>
<pdfrwt beam="2">  1       -2 0.10633852E+00 0.97755509E+03</pdfrwt>
<totfact> 0.33324137E+00</totfact>
</mgrwt>
</event>
<event>
 4    1  0.4880711E-008  0.4633959E+03  0.7818608E-02  0.1023801E+00
          2   -1    0    0  501    0  0.00000000000E+00  0.00000000000E+00  0.39162504952E+04  0.39162504952E+04  0.25500000000E-02 0. -1.
         -2   -1    0    0    0  501 -0.00000000000E+00 -0.00000000000E+00 -0.19511295163E+03  0.19511295165E+03  0.25500000000E-02 0.  1.
    8880022    1    1    2    0    0 -0.27515416191E+03  0.34005047636E+03  0.11750932621E+03  0.47806300217E+03  0.15294330000E+03 0.  0.
    8880022    1    1    2    0    0  0.27515416191E+03 -0.34005047636E+03  0.36036282174E+04  0.36333004447E+04  0.15294330000E+03 0.  0.
<mgrwt>
<rscale>  0 0.46339593E+03</rscale>
<asrwt>0</asrwt>
<pdfrwt beam="1">  1        2 0.60250009E+00 0.46339593E+03</pdfrwt>
<pdfrwt beam="2">  1       -2 0.30017377E-01 0.46339593E+03</pdfrwt>
<totfact> 0.48765065E+00</totfact>
</mgrwt>
</event>
<event>
 4    1  0.4880711E-008  0.7108501E+03  0.7818608E-02  0.9698855E-01
          2   -1    0    0  501    0  0.00000000000E+00  0.00000000000E+00  0.41395041690E+04  0.41395041690E+04  0.25500000000E-02 0. -1.
         -2   -1    0    0    0  501 -0.00000000000E+00 -0.00000000000E+00 -0.24828165209E+03  0.24828165210E+03  0.25500000000E-02 0.  1.
    8880022    1    1    2    0    0  0.33102292488E+03 -0.61019672697E+03  0.38140716338E+03  0.80670893121E+03  0.15294330000E+03 0.  0.
    8880022    1    1    2    0    0 -0.33102292488E+03  0.61019672697E+03  0.35098153535E+04  0.35810768899E+04  0.15294330000E+03 0.  0.
<mgrwt>
<rscale>  0 0.71085011E+03</rscale>
<asrwt>0</asrwt>
<pdfrwt beam="1">  1        2 0.63684672E+00 0.71085011E+03</pdfrwt>
<pdfrwt beam="2">  1       -2 0.38197182E-01 0.71085011E+03</pdfrwt>
<totfact> 0.19120022E+00</totfact>
</mgrwt>
</event>
<event>
 4    1  0.4880711E-008  0.4176700E+03  0.7818608E-02  0.1037827E+00
          2   -1    0    0  501    0  0.00000000000E+00  0.00000000000E+00  0.13491586348E+04  0.13491586348E+04  0.25500000000E-02 0. -1.
         -2   -1    0    0    0  501 -0.00000000000E+00 -0.00000000000E+00 -0.86043672143E+03  0.86043672143E+03  0.25500000000E-02 0.  1.
    8880022    1    1    2    0    0  0.30517053053E+03  0.24068133525E+03  0.12627697553E+04  0.13300510012E+04  0.15294330000E+03 0.  0.
    8880022    1    1    2    0    0 -0.30517053053E+03 -0.24068133525E+03 -0.77404784195E+03  0.87954435504E+03  0.15294330000E+03 0.  1.
<mgrwt>
<rscale>  0 0.41766998E+03</rscale>
<asrwt>0</asrwt>
<pdfrwt beam="1">  1        2 0.20756287E+00 0.41766998E+03</pdfrwt>
<pdfrwt beam="2">  1       -2 0.13237488E+00 0.41766998E+03</pdfrwt>
<totfact> 0.69876146E+00</totfact>
</mgrwt>
</event>
<event>
 4    1  0.4880711E-008  0.2721553E+03  0.7818608E-02  0.1100052E+00
         -2   -1    0    0    0  501 -0.00000000000E+00  0.00000000000E+00  0.58173273249E+03  0.58173273250E+03  0.25500000000E-02 0.  1.
          2   -1    0    0  501    0  0.00000000000E+00 -0.00000000000E+00 -0.25571621256E+03  0.25571621257E+03  0.25500000000E-02 0. -1.
    8880022    1    1    2    0    0  0.19131527802E+03 -0.11863947626E+03 -0.13369247709E+03  0.30321970974E+03  0.15294330000E+03 0.  0.
    8880022    1    1    2    0    0 -0.19131527802E+03  0.11863947626E+03  0.45970899702E+03  0.53422923533E+03  0.15294330000E+03 0.  1.
<mgrwt>
<rscale>  0 0.27215531E+03</rscale>
<asrwt>0</asrwt>
<pdfrwt beam="1">  1        2 0.39340956E-01 0.27215531E+03</pdfrwt>
<pdfrwt beam="2">  1       -2 0.89497343E-01 0.27215531E+03</pdfrwt>
<totfact> 0.14513747E+02</totfact>
</mgrwt>
</event>
<event>
 4    1  0.4880711E-008  0.9762927E+03  0.7818608E-02  0.9334936E-01
          2   -1    0    0  501    0  0.00000000000E+00  0.00000000000E+00  0.27035712910E+04  0.27035712910E+04  0.25500000000E-02 0. -1.
         -2   -1    0    0    0  501 -0.00000000000E+00 -0.00000000000E+00 -0.38932443644E+03  0.38932443645E+03  0.25500000000E-02 0.  1.
    8880022    1    1    2    0    0 -0.57699132951E+03  0.77255207513E+03  0.16323987463E+04  0.19020707198E+04  0.15294330000E+03 0.  0.
    8880022    1    1    2    0    0  0.57699132951E+03 -0.77255207513E+03  0.68184810823E+03  0.11908250076E+04  0.15294330000E+03 0.  0.
<mgrwt>
<rscale>  0 0.97629266E+03</rscale>
<asrwt>0</asrwt>
<pdfrwt beam="1">  1        2 0.41593405E+00 0.97629266E+03</pdfrwt>
<pdfrwt beam="2">  1       -2 0.59896067E-01 0.97629266E+03</pdfrwt>
<totfact> 0.70005358E+00</totfact>
</mgrwt>
</event>
<event>
 4    1  0.4880711E-008  0.1903115E+03  0.7818608E-02  0.1158181E+00
         -2   -1    0    0    0  501 -0.00000000000E+00  0.00000000000E+00  0.53937186858E+03  0.53937186858E+03  0.25500000000E-02 0.  1.
          2   -1    0    0  501    0  0.00000000000E+00 -0.00000000000E+00 -0.79793479236E+03  0.79793479236E+03  0.25500000000E-02 0. -1.
    8880022    1    1    2    0    0  0.10342763915E+03  0.46146751889E+02  0.51061876590E+03  0.54493116662E+03  0.15294330000E+03 0.  1.
    8880022    1    1    2    0    0 -0.10342763915E+03 -0.46146751889E+02 -0.76918168968E+03  0.79237549432E+03  0.15294330000E+03 0.  0.
<mgrwt>
<rscale>  0 0.19031146E+03</rscale>
<asrwt>0</asrwt>
<pdfrwt beam="1">  1        2 0.12275920E+00 0.19031146E+03</pdfrwt>
<pdfrwt beam="2">  1       -2 0.82980287E-01 0.19031146E+03</pdfrwt>
<totfact> 0.48416895E+01</totfact>
</mgrwt>
</event>
<event>
 4    1  0.4880711E-008  0.3391700E+03  0.7818608E-02  0.1067150E+00
          2   -1    0    0  501    0  0.00000000000E+00  0.00000000000E+00  0.14752384212E+04  0.14752384212E+04  0.25500000000E-02 0. -1.
         -2   -1    0    0    0  501 -0.00000000000E+00 -0.00000000000E+00 -0.22164534138E+03  0.22164534139E+03  0.25500000000E-02 0.  1.
    8880022    1    1    2    0    0 -0.68290560151E+02  0.29492549176E+03  0.13098766826E+04  0.13530754683E+04  0.15294330000E+03 0.  0.
    8880022    1    1    2    0    0  0.68290560151E+02 -0.29492549176E+03 -0.56283602733E+02  0.34380829433E+03  0.15294330000E+03 0.  0.
<mgrwt>
<rscale>  0 0.33917002E+03</rscale>
<asrwt>0</asrwt>
<pdfrwt beam="1">  1        2 0.22695976E+00 0.33917002E+03</pdfrwt>
<pdfrwt beam="2">  1       -2 0.34099283E-01 0.33917002E+03</pdfrwt>
<totfact> 0.11317274E+02</totfact>
</mgrwt>
</event>
<event>
 4    1  0.4880711E-008  0.5966258E+03  0.7818608E-02  0.9912431E-01
         -2   -1    0    0    0  501 -0.00000000000E+00  0.00000000000E+00  0.32197974907E+03  0.32197974908E+03  0.25500000000E-02 0.  1.
          2   -1    0    0  501    0  0.00000000000E+00 -0.00000000000E+00 -0.11875878574E+04  0.11875878574E+04  0.25500000000E-02 0. -1.
    8880022    1    1    2    0    0  0.57505033659E+03 -0.43449346446E+02 -0.23441580224E+03  0.64102508272E+03  0.15294330000E+03 0.  0.
    8880022    1    1    2    0    0 -0.57505033659E+03  0.43449346446E+02 -0.63119230611E+03  0.86854252379E+03  0.15294330000E+03 0.  0.
<mgrwt>
<rscale>  0 0.59662584E+03</rscale>
<asrwt>0</asrwt>
<pdfrwt beam="1">  1        2 0.18270582E+00 0.59662584E+03</pdfrwt>
<pdfrwt beam="2">  1       -2 0.49535346E-01 0.59662584E+03</pdfrwt>
<totfact> 0.76643758E+01</totfact>
</mgrwt>
</event>
<event>
 4    1  0.5143226E-008  0.4235498E+03  0.7818608E-02  0.1035917E+00
         -2   -1    0    0    0  501 -0.00000000000E+00  0.00000000000E+00  0.11615971016E+04  0.11615971016E+04  0.25500000000E-02 0.  1.
          2   -1    0    0  501    0  0.00000000000E+00 -0.00000000000E+00 -0.12500059436E+04  0.12500059436E+04  0.25500000000E-02 0. -1.
    8880022    1    1    2    0    0  0.33802979140E+03  0.20430037169E+03 -0.11730628964E+04  0.12471852283E+04  0.15294330000E+03 0.  0.
    8880022    1    1    2    0    0 -0.33802979140E+03 -0.20430037169E+03  0.10846540544E+04  0.11644178170E+04  0.15294330000E+03 0.  0.
<mgrwt>
<rscale>  0 0.42354980E+03</rscale>
<asrwt>0</asrwt>
<pdfrwt beam="1">  1        2 0.19230861E+00 0.42354980E+03</pdfrwt>
<pdfrwt beam="2">  1       -2 0.17870725E+00 0.42354980E+03</pdfrwt>
<totfact> 0.35878379E+00</totfact>
</mgrwt>
</event>
<event>
 4    1  0.4880711E-008  0.5048319E+03  0.7818608E-02  0.1012525E+00
         -2   -1    0    0    0  501 -0.00000000000E+00  0.00000000000E+00  0.41349774507E+03  0.41349774507E+03  0.25500000000E-02 0.  1.
          2   -1    0    0  501    0  0.00000000000E+00 -0.00000000000E+00 -0.87332693246E+03  0.87332693246E+03  0.25500000000E-02 0. -1.
    8880022    1    1    2    0    0  0.22761712781E+03 -0.42385614636E+03 -0.57893947796E+03  0.76813160450E+03  0.15294330000E+03 0.  0.
    8880022    1    1    2    0    0 -0.22761712781E+03  0.42385614636E+03  0.11911029057E+03  0.51869307303E+03  0.15294330000E+03 0.  0.
<mgrwt>
<rscale>  0 0.50483190E+03</rscale>
<asrwt>0</asrwt>
<pdfrwt beam="1">  1        2 0.13435799E+00 0.50483190E+03</pdfrwt>
<pdfrwt beam="2">  1       -2 0.63615038E-01 0.50483190E+03</pdfrwt>
<totfact> 0.72467295E+01</totfact>
</mgrwt>
</event>
<event>
 4    1  0.4880711E-008  0.8654741E+03  0.7818608E-02  0.9469800E-01
          2   -1    0    0  501    0  0.00000000000E+00  0.00000000000E+00  0.13459519334E+04  0.13459519334E+04  0.25500000000E-02 0. -1.
         -2   -1    0    0    0  501 -0.00000000000E+00 -0.00000000000E+00 -0.80054531249E+03  0.80054531250E+03  0.25500000000E-02 0.  1.
    8880022    1    1    2    0    0 -0.79905178732E+02  0.84809720507E+03 -0.31984987652E+03  0.92268591805E+03  0.15294330000E+03 0.  0.
    8880022    1    1    2    0    0  0.79905178732E+02 -0.84809720507E+03  0.86525649747E+03  0.12238113279E+04  0.15294330000E+03 0.  0.
<mgrwt>
<rscale>  0 0.86547407E+03</rscale>
<asrwt>0</asrwt>
<pdfrwt beam="1">  1        2 0.20706953E+00 0.86547407E+03</pdfrwt>
<pdfrwt beam="2">  1       -2 0.12316082E+00 0.86547407E+03</pdfrwt>
<totfact> 0.77944136E+00</totfact>
</mgrwt>
</event>
<event>
 4    1  0.4880711E-008  0.7839352E+03  0.7818608E-02  0.9583566E-01
         -2   -1    0    0    0  501 -0.00000000000E+00  0.00000000000E+00  0.36272252030E+03  0.36272252031E+03  0.25500000000E-02 0.  1.
          2   -1    0    0  501    0  0.00000000000E+00 -0.00000000000E+00 -0.23065245935E+04  0.23065245935E+04  0.25500000000E-02 0. -1.
    8880022    1    1    2    0    0  0.76488861157E+03  0.78154536286E+02 -0.16595097616E+04  0.18353547400E+04  0.15294330000E+03 0.  0.
    8880022    1    1    2    0    0 -0.76488861157E+03 -0.78154536286E+02 -0.28429231154E+03  0.83389237379E+03  0.15294330000E+03 0.  0.
<mgrwt>
<rscale>  0 0.78393518E+03</rscale>
<asrwt>0</asrwt>
<pdfrwt beam="1">  1        2 0.35484993E+00 0.78393518E+03</pdfrwt>
<pdfrwt beam="2">  1       -2 0.55803466E-01 0.78393518E+03</pdfrwt>
<totfact> 0.14061242E+01</totfact>
</mgrwt>
</event>
<event>
 4    1  0.4880711E-008  0.1312834E+04  0.7818608E-02  0.9019449E-01
         -2   -1    0    0    0  501 -0.00000000000E+00  0.00000000000E+00  0.13704412514E+04  0.13704412514E+04  0.25500000000E-02 0.  1.
          2   -1    0    0  501    0  0.00000000000E+00 -0.00000000000E+00 -0.17462467758E+04  0.17462467758E+04  0.25500000000E-02 0. -1.
    8880022    1    1    2    0    0 -0.12778311380E+04 -0.25940202038E+03 -0.10122049696E+04  0.16577371260E+04  0.15294330000E+03 0.  0.
    8880022    1    1    2    0    0  0.12778311380E+04  0.25940202038E+03  0.63639944511E+03  0.14589509012E+04  0.15294330000E+03 0.  0.
<mgrwt>
<rscale>  0 0.13128341E+04</rscale>
<asrwt>0</asrwt>
<pdfrwt beam="1">  1        2 0.26865335E+00 0.13128341E+04</pdfrwt>
<pdfrwt beam="2">  1       -2 0.21083712E+00 0.13128341E+04</pdfrwt>
<totfact> 0.10013168E+00</totfact>
</mgrwt>
</event>
<event>
 4    1  0.4880711E-008  0.2749046E+03  0.7818608E-02  0.1098505E+00
          2   -1    0    0  501    0  0.00000000000E+00  0.00000000000E+00  0.20468252881E+04  0.20468252881E+04  0.25500000000E-02 0. -1.
         -2   -1    0    0    0  501 -0.00000000000E+00 -0.00000000000E+00 -0.16032437258E+03  0.16032437260E+03  0.25500000000E-02 0.  1.
    8880022    1    1    2    0    0  0.16643821535E+03  0.15645830585E+03 -0.24947288608E+02  0.27603423922E+03  0.15294330000E+03 0.  0.
    8880022    1    1    2    0    0 -0.16643821535E+03 -0.15645830585E+03  0.19114482041E+04  0.19311154214E+04  0.15294330000E+03 0. -1.
<mgrwt>
<rscale>  0 0.27490459E+03</rscale>
<asrwt>0</asrwt>
<pdfrwt beam="1">  1        2 0.31489619E+00 0.27490459E+03</pdfrwt>
<pdfrwt beam="2">  1       -2 0.24665289E-01 0.27490459E+03</pdfrwt>
<totfact> 0.10298345E+02</totfact>
</mgrwt>
</event>
<event>
 4    1  0.4880711E-008  0.6089093E+03  0.7818608E-02  0.9887093E-01
         -2   -1    0    0    0  501 -0.00000000000E+00  0.00000000000E+00  0.13388288160E+04  0.13388288160E+04  0.25500000000E-02 0.  1.
          2   -1    0    0  501    0  0.00000000000E+00 -0.00000000000E+00 -0.13628502086E+04  0.13628502086E+04  0.25500000000E-02 0. -1.
    8880022    1    1    2    0    0 -0.56184047658E+03 -0.17808461354E+03 -0.12178164728E+04  0.13615606726E+04  0.15294330000E+03 0.  0.
    8880022    1    1    2    0    0  0.56184047658E+03  0.17808461354E+03  0.11937950803E+04  0.13401183520E+04  0.15294330000E+03 0.  0.
<mgrwt>
<rscale>  0 0.60890927E+03</rscale>
<asrwt>0</asrwt>
<pdfrwt beam="1">  1        2 0.20966926E+00 0.60890927E+03</pdfrwt>
<pdfrwt beam="2">  1       -2 0.20597366E+00 0.60890927E+03</pdfrwt>
<totfact> 0.19574474E+00</totfact>
</mgrwt>
</event>
<event>
 4    1  0.5892848E-008  0.7156355E+03  0.7818608E-02  0.9690861E-01
         -2   -1    0    0    0  501 -0.00000000000E+00  0.00000000000E+00  0.91524676400E+03  0.91524676401E+03  0.25500000000E-02 0.  1.
          2   -1    0    0  501    0  0.00000000000E+00 -0.00000000000E+00 -0.13722302246E+04  0.13722302246E+04  0.25500000000E-02 0. -1.
    8880022    1    1    2    0    0  0.63135489071E+03  0.30022245258E+03  0.65168686597E+03  0.96789975894E+03  0.15294330000E+03 0.  0.
    8880022    1    1    2    0    0 -0.63135489071E+03 -0.30022245258E+03 -0.11086703266E+04  0.13195772297E+04  0.15294330000E+03 0.  0.
<mgrwt>
<rscale>  0 0.71563550E+03</rscale>
<asrwt>0</asrwt>
<pdfrwt beam="1">  1        2 0.21111234E+00 0.71563550E+03</pdfrwt>
<pdfrwt beam="2">  1       -2 0.14080719E+00 0.71563550E+03</pdfrwt>
<totfact> 0.54646591E+00</totfact>
</mgrwt>
</event>
<event>
 4    1  0.4880711E-008  0.4700229E+03  0.7818608E-02  0.1021914E+00
          2   -1    0    0  501    0  0.00000000000E+00  0.00000000000E+00  0.19618663160E+04  0.19618663160E+04  0.25500000000E-02 0. -1.
         -2   -1    0    0    0  501 -0.00000000000E+00 -0.00000000000E+00 -0.19614209485E+03  0.19614209487E+03  0.25500000000E-02 0.  1.
    8880022    1    1    2    0    0  0.13076281838E+03 -0.42477160356E+03  0.15870200725E+04  0.16551598694E+04  0.15294330000E+03 0.  0.
    8880022    1    1    2    0    0 -0.13076281838E+03  0.42477160356E+03  0.17870414865E+03  0.50284854143E+03  0.15294330000E+03 0.  0.
<mgrwt>
<rscale>  0 0.47002285E+03</rscale>
<asrwt>0</asrwt>
<pdfrwt beam="1">  1        2 0.30182559E+00 0.47002285E+03</pdfrwt>
<pdfrwt beam="2">  1       -2 0.30175707E-01 0.47002285E+03</pdfrwt>
<totfact> 0.75971791E+01</totfact>
</mgrwt>
</event>
<event>
 4    1  0.4880711E-008  0.6070127E+03  0.7818608E-02  0.9890963E-01
          2   -1    0    0  501    0  0.00000000000E+00  0.00000000000E+00  0.31409228886E+04  0.31409228886E+04  0.25500000000E-02 0. -1.
         -2   -1    0    0    0  501 -0.00000000000E+00 -0.00000000000E+00 -0.12387213967E+03  0.12387213970E+03  0.25500000000E-02 0.  1.
    8880022    1    1    2    0    0  0.57197602757E+03 -0.13385120582E+03  0.18842185305E+04  0.19795817349E+04  0.15294330000E+03 0.  0.
    8880022    1    1    2    0    0 -0.57197602757E+03  0.13385120582E+03  0.11328322184E+04  0.12852132934E+04  0.15294330000E+03 0.  0.
<mgrwt>
<rscale>  0 0.60701266E+03</rscale>
<asrwt>0</asrwt>
<pdfrwt beam="1">  1        2 0.48321881E+00 0.60701266E+03</pdfrwt>
<pdfrwt beam="2">  1       -2 0.19057256E-01 0.60701266E+03</pdfrwt>
<totfact> 0.35791705E+01</totfact>
</mgrwt>
</event>
<event>
 4    1  0.4880711E-008  0.1115617E+04  0.7818608E-02  0.9190102E-01
          2   -1    0    0  501    0  0.00000000000E+00  0.00000000000E+00  0.16735342988E+04  0.16735342988E+04  0.25500000000E-02 0. -1.
         -2   -1    0    0    0  501 -0.00000000000E+00 -0.00000000000E+00 -0.89381259369E+03  0.89381259370E+03  0.25500000000E-02 0.  1.
    8880022    1    1    2    0    0  0.10714305018E+04 -0.27064250336E+03  0.91593179372E+03  0.14434449725E+04  0.15294330000E+03 0.  0.
    8880022    1    1    2    0    0 -0.10714305018E+04  0.27064250336E+03 -0.13621008857E+03  0.11239019201E+04  0.15294330000E+03 0.  0.
<mgrwt>
<rscale>  0 0.11156175E+04</rscale>
<asrwt>0</asrwt>
<pdfrwt beam="1">  1        2 0.25746681E+00 0.11156175E+04</pdfrwt>
<pdfrwt beam="2">  1       -2 0.13750963E+00 0.11156175E+04</pdfrwt>
<totfact> 0.37473965E+00</totfact>
</mgrwt>
</event>
<event>
 4    1  0.4880711E-008  0.6658263E+03  0.7818608E-02  0.9777527E-01
         -2   -1    0    0    0  501 -0.00000000000E+00  0.00000000000E+00  0.18876743789E+04  0.18876743789E+04  0.25500000000E-02 0.  1.
          2   -1    0    0  501    0  0.00000000000E+00 -0.00000000000E+00 -0.11396632758E+04  0.11396632758E+04  0.25500000000E-02 0. -1.
    8880022    1    1    2    0    0 -0.61257406687E+03 -0.21139057435E+03 -0.97471360834E+03  0.11804199395E+04  0.15294330000E+03 0.  0.
    8880022    1    1    2    0    0  0.61257406687E+03  0.21139057435E+03  0.17227247115E+04  0.18469177152E+04  0.15294330000E+03 0.  0.
<mgrwt>
<rscale>  0 0.66582627E+03</rscale>
<asrwt>0</asrwt>
<pdfrwt beam="1">  1        2 0.17533281E+00 0.66582627E+03</pdfrwt>
<pdfrwt beam="2">  1       -2 0.29041144E+00 0.66582627E+03</pdfrwt>
<totfact> 0.79787683E-01</totfact>
</mgrwt>
</event>
<event>
 4    1  0.4880711E-008  0.3392597E+03  0.7818608E-02  0.1067112E+00
         -2   -1    0    0    0  501 -0.00000000000E+00  0.00000000000E+00  0.10211343269E+03  0.10211343273E+03  0.25500000000E-02 0.  1.
          2   -1    0    0  501    0  0.00000000000E+00 -0.00000000000E+00 -0.13921573312E+04  0.13921573312E+04  0.25500000000E-02 0. -1.
    8880022    1    1    2    0    0 -0.24638689693E+03  0.17606526644E+03 -0.31904697309E+03  0.46571247039E+03  0.15294330000E+03 0.  1.
    8880022    1    1    2    0    0  0.24638689693E+03 -0.17606526644E+03 -0.97099692541E+03  0.10285582935E+04  0.15294330000E+03 0. -1.
<mgrwt>
<rscale>  0 0.33925969E+03</rscale>
<asrwt>0</asrwt>
<pdfrwt beam="1">  1        2 0.21417804E+00 0.33925969E+03</pdfrwt>
<pdfrwt beam="2">  1       -2 0.15709760E-01 0.33925969E+03</pdfrwt>
<totfact> 0.49302531E+02</totfact>
</mgrwt>
</event>
<event>
 4    1  0.4880711E-008  0.3254210E+03  0.7818608E-02  0.1073181E+00
          2   -1    0    0  501    0  0.00000000000E+00  0.00000000000E+00  0.24652424262E+04  0.24652424262E+04  0.25500000000E-02 0. -1.
         -2   -1    0    0    0  501 -0.00000000000E+00 -0.00000000000E+00 -0.17454491235E+03  0.17454491237E+03  0.25500000000E-02 0.  1.
    8880022    1    1    2    0    0  0.11560247864E+03  0.26295102796E+03  0.22913728337E+04  0.23143656349E+04  0.15294330000E+03 0. -1.
    8880022    1    1    2    0    0 -0.11560247864E+03 -0.26295102796E+03 -0.67531976547E+00  0.32542170371E+03  0.15294330000E+03 0.  0.
<mgrwt>
<rscale>  0 0.32542100E+03</rscale>
<asrwt>0</asrwt>
<pdfrwt beam="1">  1        2 0.37926807E+00 0.32542100E+03</pdfrwt>
<pdfrwt beam="2">  1       -2 0.26853063E-01 0.32542100E+03</pdfrwt>
<totfact> 0.51935867E+01</totfact>
</mgrwt>
</event>
<event>
 4    1  0.4880711E-008  0.3131509E+03  0.7818608E-02  0.1078845E+00
          2   -1    0    0  501    0  0.00000000000E+00  0.00000000000E+00  0.77293989165E+03  0.77293989165E+03  0.25500000000E-02 0. -1.
         -2   -1    0    0    0  501 -0.00000000000E+00 -0.00000000000E+00 -0.31740835675E+03  0.31740835676E+03  0.25500000000E-02 0.  1.
    8880022    1    1    2    0    0 -0.54327250519E+02 -0.26780663433E+03 -0.19462689068E+03  0.36870465570E+03  0.15294330000E+03 0.  0.
    8880022    1    1    2    0    0  0.54327250519E+02  0.26780663433E+03  0.65015842558E+03  0.72164359271E+03  0.15294330000E+03 0. -1.
<mgrwt>
<rscale>  0 0.31315092E+03</rscale>
<asrwt>0</asrwt>
<pdfrwt beam="1">  1        2 0.11891383E+00 0.31315092E+03</pdfrwt>
<pdfrwt beam="2">  1       -2 0.48832056E-01 0.31315092E+03</pdfrwt>
<totfact> 0.15010078E+02</totfact>
</mgrwt>
</event>
<event>
 4    1  0.4880711E-008  0.1044473E+04  0.7818608E-02  0.9261069E-01
          2   -1    0    0  501    0  0.00000000000E+00  0.00000000000E+00  0.25207290565E+04  0.25207290565E+04  0.25500000000E-02 0. -1.
         -2   -1    0    0    0  501 -0.00000000000E+00 -0.00000000000E+00 -0.78123774995E+03  0.78123774995E+03  0.25500000000E-02 0.  1.
    8880022    1    1    2    0    0 -0.99868578144E+03 -0.26487558222E+03  0.19723645857E+04  0.22318481302E+04  0.15294330000E+03 0.  0.
    8880022    1    1    2    0    0  0.99868578144E+03  0.26487558222E+03 -0.23287327920E+03  0.10701186763E+04  0.15294330000E+03 0.  1.
<mgrwt>
<rscale>  0 0.10444731E+04</rscale>
<asrwt>0</asrwt>
<pdfrwt beam="1">  1        2 0.38780448E+00 0.10444731E+04</pdfrwt>
<pdfrwt beam="2">  1       -2 0.12019042E+00 0.10444731E+04</pdfrwt>
<totfact> 0.17926813E+00</totfact>
</mgrwt>
</event>
<event>
 4    1  0.4880711E-008  0.2397554E+03  0.7818608E-02  0.1119956E+00
          2   -1    0    0  501    0  0.00000000000E+00  0.00000000000E+00  0.17058617145E+04  0.17058617145E+04  0.25500000000E-02 0. -1.
         -2   -1    0    0    0  501 -0.00000000000E+00 -0.00000000000E+00 -0.36075252366E+02  0.36075252457E+02  0.25500000000E-02 0.  1.
    8880022    1    1    2    0    0 -0.17505004388E+03  0.58723624050E+02  0.10585156487E+04  0.10853285279E+04  0.15294330000E+03 0.  0.
    8880022    1    1    2    0    0  0.17505004388E+03 -0.58723624050E+02  0.61127081337E+03  0.65660843901E+03  0.15294330000E+03 0.  0.
<mgrwt>
<rscale>  0 0.23975536E+03</rscale>
<asrwt>0</asrwt>
<pdfrwt beam="1">  1        2 0.26244029E+00 0.23975536E+03</pdfrwt>
<pdfrwt beam="2">  1       -2 0.55500382E-02 0.23975536E+03</pdfrwt>
<totfact> 0.17730942E+03</totfact>
</mgrwt>
</event>
<event>
 4    1  0.4880711E-008  0.1920590E+03  0.7818608E-02  0.1156617E+00
          2   -1    0    0  501    0  0.00000000000E+00  0.00000000000E+00  0.41211008489E+03  0.41211008489E+03  0.25500000000E-02 0. -1.
         -2   -1    0    0    0  501 -0.00000000000E+00 -0.00000000000E+00 -0.25792899700E+03  0.25792899701E+03  0.25500000000E-02 0.  1.
    8880022    1    1    2    0    0 -0.24817980204E+02  0.11348594517E+03 -0.19362908750E+03  0.27272489514E+03  0.15294330000E+03 0.  1.
    8880022    1    1    2    0    0  0.24817980204E+02 -0.11348594517E+03  0.34781017538E+03  0.39731418677E+03  0.15294330000E+03 0.  0.
<mgrwt>
<rscale>  0 0.19205896E+03</rscale>
<asrwt>0</asrwt>
<pdfrwt beam="1">  1        2 0.63401550E-01 0.19205896E+03</pdfrwt>
<pdfrwt beam="2">  1       -2 0.39681385E-01 0.19205896E+03</pdfrwt>
<totfact> 0.47069423E+02</totfact>
</mgrwt>
</event>
<event>
 4    1  0.4880711E-008  0.1994755E+03  0.7818608E-02  0.1150182E+00
         -2   -1    0    0    0  501 -0.00000000000E+00  0.00000000000E+00  0.27156468848E+03  0.27156468850E+03  0.25500000000E-02 0.  1.
          2   -1    0    0  501    0  0.00000000000E+00 -0.00000000000E+00 -0.94783309603E+03  0.94783309603E+03  0.25500000000E-02 0. -1.
    8880022    1    1    2    0    0  0.20495218151E+02 -0.12640707810E+03 -0.89872994629E+03  0.92060087591E+03  0.15294330000E+03 0.  0.
    8880022    1    1    2    0    0 -0.20495218151E+02  0.12640707810E+03  0.22246153875E+03  0.29879690861E+03  0.15294330000E+03 0.  0.
<mgrwt>
<rscale>  0 0.19947545E+03</rscale>
<asrwt>0</asrwt>
<pdfrwt beam="1">  1        2 0.14582047E+00 0.19947545E+03</pdfrwt>
<pdfrwt beam="2">  1       -2 0.41779183E-01 0.19947545E+03</pdfrwt>
<totfact> 0.15886035E+02</totfact>
</mgrwt>
</event>
<event>
 4    1  0.4880711E-008  0.1049798E+04  0.7818608E-02  0.9255553E-01
          2   -1    0    0  501    0  0.00000000000E+00  0.00000000000E+00  0.16100812149E+04  0.16100812149E+04  0.25500000000E-02 0. -1.
         -2   -1    0    0    0  501 -0.00000000000E+00 -0.00000000000E+00 -0.13216650884E+04  0.13216650884E+04  0.25500000000E-02 0.  1.
    8880022    1    1    2    0    0 -0.88426073092E+03 -0.54476287136E+03 -0.87360266693E+03  0.13657440825E+04  0.15294330000E+03 0.  0.
    8880022    1    1    2    0    0  0.88426073092E+03  0.54476287136E+03  0.11620187934E+04  0.15660022208E+04  0.15294330000E+03 0.  0.
<mgrwt>
<rscale>  0 0.10497977E+04</rscale>
<asrwt>0</asrwt>
<pdfrwt beam="1">  1        2 0.24770480E+00 0.10497977E+04</pdfrwt>
<pdfrwt beam="2">  1       -2 0.20333309E+00 0.10497977E+04</pdfrwt>
<totfact> 0.13755241E+00</totfact>
</mgrwt>
</event>
<event>
 4    1  0.4880711E-008  0.7775042E+03  0.7818608E-02  0.9593162E-01
          2   -1    0    0  501    0  0.00000000000E+00  0.00000000000E+00  0.22522645563E+04  0.22522645563E+04  0.25500000000E-02 0. -1.
         -2   -1    0    0    0  501 -0.00000000000E+00 -0.00000000000E+00 -0.34780903951E+03  0.34780903952E+03  0.25500000000E-02 0.  1.
    8880022    1    1    2    0    0 -0.47701674004E+03  0.59462265357E+03  0.15734031106E+04  0.17550242369E+04  0.15294330000E+03 0.  0.
    8880022    1    1    2    0    0  0.47701674004E+03 -0.59462265357E+03  0.33105240611E+03  0.84504935892E+03  0.15294330000E+03 0.  0.
<mgrwt>
<rscale>  0 0.77750416E+03</rscale>
<asrwt>0</asrwt>
<pdfrwt beam="1">  1        2 0.34650222E+00 0.77750416E+03</pdfrwt>
<pdfrwt beam="2">  1       -2 0.53509086E-01 0.77750416E+03</pdfrwt>
<totfact> 0.16457705E+01</totfact>
</mgrwt>
</event>
<event>
 4    1  0.4880711E-008  0.8201537E+03  0.7818608E-02  0.9531295E-01
          2   -1    0    0  501    0  0.00000000000E+00  0.00000000000E+00  0.28232742978E+04  0.28232742978E+04  0.25500000000E-02 0. -1.
         -2   -1    0    0    0  501 -0.00000000000E+00 -0.00000000000E+00 -0.41336171330E+03  0.41336171331E+03  0.25500000000E-02 0.  1.
    8880022    1    1    2    0    0  0.80529828066E+03  0.27478312793E+02  0.22582592327E+04  0.24025791961E+04  0.15294330000E+03 0.  0.
    8880022    1    1    2    0    0 -0.80529828066E+03 -0.27478312793E+02  0.15165335180E+03  0.83405681500E+03  0.15294330000E+03 0.  0.
<mgrwt>
<rscale>  0 0.82015366E+03</rscale>
<asrwt>0</asrwt>
<pdfrwt beam="1">  1        2 0.43434987E+00 0.82015366E+03</pdfrwt>
<pdfrwt beam="2">  1       -2 0.63594113E-01 0.82015366E+03</pdfrwt>
<totfact> 0.53611474E+00</totfact>
</mgrwt>
</event>
<event>
 4    1  0.4880711E-008  0.6453014E+03  0.7818608E-02  0.9815636E-01
         -2   -1    0    0    0  501 -0.00000000000E+00  0.00000000000E+00  0.36994348533E+03  0.36994348534E+03  0.25500000000E-02 0.  1.
          2   -1    0    0  501    0  0.00000000000E+00 -0.00000000000E+00 -0.25859486952E+04  0.25859486952E+04  0.25500000000E-02 0. -1.
    8880022    1    1    2    0    0 -0.41543991216E+03 -0.46950178385E+03  0.26409710312E+01  0.64530680563E+03  0.15294330000E+03 0.  0.
    8880022    1    1    2    0    0  0.41543991216E+03  0.46950178385E+03 -0.22186461809E+04  0.23105853749E+04  0.15294330000E+03 0.  0.
<mgrwt>
<rscale>  0 0.64530140E+03</rscale>
<asrwt>0</asrwt>
<pdfrwt beam="1">  1        2 0.39783825E+00 0.64530140E+03</pdfrwt>
<pdfrwt beam="2">  1       -2 0.56914384E-01 0.64530140E+03</pdfrwt>
<totfact> 0.96205236E+00</totfact>
</mgrwt>
</event>
<event>
 4    1  0.4880711E-008  0.2320051E+03  0.7818608E-02  0.1125236E+00
          2   -1    0    0  501    0  0.00000000000E+00  0.00000000000E+00  0.21270881190E+04  0.21270881190E+04  0.25500000000E-02 0. -1.
         -2   -1    0    0    0  501 -0.00000000000E+00 -0.00000000000E+00 -0.60214552425E+02  0.60214552479E+02  0.25500000000E-02 0.  1.
    8880022    1    1    2    0    0 -0.14504305378E+03  0.96939330045E+02  0.18661569834E+04  0.18805234007E+04  0.15294330000E+03 0.  0.
    8880022    1    1    2    0    0  0.14504305378E+03 -0.96939330045E+02  0.20071658318E+03  0.30677927071E+03  0.15294330000E+03 0.  0.
<mgrwt>
<rscale>  0 0.23200512E+03</rscale>
<asrwt>0</asrwt>
<pdfrwt beam="1">  1        2 0.32724433E+00 0.23200512E+03</pdfrwt>
<pdfrwt beam="2">  1       -2 0.92637771E-02 0.23200512E+03</pdfrwt>
<totfact> 0.48180467E+02</totfact>
</mgrwt>
</event>
<event>
 4    1  0.4880711E-008  0.7474079E+03  0.7818608E-02  0.9639426E-01
          2   -1    0    0  501    0  0.00000000000E+00  0.00000000000E+00  0.11197929758E+04  0.11197929758E+04  0.25500000000E-02 0. -1.
         -2   -1    0    0    0  501 -0.00000000000E+00 -0.00000000000E+00 -0.82912599584E+03  0.82912599584E+03  0.25500000000E-02 0.  1.
    8880022    1    1    2    0    0 -0.68363261812E+03 -0.26052521758E+03  0.76034922938E+03  0.10661845756E+04  0.15294330000E+03 0.  0.
    8880022    1    1    2    0    0  0.68363261812E+03  0.26052521758E+03 -0.46968224943E+03  0.88273439606E+03  0.15294330000E+03 0.  0.
<mgrwt>
<rscale>  0 0.74740792E+03</rscale>
<asrwt>0</asrwt>
<pdfrwt beam="1">  1        2 0.17227584E+00 0.74740792E+03</pdfrwt>
<pdfrwt beam="2">  1       -2 0.12755785E+00 0.74740792E+03</pdfrwt>
<totfact> 0.98371125E+00</totfact>
</mgrwt>
</event>
<event>
 4    1  0.4880711E-008  0.3826041E+03  0.7818608E-02  0.1049975E+00
          2   -1    0    0  501    0  0.00000000000E+00  0.00000000000E+00  0.12136269908E+04  0.12136269908E+04  0.25500000000E-02 0. -1.
         -2   -1    0    0    0  501 -0.00000000000E+00 -0.00000000000E+00 -0.23175364808E+03  0.23175364809E+03  0.25500000000E-02 0.  1.
    8880022    1    1    2    0    0 -0.11575489157E+03 -0.33105142256E+03  0.99139119998E+03  0.10626581782E+04  0.15294330000E+03 0.  0.
    8880022    1    1    2    0    0  0.11575489157E+03  0.33105142256E+03 -0.95178572394E+01  0.38272246070E+03  0.15294330000E+03 0.  0.
<mgrwt>
<rscale>  0 0.38260409E+03</rscale>
<asrwt>0</asrwt>
<pdfrwt beam="1">  1        2 0.18671184E+00 0.38260409E+03</pdfrwt>
<pdfrwt beam="2">  1       -2 0.35654408E-01 0.38260409E+03</pdfrwt>
<totfact> 0.14453391E+02</totfact>
</mgrwt>
</event>
<event>
 4    1  0.4880711E-008  0.1090285E+04  0.7818608E-02  0.9214712E-01
          2   -1    0    0  501    0  0.00000000000E+00  0.00000000000E+00  0.20826493148E+04  0.20826493148E+04  0.25500000000E-02 0. -1.
         -2   -1    0    0    0  501 -0.00000000000E+00 -0.00000000000E+00 -0.70535149632E+03  0.70535149633E+03  0.25500000000E-02 0.  1.
    8880022    1    1    2    0    0  0.17767439174E+03  0.10647828799E+04  0.12975490296E+04  0.16948026163E+04  0.15294330000E+03 0.  0.
    8880022    1    1    2    0    0 -0.17767439174E+03 -0.10647828799E+04  0.79748788800E+02  0.10931981948E+04  0.15294330000E+03 0.  0.
<mgrwt>
<rscale>  0 0.10902855E+04</rscale>
<asrwt>0</asrwt>
<pdfrwt beam="1">  1        2 0.32040759E+00 0.10902855E+04</pdfrwt>
<pdfrwt beam="2">  1       -2 0.10851562E+00 0.10902855E+04</pdfrwt>
<totfact> 0.40395044E+00</totfact>
</mgrwt>
</event>
<event>
 4    1  0.4880711E-008  0.2271512E+03  0.7818608E-02  0.1128661E+00
         -2   -1    0    0    0  501 -0.00000000000E+00  0.00000000000E+00  0.33289772952E+03  0.33289772953E+03  0.25500000000E-02 0.  1.
          2   -1    0    0  501    0  0.00000000000E+00 -0.00000000000E+00 -0.18393833728E+03  0.18393833730E+03  0.25500000000E-02 0. -1.
    8880022    1    1    2    0    0 -0.36641144671E+01 -0.16790644172E+03 -0.28028171205E+02  0.22887383053E+03  0.15294330000E+03 0. -1.
    8880022    1    1    2    0    0  0.36641144671E+01  0.16790644172E+03  0.17698756344E+03  0.28796223630E+03  0.15294330000E+03 0.  1.
<mgrwt>
<rscale>  0 0.22715117E+03</rscale>
<asrwt>0</asrwt>
<pdfrwt beam="1">  1        2 0.28298206E-01 0.22715117E+03</pdfrwt>
<pdfrwt beam="2">  1       -2 0.51215035E-01 0.22715117E+03</pdfrwt>
<totfact> 0.68506497E+02</totfact>
</mgrwt>
</event>
<event>
 4    1  0.4880711E-008  0.3926331E+03  0.7818608E-02  0.1046361E+00
         -2   -1    0    0    0  501 -0.00000000000E+00  0.00000000000E+00  0.18680958053E+04  0.18680958053E+04  0.25500000000E-02 0.  1.
          2   -1    0    0  501    0  0.00000000000E+00 -0.00000000000E+00 -0.14963000772E+03  0.14963000774E+03  0.25500000000E-02 0. -1.
    8880022    1    1    2    0    0  0.14519755616E+03  0.33118991593E+03  0.15348598433E+04  0.15842839021E+04  0.15294330000E+03 0.  0.
    8880022    1    1    2    0    0 -0.14519755616E+03 -0.33118991593E+03  0.18360595426E+03  0.43344191097E+03  0.15294330000E+03 0.  0.
<mgrwt>
<rscale>  0 0.39263309E+03</rscale>
<asrwt>0</asrwt>
<pdfrwt beam="1">  1        2 0.23020000E-01 0.39263309E+03</pdfrwt>
<pdfrwt beam="2">  1       -2 0.28739937E+00 0.39263309E+03</pdfrwt>
<totfact> 0.99793284E+00</totfact>
</mgrwt>
</event>
<event>
 4    1  0.4880711E-008  0.7326131E+03  0.7818608E-02  0.9663030E-01
         -2   -1    0    0    0  501 -0.00000000000E+00  0.00000000000E+00  0.11647793869E+04  0.11647793869E+04  0.25500000000E-02 0.  1.
          2   -1    0    0  501    0  0.00000000000E+00 -0.00000000000E+00 -0.69998354555E+03  0.69998354555E+03  0.25500000000E-02 0. -1.
    8880022    1    1    2    0    0 -0.21058818315E+03 -0.68482324655E+03  0.77742983619E+03  0.10682317469E+04  0.15294330000E+03 0.  0.
    8880022    1    1    2    0    0  0.21058818315E+03  0.68482324655E+03 -0.31263399480E+03  0.79653118559E+03  0.15294330000E+03 0.  0.
<mgrwt>
<rscale>  0 0.73261307E+03</rscale>
<asrwt>0</asrwt>
<pdfrwt beam="1">  1        2 0.10768978E+00 0.73261307E+03</pdfrwt>
<pdfrwt beam="2">  1       -2 0.17919683E+00 0.73261307E+03</pdfrwt>
<totfact> 0.76772858E+00</totfact>
</mgrwt>
</event>
<event>
 4    1  0.4880711E-008  0.8349340E+03  0.7818608E-02  0.9510784E-01
         -2   -1    0    0    0  501 -0.00000000000E+00  0.00000000000E+00  0.28582029576E+03  0.28582029577E+03  0.25500000000E-02 0.  1.
          2   -1    0    0  501    0  0.00000000000E+00 -0.00000000000E+00 -0.28530502132E+04  0.28530502132E+04  0.25500000000E-02 0. -1.
    8880022    1    1    2    0    0 -0.71833821420E+03  0.39713148513E+03 -0.68573121193E+03  0.10804360946E+04  0.15294330000E+03 0.  0.
    8880022    1    1    2    0    0  0.71833821420E+03 -0.39713148513E+03 -0.18814987056E+04  0.20584344144E+04  0.15294330000E+03 0.  0.
<mgrwt>
<rscale>  0 0.83493404E+03</rscale>
<asrwt>0</asrwt>
<pdfrwt beam="1">  1        2 0.43893078E+00 0.83493404E+03</pdfrwt>
<pdfrwt beam="2">  1       -2 0.43972355E-01 0.83493404E+03</pdfrwt>
<totfact> 0.10988237E+01</totfact>
</mgrwt>
</event>
<event>
 4    1  0.4880711E-008  0.5786430E+03  0.7818608E-02  0.9950733E-01
         -2   -1    0    0    0  501 -0.00000000000E+00  0.00000000000E+00  0.15993194946E+03  0.15993194948E+03  0.25500000000E-02 0.  1.
          2   -1    0    0  501    0  0.00000000000E+00 -0.00000000000E+00 -0.30464887998E+04  0.30464887998E+04  0.25500000000E-02 0. -1.
    8880022    1    1    2    0    0  0.45889442117E+03  0.31757195773E+03 -0.54663420882E+03  0.79601297061E+03  0.15294330000E+03 0.  0.
    8880022    1    1    2    0    0 -0.45889442117E+03 -0.31757195773E+03 -0.23399226415E+04  0.24104077787E+04  0.15294330000E+03 0. -1.
<mgrwt>
<rscale>  0 0.57864297E+03</rscale>
<asrwt>0</asrwt>
<pdfrwt beam="1">  1        2 0.46869054E+00 0.57864297E+03</pdfrwt>
<pdfrwt beam="2">  1       -2 0.24604918E-01 0.57864297E+03</pdfrwt>
<totfact> 0.26255050E+01</totfact>
</mgrwt>
</event>
<event>
 4    1  0.4880711E-008  0.5308043E+03  0.7818608E-02  0.1006037E+00
          2   -1    0    0  501    0  0.00000000000E+00  0.00000000000E+00  0.18354623159E+04  0.18354623159E+04  0.25500000000E-02 0. -1.
         -2   -1    0    0    0  501 -0.00000000000E+00 -0.00000000000E+00 -0.18284922730E+03  0.18284922731E+03  0.25500000000E-02 0.  1.
    8880022    1    1    2    0    0 -0.50828410978E+03 -0.29746051223E+01  0.42203740960E+03  0.67813627882E+03  0.15294330000E+03 0.  0.
    8880022    1    1    2    0    0  0.50828410978E+03  0.29746051223E+01  0.12305756790E+04  0.13401752644E+04  0.15294330000E+03 0.  0.
<mgrwt>
<rscale>  0 0.53080433E+03</rscale>
<asrwt>0</asrwt>
<pdfrwt beam="1">  1        2 0.28237883E+00 0.53080433E+03</pdfrwt>
<pdfrwt beam="2">  1       -2 0.28130649E-01 0.53080433E+03</pdfrwt>
<totfact> 0.10007206E+02</totfact>
</mgrwt>
</event>
<event>
 4    1  0.4880711E-008  0.2513755E+03  0.7818608E-02  0.1112439E+00
          2   -1    0    0  501    0  0.00000000000E+00  0.00000000000E+00  0.49941044572E+03  0.49941044572E+03  0.25500000000E-02 0. -1.
         -2   -1    0    0    0  501 -0.00000000000E+00 -0.00000000000E+00 -0.20687330919E+03  0.20687330921E+03  0.25500000000E-02 0.  1.
    8880022    1    1    2    0    0 -0.16541819141E+03 -0.11151144352E+03  0.36634625827E+03  0.44429631334E+03  0.15294330000E+03 0. -1.
    8880022    1    1    2    0    0  0.16541819141E+03  0.11151144352E+03 -0.73809121746E+02  0.26198744159E+03  0.15294330000E+03 0.  0.
<mgrwt>
<rscale>  0 0.25137548E+03</rscale>
<asrwt>0</asrwt>
<pdfrwt beam="1">  1        2 0.76832375E-01 0.25137548E+03</pdfrwt>
<pdfrwt beam="2">  1       -2 0.31826663E-01 0.25137548E+03</pdfrwt>
<totfact> 0.57458961E+02</totfact>
</mgrwt>
</event>
<event>
 4    1  0.4880711E-008  0.1970576E+03  0.7818608E-02  0.1152246E+00
          2   -1    0    0  501    0  0.00000000000E+00  0.00000000000E+00  0.18119558735E+04  0.18119558735E+04  0.25500000000E-02 0. -1.
         -2   -1    0    0    0  501 -0.00000000000E+00 -0.00000000000E+00 -0.24561745779E+03  0.24561745781E+03  0.25500000000E-02 0.  1.
    8880022    1    1    2    0    0 -0.23687521123E+02 -0.12197921491E+03 -0.19971098458E+03  0.28056399965E+03  0.15294330000E+03 0.  0.
    8880022    1    1    2    0    0  0.23687521123E+02  0.12197921491E+03  0.17660494003E+04  0.17770093317E+04  0.15294330000E+03 0.  0.
<mgrwt>
<rscale>  0 0.19705756E+03</rscale>
<asrwt>0</asrwt>
<pdfrwt beam="1">  1        2 0.27876246E+00 0.19705756E+03</pdfrwt>
<pdfrwt beam="2">  1       -2 0.37787299E-01 0.19705756E+03</pdfrwt>
<totfact> 0.64501199E+01</totfact>
</mgrwt>
</event>
<event>
 4    1  0.4880711E-008  0.7580623E+03  0.7818608E-02  0.9622786E-01
          2   -1    0    0  501    0  0.00000000000E+00  0.00000000000E+00  0.18240045301E+04  0.18240045301E+04  0.25500000000E-02 0. -1.
         -2   -1    0    0    0  501 -0.00000000000E+00 -0.00000000000E+00 -0.43929599823E+03  0.43929599824E+03  0.25500000000E-02 0.  1.
    8880022    1    1    2    0    0  0.64405640595E+03  0.36940240809E+03  0.90530637451E+02  0.76344891282E+03  0.15294330000E+03 0.  0.
    8880022    1    1    2    0    0 -0.64405640595E+03 -0.36940240809E+03  0.12941778944E+04  0.14998516155E+04  0.15294330000E+03 0.  0.
<mgrwt>
<rscale>  0 0.75806230E+03</rscale>
<asrwt>0</asrwt>
<pdfrwt beam="1">  1        2 0.28061608E+00 0.75806230E+03</pdfrwt>
<pdfrwt beam="2">  1       -2 0.67584001E-01 0.75806230E+03</pdfrwt>
<totfact> 0.17286899E+01</totfact>
</mgrwt>
</event>
<event>
 4    1  0.4880711E-008  0.2404236E+03  0.7818608E-02  0.1119511E+00
         -2   -1    0    0    0  501 -0.00000000000E+00  0.00000000000E+00  0.38850230421E+03  0.38850230422E+03  0.25500000000E-02 0.  1.
          2   -1    0    0  501    0  0.00000000000E+00 -0.00000000000E+00 -0.87915402095E+03  0.87915402095E+03  0.25500000000E-02 0. -1.
    8880022    1    1    2    0    0  0.16334744884E+03 -0.87917271496E+02  0.33238441160E+03  0.41022297078E+03  0.15294330000E+03 0.  0.
    8880022    1    1    2    0    0 -0.16334744884E+03  0.87917271496E+02 -0.82303612833E+03  0.85743335439E+03  0.15294330000E+03 0.  0.
<mgrwt>
<rscale>  0 0.24042356E+03</rscale>
<asrwt>0</asrwt>
<pdfrwt beam="1">  1        2 0.13525447E+00 0.24042356E+03</pdfrwt>
<pdfrwt beam="2">  1       -2 0.59769585E-01 0.24042356E+03</pdfrwt>
<totfact> 0.85231907E+01</totfact>
</mgrwt>
</event>
<event>
 4    1  0.5451138E-008  0.7502569E+03  0.7818608E-02  0.9634947E-01
         -2   -1    0    0    0  501 -0.00000000000E+00  0.00000000000E+00  0.92920078536E+03  0.92920078537E+03  0.25500000000E-02 0.  1.
          2   -1    0    0  501    0  0.00000000000E+00 -0.00000000000E+00 -0.15223965235E+04  0.15223965235E+04  0.25500000000E-02 0. -1.
    8880022    1    1    2    0    0 -0.71132549307E+03  0.18305681421E+03 -0.12477513015E+04  0.14559425530E+04  0.15294330000E+03 0.  0.
    8880022    1    1    2    0    0  0.71132549307E+03 -0.18305681421E+03  0.65455556335E+03  0.99565475585E+03  0.15294330000E+03 0.  0.
<mgrwt>
<rscale>  0 0.75025689E+03</rscale>
<asrwt>0</asrwt>
<pdfrwt beam="1">  1        2 0.23421485E+00 0.75025689E+03</pdfrwt>
<pdfrwt beam="2">  1       -2 0.14295397E+00 0.75025689E+03</pdfrwt>
<totfact> 0.43047794E+00</totfact>
</mgrwt>
</event>
<event>
 4    1  0.5882162E-008  0.6708044E+03  0.7818608E-02  0.9768506E-01
          2   -1    0    0  501    0  0.00000000000E+00  0.00000000000E+00  0.19381187813E+04  0.19381187813E+04  0.25500000000E-02 0. -1.
         -2   -1    0    0    0  501 -0.00000000000E+00 -0.00000000000E+00 -0.11062637436E+04  0.11062637437E+04  0.25500000000E-02 0.  1.
    8880022    1    1    2    0    0 -0.61539240363E+03  0.21881288918E+03  0.17689910389E+04  0.18919058749E+04  0.15294330000E+03 0.  0.
    8880022    1    1    2    0    0  0.61539240363E+03 -0.21881288918E+03 -0.93713600126E+03  0.11524766500E+04  0.15294330000E+03 0.  0.
<mgrwt>
<rscale>  0 0.67080440E+03</rscale>
<asrwt>0</asrwt>
<pdfrwt beam="1">  1        2 0.29817212E+00 0.67080440E+03</pdfrwt>
<pdfrwt beam="2">  1       -2 0.17019442E+00 0.67080440E+03</pdfrwt>
<totfact> 0.16209866E+00</totfact>
</mgrwt>
</event>
<event>
 4    1  0.4880711E-008  0.6688567E+03  0.7818608E-02  0.9772025E-01
          2   -1    0    0  501    0  0.00000000000E+00  0.00000000000E+00  0.34530558857E+04  0.34530558857E+04  0.25500000000E-02 0. -1.
         -2   -1    0    0    0  501 -0.00000000000E+00 -0.00000000000E+00 -0.32076446056E+03  0.32076446057E+03  0.25500000000E-02 0.  1.
    8880022    1    1    2    0    0  0.30013853758E+03  0.57783599219E+03  0.10931203537E+03  0.67773029274E+03  0.15294330000E+03 0.  0.
    8880022    1    1    2    0    0 -0.30013853758E+03 -0.57783599219E+03  0.30229793897E+04  0.30960900535E+04  0.15294330000E+03 0.  0.
<mgrwt>
<rscale>  0 0.66885666E+03</rscale>
<asrwt>0</asrwt>
<pdfrwt beam="1">  1        2 0.53123938E+00 0.66885666E+03</pdfrwt>
<pdfrwt beam="2">  1       -2 0.49348377E-01 0.66885666E+03</pdfrwt>
<totfact> 0.37596772E+00</totfact>
</mgrwt>
</event>
<event>
 4    1  0.4880711E-008  0.7855277E+03  0.7818608E-02  0.9581205E-01
         -2   -1    0    0    0  501 -0.00000000000E+00  0.00000000000E+00  0.59049157159E+03  0.59049157160E+03  0.25500000000E-02 0.  1.
          2   -1    0    0  501    0  0.00000000000E+00 -0.00000000000E+00 -0.14177869484E+04  0.14177869484E+04  0.25500000000E-02 0. -1.
    8880022    1    1    2    0    0 -0.76844904102E+03 -0.56108706116E+02  0.10125907822E+03  0.79202725299E+03  0.15294330000E+03 0.  0.
    8880022    1    1    2    0    0  0.76844904102E+03  0.56108706116E+02 -0.92855445508E+03  0.12162512670E+04  0.15294330000E+03 0.  0.
<mgrwt>
<rscale>  0 0.78552770E+03</rscale>
<asrwt>0</asrwt>
<pdfrwt beam="1">  1        2 0.21812107E+00 0.78552770E+03</pdfrwt>
<pdfrwt beam="2">  1       -2 0.90844857E-01 0.78552770E+03</pdfrwt>
<totfact> 0.14888390E+01</totfact>
</mgrwt>
</event>
<event>
 4    1  0.4880711E-008  0.4486905E+03  0.7818608E-02  0.1028113E+00
          2   -1    0    0  501    0  0.00000000000E+00  0.00000000000E+00  0.24039740933E+04  0.24039740933E+04  0.25500000000E-02 0. -1.
         -2   -1    0    0    0  501 -0.00000000000E+00 -0.00000000000E+00 -0.14991214034E+03  0.14991214037E+03  0.25500000000E-02 0.  1.
    8880022    1    1    2    0    0 -0.34286187840E+03  0.24571773182E+03  0.19753733752E+04  0.20256907701E+04  0.15294330000E+03 0.  0.
    8880022    1    1    2    0    0  0.34286187840E+03 -0.24571773182E+03  0.27868857774E+03  0.52819546360E+03  0.15294330000E+03 0.  0.
<mgrwt>
<rscale>  0 0.44869046E+03</rscale>
<asrwt>0</asrwt>
<pdfrwt beam="1">  1        2 0.36984215E+00 0.44869046E+03</pdfrwt>
<pdfrwt beam="2">  1       -2 0.23063407E-01 0.44869046E+03</pdfrwt>
<totfact> 0.71321449E+01</totfact>
</mgrwt>
</event>
<event>
 4    1  0.4880711E-008  0.5452616E+03  0.7818608E-02  0.1002597E+00
         -2   -1    0    0    0  501 -0.00000000000E+00  0.00000000000E+00  0.28054828322E+03  0.28054828323E+03  0.25500000000E-02 0.  1.
          2   -1    0    0  501    0  0.00000000000E+00 -0.00000000000E+00 -0.11106268318E+04  0.11106268318E+04  0.25500000000E-02 0. -1.
    8880022    1    1    2    0    0 -0.13184162179E+01  0.52337062539E+03 -0.26615784189E+03  0.60675382121E+03  0.15294330000E+03 0.  1.
    8880022    1    1    2    0    0  0.13184162179E+01 -0.52337062539E+03 -0.56392070668E+03  0.78442129381E+03  0.15294330000E+03 0. -1.
<mgrwt>
<rscale>  0 0.54526159E+03</rscale>
<asrwt>0</asrwt>
<pdfrwt beam="1">  1        2 0.17086566E+00 0.54526159E+03</pdfrwt>
<pdfrwt beam="2">  1       -2 0.43161275E-01 0.54526159E+03</pdfrwt>
<totfact> 0.11274545E+02</totfact>
</mgrwt>
</event>
<event>
 4    1  0.4880711E-008  0.6816330E+03  0.7818608E-02  0.9749168E-01
         -2   -1    0    0    0  501 -0.00000000000E+00  0.00000000000E+00  0.12868191314E+03  0.12868191316E+03  0.25500000000E-02 0.  1.
          2   -1    0    0  501    0  0.00000000000E+00 -0.00000000000E+00 -0.44507685135E+04  0.44507685135E+04  0.25500000000E-02 0. -1.
    8880022    1    1    2    0    0 -0.54919378225E+02  0.66197864340E+03 -0.11662340272E+04  0.13508239417E+04  0.15294330000E+03 0.  0.
    8880022    1    1    2    0    0  0.54919378225E+02 -0.66197864340E+03 -0.31558525732E+04  0.32286264850E+04  0.15294330000E+03 0.  0.
<mgrwt>
<rscale>  0 0.68163298E+03</rscale>
<asrwt>0</asrwt>
<pdfrwt beam="1">  1        2 0.68473350E+00 0.68163298E+03</pdfrwt>
<pdfrwt beam="2">  1       -2 0.19797221E-01 0.68163298E+03</pdfrwt>
<totfact> 0.34286110E+00</totfact>
</mgrwt>
</event>
<event>
 4    1  0.4880711E-008  0.7216940E+03  0.7818608E-02  0.9680835E-01
          2   -1    0    0  501    0  0.00000000000E+00  0.00000000000E+00  0.20516422786E+04  0.20516422786E+04  0.25500000000E-02 0. -1.
         -2   -1    0    0    0  501 -0.00000000000E+00 -0.00000000000E+00 -0.93770525449E+03  0.93770525449E+03  0.25500000000E-02 0.  1.
    8880022    1    1    2    0    0 -0.22780388695E+02 -0.70493374864E+03  0.18333786808E+04  0.19703095129E+04  0.15294330000E+03 0.  0.
    8880022    1    1    2    0    0  0.22780388695E+02  0.70493374864E+03 -0.71944165677E+03  0.10190380202E+04  0.15294330000E+03 0.  0.
<mgrwt>
<rscale>  0 0.72169397E+03</rscale>
<asrwt>0</asrwt>
<pdfrwt beam="1">  1        2 0.31563727E+00 0.72169397E+03</pdfrwt>
<pdfrwt beam="2">  1       -2 0.14426235E+00 0.72169397E+03</pdfrwt>
<totfact> 0.21688615E+00</totfact>
</mgrwt>
</event>
<event>
 4    1  0.4880711E-008  0.5110619E+03  0.7818608E-02  0.1010931E+00
          2   -1    0    0  501    0  0.00000000000E+00  0.00000000000E+00  0.70213437432E+03  0.70213437432E+03  0.25500000000E-02 0. -1.
         -2   -1    0    0    0  501 -0.00000000000E+00 -0.00000000000E+00 -0.14630060916E+04  0.14630060916E+04  0.25500000000E-02 0.  1.
    8880022    1    1    2    0    0  0.48315686746E+03 -0.65970026746E+02  0.55443013063E+03  0.75404046693E+03  0.15294330000E+03 0.  0.
    8880022    1    1    2    0    0 -0.48315686746E+03  0.65970026746E+02 -0.13153018479E+04  0.14110999990E+04  0.15294330000E+03 0.  0.
<mgrwt>
<rscale>  0 0.51106189E+03</rscale>
<asrwt>0</asrwt>
<pdfrwt beam="1">  1        2 0.10802067E+00 0.51106189E+03</pdfrwt>
<pdfrwt beam="2">  1       -2 0.22507786E+00 0.51106189E+03</pdfrwt>
<totfact> 0.39996050E+00</totfact>
</mgrwt>
</event>
<event>
 4    1  0.4880711E-008  0.1763680E+03  0.7818608E-02  0.1171365E+00
         -2   -1    0    0    0  501 -0.00000000000E+00  0.00000000000E+00  0.22994927372E+02  0.22994927513E+02  0.25500000000E-02 0.  1.
          2   -1    0    0  501    0  0.00000000000E+00 -0.00000000000E+00 -0.13589008609E+04  0.13589008609E+04  0.25500000000E-02 0. -1.
    8880022    1    1    2    0    0 -0.27399016831E+02  0.83446373335E+02 -0.62134717502E+03  0.64589315545E+03  0.15294330000E+03 0.  1.
    8880022    1    1    2    0    0  0.27399016831E+02 -0.83446373335E+02 -0.71455875851E+03  0.73600263296E+03  0.15294330000E+03 0. -1.
<mgrwt>
<rscale>  0 0.17636796E+03</rscale>
<asrwt>0</asrwt>
<pdfrwt beam="1">  1        2 0.20906161E+00 0.17636796E+03</pdfrwt>
<pdfrwt beam="2">  1       -2 0.35376822E-02 0.17636796E+03</pdfrwt>
<totfact> 0.53291428E+03</totfact>
</mgrwt>
</event>
<event>
 4    1  0.4880711E-008  0.5291709E+03  0.7818608E-02  0.1006433E+00
          2   -1    0    0  501    0  0.00000000000E+00  0.00000000000E+00  0.16446189455E+04  0.16446189455E+04  0.25500000000E-02 0. -1.
         -2   -1    0    0    0  501 -0.00000000000E+00 -0.00000000000E+00 -0.20060617279E+03  0.20060617280E+03  0.25500000000E-02 0.  1.
    8880022    1    1    2    0    0  0.49577679410E+03 -0.10409396275E+03  0.10808126006E+04  0.12034025566E+04  0.15294330000E+03 0.  0.
    8880022    1    1    2    0    0 -0.49577679410E+03  0.10409396275E+03  0.36320017211E+03  0.64182256168E+03  0.15294330000E+03 0.  1.
<mgrwt>
<rscale>  0 0.52917089E+03</rscale>
<asrwt>0</asrwt>
<pdfrwt beam="1">  1        2 0.25301830E+00 0.52917089E+03</pdfrwt>
<pdfrwt beam="2">  1       -2 0.30862488E-01 0.52917089E+03</pdfrwt>
<totfact> 0.10700763E+02</totfact>
</mgrwt>
</event>
<event>
 4    1  0.4880711E-008  0.4284812E+03  0.7818608E-02  0.1034341E+00
         -2   -1    0    0    0  501 -0.00000000000E+00  0.00000000000E+00  0.95023995396E+02  0.95023995431E+02  0.25500000000E-02 0.  1.
          2   -1    0    0  501    0  0.00000000000E+00 -0.00000000000E+00 -0.36047534789E+04  0.36047534789E+04  0.25500000000E-02 0. -1.
    8880022    1    1    2    0    0  0.25092791489E+03  0.31183271259E+03 -0.30149805798E+04  0.30452756869E+04  0.15294330000E+03 0.  0.
    8880022    1    1    2    0    0 -0.25092791489E+03 -0.31183271259E+03 -0.49474890364E+03  0.65450178745E+03  0.15294330000E+03 0.  0.
<mgrwt>
<rscale>  0 0.42848117E+03</rscale>
<asrwt>0</asrwt>
<pdfrwt beam="1">  1        2 0.55457735E+00 0.42848117E+03</pdfrwt>
<pdfrwt beam="2">  1       -2 0.14619079E-01 0.42848117E+03</pdfrwt>
<totfact> 0.29137444E+01</totfact>
</mgrwt>
</event>
<event>
 4    1  0.4880711E-008  0.4494451E+03  0.7818608E-02  0.1027888E+00
          2   -1    0    0  501    0  0.00000000000E+00  0.00000000000E+00  0.81396175661E+03  0.81396175662E+03  0.25500000000E-02 0. -1.
         -2   -1    0    0    0  501 -0.00000000000E+00 -0.00000000000E+00 -0.60037362870E+03  0.60037362871E+03  0.25500000000E-02 0.  1.
    8880022    1    1    2    0    0 -0.42178362500E+03 -0.26604632959E+02 -0.43484318453E+03  0.62537147438E+03  0.15294330000E+03 0.  0.
    8880022    1    1    2    0    0  0.42178362500E+03  0.26604632959E+02  0.64843131244E+03  0.78896391095E+03  0.15294330000E+03 0.  0.
<mgrwt>
<rscale>  0 0.44944509E+03</rscale>
<asrwt>0</asrwt>
<pdfrwt beam="1">  1        2 0.12522489E+00 0.44944509E+03</pdfrwt>
<pdfrwt beam="2">  1       -2 0.92365174E-01 0.44944509E+03</pdfrwt>
<totfact> 0.35124690E+01</totfact>
</mgrwt>
</event>
<event>
 4    1  0.4880711E-008  0.3567913E+03  0.7818608E-02  0.1059862E+00
          2   -1    0    0  501    0  0.00000000000E+00  0.00000000000E+00  0.15396369210E+04  0.15396369210E+04  0.25500000000E-02 0. -1.
         -2   -1    0    0    0  501 -0.00000000000E+00 -0.00000000000E+00 -0.23668778969E+03  0.23668778971E+03  0.25500000000E-02 0.  1.
    8880022    1    1    2    0    0  0.26873027685E+03 -0.17802361710E+03 -0.64954464970E+02  0.36265562932E+03  0.15294330000E+03 0.  0.
    8880022    1    1    2    0    0 -0.26873027685E+03  0.17802361710E+03  0.13679035963E+04  0.14136690814E+04  0.15294330000E+03 0.  0.
<mgrwt>
<rscale>  0 0.35679129E+03</rscale>
<asrwt>0</asrwt>
<pdfrwt beam="1">  1        2 0.23686723E+00 0.35679129E+03</pdfrwt>
<pdfrwt beam="2">  1       -2 0.36413505E-01 0.35679129E+03</pdfrwt>
<totfact> 0.91984929E+01</totfact>
</mgrwt>
</event>
<event>
 4    1  0.4880711E-008  0.1603565E+03  0.7818608E-02  0.1188295E+00
          2   -1    0    0  501    0  0.00000000000E+00  0.00000000000E+00  0.32821913914E+04  0.32821913914E+04  0.25500000000E-02 0. -1.
         -2   -1    0    0    0  501 -0.00000000000E+00 -0.00000000000E+00 -0.12886170825E+03  0.12886170827E+03  0.25500000000E-02 0.  1.
    8880022    1    1    2    0    0 -0.28049857228E+02 -0.39188687189E+02 -0.76202961259E+02  0.17754180357E+03  0.15294330000E+03 0.  0.
    8880022    1    1    2    0    0  0.28049857228E+02  0.39188687189E+02  0.32295326444E+04  0.32335112961E+04  0.15294330000E+03 0. -1.
<mgrwt>
<rscale>  0 0.16035648E+03</rscale>
<asrwt>0</asrwt>
<pdfrwt beam="1">  1        2 0.50495248E+00 0.16035648E+03</pdfrwt>
<pdfrwt beam="2">  1       -2 0.19824880E-01 0.16035648E+03</pdfrwt>
<totfact> 0.32288995E+01</totfact>
</mgrwt>
</event>
<event>
 4    1  0.4880711E-008  0.3414567E+03  0.7818608E-02  0.1066177E+00
          2   -1    0    0  501    0  0.00000000000E+00  0.00000000000E+00  0.10524628839E+04  0.10524628839E+04  0.25500000000E-02 0. -1.
         -2   -1    0    0    0  501 -0.00000000000E+00 -0.00000000000E+00 -0.51049961924E+03  0.51049961925E+03  0.25500000000E-02 0.  1.
    8880022    1    1    2    0    0 -0.27838631078E+03 -0.12530795974E+03  0.96249113465E+03  0.10212648335E+04  0.15294330000E+03 0.  0.
    8880022    1    1    2    0    0  0.27838631078E+03  0.12530795974E+03 -0.42052787002E+03  0.54169766964E+03  0.15294330000E+03 0.  1.
<mgrwt>
<rscale>  0 0.34145670E+03</rscale>
<asrwt>0</asrwt>
<pdfrwt beam="1">  1        2 0.16191736E+00 0.34145670E+03</pdfrwt>
<pdfrwt beam="2">  1       -2 0.78538404E-01 0.34145670E+03</pdfrwt>
<totfact> 0.36162138E+01</totfact>
</mgrwt>
</event>
<event>
 4    1  0.4880711E-008  0.4068616E+03  0.7818608E-02  0.1041429E+00
          2   -1    0    0  501    0  0.00000000000E+00  0.00000000000E+00  0.17279907457E+04  0.17279907457E+04  0.25500000000E-02 0. -1.
         -2   -1    0    0    0  501 -0.00000000000E+00 -0.00000000000E+00 -0.23193658260E+03  0.23193658261E+03  0.25500000000E-02 0.  1.
    8880022    1    1    2    0    0  0.18937389059E+03  0.32600957626E+03 -0.27612570024E+01  0.40687097685E+03  0.15294330000E+03 0.  0.
    8880022    1    1    2    0    0 -0.18937389059E+03 -0.32600957626E+03  0.14988154201E+04  0.15530563515E+04  0.15294330000E+03 0.  0.
<mgrwt>
<rscale>  0 0.40686161E+03</rscale>
<asrwt>0</asrwt>
<pdfrwt beam="1">  1        2 0.26584473E+00 0.40686161E+03</pdfrwt>
<pdfrwt beam="2">  1       -2 0.35682552E-01 0.40686161E+03</pdfrwt>
<totfact> 0.74988979E+01</totfact>
</mgrwt>
</event>
<event>
 4    1  0.5572926E-008  0.8363783E+03  0.7818608E-02  0.9508804E-01
         -2   -1    0    0    0  501 -0.00000000000E+00  0.00000000000E+00  0.69730682433E+03  0.69730682433E+03  0.25500000000E-02 0.  1.
          2   -1    0    0  501    0  0.00000000000E+00 -0.00000000000E+00 -0.22538554499E+04  0.22538554499E+04  0.25500000000E-02 0. -1.
    8880022    1    1    2    0    0  0.30753743772E+03  0.76259931642E+03  0.32091193353E+03  0.89583096347E+03  0.15294330000E+03 0.  0.
    8880022    1    1    2    0    0 -0.30753743772E+03 -0.76259931642E+03 -0.18774605591E+04  0.20553313107E+04  0.15294330000E+03 0.  0.
<mgrwt>
<rscale>  0 0.83637829E+03</rscale>
<asrwt>0</asrwt>
<pdfrwt beam="1">  1        2 0.34674699E+00 0.83637829E+03</pdfrwt>
<pdfrwt beam="2">  1       -2 0.10727797E+00 0.83637829E+03</pdfrwt>
<totfact> 0.34548347E+00</totfact>
</mgrwt>
</event>
<event>
 4    1  0.4880711E-008  0.4669832E+03  0.7818608E-02  0.1022775E+00
          2   -1    0    0  501    0  0.00000000000E+00  0.00000000000E+00  0.27220515521E+04  0.27220515521E+04  0.25500000000E-02 0. -1.
         -2   -1    0    0    0  501 -0.00000000000E+00 -0.00000000000E+00 -0.89154384898E+02  0.89154384935E+02  0.25500000000E-02 0.  1.
    8880022    1    1    2    0    0  0.16201945151E+03  0.41040390660E+03  0.17640532633E+04  0.18248170423E+04  0.15294330000E+03 0. -1.
    8880022    1    1    2    0    0 -0.16201945151E+03 -0.41040390660E+03  0.86884390388E+03  0.98638889468E+03  0.15294330000E+03 0.  0.
<mgrwt>
<rscale>  0 0.46698321E+03</rscale>
<asrwt>0</asrwt>
<pdfrwt beam="1">  1        2 0.41877716E+00 0.46698321E+03</pdfrwt>
<pdfrwt beam="2">  1       -2 0.13716059E-01 0.46698321E+03</pdfrwt>
<totfact> 0.11449114E+02</totfact>
</mgrwt>
</event>
<event>
 4    1  0.4880711E-008  0.5479294E+03  0.7818608E-02  0.1001974E+00
          2   -1    0    0  501    0  0.00000000000E+00  0.00000000000E+00  0.16087436235E+04  0.16087436235E+04  0.25500000000E-02 0. -1.
         -2   -1    0    0    0  501 -0.00000000000E+00 -0.00000000000E+00 -0.32618637629E+03  0.32618637630E+03  0.25500000000E-02 0.  1.
    8880022    1    1    2    0    0  0.42733440796E+03 -0.30695329515E+03  0.84444670827E+01  0.54799451062E+03  0.15294330000E+03 0.  1.
    8880022    1    1    2    0    0 -0.42733440796E+03  0.30695329515E+03  0.12741127801E+04  0.13869354892E+04  0.15294330000E+03 0.  0.
<mgrwt>
<rscale>  0 0.54792944E+03</rscale>
<asrwt>0</asrwt>
<pdfrwt beam="1">  1        2 0.24749902E+00 0.54792944E+03</pdfrwt>
<pdfrwt beam="2">  1       -2 0.50182520E-01 0.54792944E+03</pdfrwt>
<totfact> 0.43544723E+01</totfact>
</mgrwt>
</event>
<event>
 4    1  0.4880711E-008  0.4035290E+03  0.7818608E-02  0.1042565E+00
          2   -1    0    0  501    0  0.00000000000E+00  0.00000000000E+00  0.32818866360E+04  0.32818866360E+04  0.25500000000E-02 0. -1.
         -2   -1    0    0    0  501 -0.00000000000E+00 -0.00000000000E+00 -0.14829383059E+03  0.14829383061E+03  0.25500000000E-02 0.  1.
    8880022    1    1    2    0    0  0.13911016326E+03 -0.34654349773E+03  0.16774343723E+03  0.43700520259E+03  0.15294330000E+03 0.  0.
    8880022    1    1    2    0    0 -0.13911016326E+03  0.34654349773E+03  0.29658493682E+04  0.29931752640E+04  0.15294330000E+03 0.  0.
<mgrwt>
<rscale>  0 0.40352904E+03</rscale>
<asrwt>0</asrwt>
<pdfrwt beam="1">  1        2 0.50490563E+00 0.40352904E+03</pdfrwt>
<pdfrwt beam="2">  1       -2 0.22814436E-01 0.40352904E+03</pdfrwt>
<totfact> 0.22413789E+01</totfact>
</mgrwt>
</event>
<event>
 4    1  0.4880711E-008  0.6080431E+03  0.7818608E-02  0.9888858E-01
         -2   -1    0    0    0  501 -0.00000000000E+00  0.00000000000E+00  0.10628617786E+04  0.10628617786E+04  0.25500000000E-02 0.  1.
          2   -1    0    0  501    0  0.00000000000E+00 -0.00000000000E+00 -0.63813252718E+03  0.63813252718E+03  0.25500000000E-02 0. -1.
    8880022    1    1    2    0    0 -0.37666175537E+03  0.45216226332E+03 -0.36126013458E+03  0.70726609433E+03  0.15294330000E+03 0.  0.
    8880022    1    1    2    0    0  0.37666175537E+03 -0.45216226332E+03  0.78598938605E+03  0.99372821150E+03  0.15294330000E+03 0. -1.
<mgrwt>
<rscale>  0 0.60804313E+03</rscale>
<asrwt>0</asrwt>
<pdfrwt beam="1">  1        2 0.98174237E-01 0.60804313E+03</pdfrwt>
<pdfrwt beam="2">  1       -2 0.16351719E+00 0.60804313E+03</pdfrwt>
<totfact> 0.11276950E+01</totfact>
</mgrwt>
</event>
<event>
 4    1  0.4880711E-008  0.7314817E+03  0.7818608E-02  0.9664859E-01
          2   -1    0    0  501    0  0.00000000000E+00  0.00000000000E+00  0.11601482273E+04  0.11601482273E+04  0.25500000000E-02 0. -1.
         -2   -1    0    0    0  501 -0.00000000000E+00 -0.00000000000E+00 -0.48417668473E+03  0.48417668473E+03  0.25500000000E-02 0.  1.
    8880022    1    1    2    0    0 -0.58316572298E+03 -0.41423611270E+03  0.15890136481E+03  0.74854199232E+03  0.15294330000E+03 0.  0.
    8880022    1    1    2    0    0  0.58316572298E+03  0.41423611270E+03  0.51707017777E+03  0.89578291972E+03  0.15294330000E+03 0.  1.
<mgrwt>
<rscale>  0 0.73148170E+03</rscale>
<asrwt>0</asrwt>
<pdfrwt beam="1">  1        2 0.17848434E+00 0.73148170E+03</pdfrwt>
<pdfrwt beam="2">  1       -2 0.74488721E-01 0.73148170E+03</pdfrwt>
<totfact> 0.33097829E+01</totfact>
</mgrwt>
</event>
<event>
 4    1  0.4880711E-008  0.8007598E+03  0.7818608E-02  0.9558918E-01
         -2   -1    0    0    0  501 -0.00000000000E+00  0.00000000000E+00  0.52531856759E+03  0.52531856759E+03  0.25500000000E-02 0.  1.
          2   -1    0    0  501    0  0.00000000000E+00 -0.00000000000E+00 -0.16602380177E+04  0.16602380177E+04  0.25500000000E-02 0. -1.
    8880022    1    1    2    0    0  0.60598558433E+03 -0.50060565081E+03 -0.11297788900E+04  0.13847803217E+04  0.15294330000E+03 0.  0.
    8880022    1    1    2    0    0 -0.60598558433E+03  0.50060565081E+03 -0.51405601656E+01  0.80077626365E+03  0.15294330000E+03 0.  0.
<mgrwt>
<rscale>  0 0.80075976E+03</rscale>
<asrwt>0</asrwt>
<pdfrwt beam="1">  1        2 0.25542123E+00 0.80075976E+03</pdfrwt>
<pdfrwt beam="2">  1       -2 0.80818242E-01 0.80075976E+03</pdfrwt>
<totfact> 0.14230859E+01</totfact>
</mgrwt>
</event>
<event>
 4    1  0.4880711E-008  0.6535333E+03  0.7818608E-02  0.9800172E-01
          2   -1    0    0  501    0  0.00000000000E+00  0.00000000000E+00  0.12758318025E+04  0.12758318025E+04  0.25500000000E-02 0. -1.
         -2   -1    0    0    0  501 -0.00000000000E+00 -0.00000000000E+00 -0.95101851611E+03  0.95101851611E+03  0.25500000000E-02 0.  1.
    8880022    1    1    2    0    0  0.54206770930E+03  0.33147647924E+03 -0.73387753661E+03  0.98269117708E+03  0.15294330000E+03 0.  0.
    8880022    1    1    2    0    0 -0.54206770930E+03 -0.33147647924E+03  0.10586908230E+04  0.12441591416E+04  0.15294330000E+03 0.  0.
<mgrwt>
<rscale>  0 0.65353325E+03</rscale>
<asrwt>0</asrwt>
<pdfrwt beam="1">  1        2 0.19628182E+00 0.65353325E+03</pdfrwt>
<pdfrwt beam="2">  1       -2 0.14631054E+00 0.65353325E+03</pdfrwt>
<totfact> 0.56698321E+00</totfact>
</mgrwt>
</event>
<event>
 4    1  0.4880711E-008  0.2054485E+03  0.7818608E-02  0.1145222E+00
          2   -1    0    0  501    0  0.00000000000E+00  0.00000000000E+00  0.66921777727E+03  0.66921777728E+03  0.25500000000E-02 0. -1.
         -2   -1    0    0    0  501 -0.00000000000E+00 -0.00000000000E+00 -0.70695849432E+02  0.70695849478E+02  0.25500000000E-02 0.  1.
    8880022    1    1    2    0    0  0.11662282663E+03  0.72225592999E+02  0.17777278560E+03  0.27168407441E+03  0.15294330000E+03 0.  1.
    8880022    1    1    2    0    0 -0.11662282663E+03 -0.72225592999E+02  0.42074914224E+03  0.46822955234E+03  0.15294330000E+03 0. -1.
<mgrwt>
<rscale>  0 0.20544847E+03</rscale>
<asrwt>0</asrwt>
<pdfrwt beam="1">  1        2 0.10295658E+00 0.20544847E+03</pdfrwt>
<pdfrwt beam="2">  1       -2 0.10876285E-01 0.20544847E+03</pdfrwt>
<totfact> 0.25478803E+03</totfact>
</mgrwt>
</event>
<event>
 4    1  0.4880711E-008  0.6050855E+03  0.7818608E-02  0.9894911E-01
          2   -1    0    0  501    0  0.00000000000E+00  0.00000000000E+00  0.13050668914E+04  0.13050668914E+04  0.25500000000E-02 0. -1.
         -2   -1    0    0    0  501 -0.00000000000E+00 -0.00000000000E+00 -0.29279215008E+03  0.29279215009E+03  0.25500000000E-02 0.  1.
    8880022    1    1    2    0    0 -0.40387599030E+03 -0.42381719164E+03  0.34273182341E+03  0.69540893241E+03  0.15294330000E+03 0.  0.
    8880022    1    1    2    0    0  0.40387599030E+03  0.42381719164E+03  0.66954291792E+03  0.90245010911E+03  0.15294330000E+03 0.  0.
<mgrwt>
<rscale>  0 0.60508552E+03</rscale>
<asrwt>0</asrwt>
<pdfrwt beam="1">  1        2 0.20077952E+00 0.60508552E+03</pdfrwt>
<pdfrwt beam="2">  1       -2 0.45044946E-01 0.60508552E+03</pdfrwt>
<totfact> 0.79198739E+01</totfact>
</mgrwt>
</event>
<event>
 4    1  0.4880711E-008  0.3280827E+03  0.7818608E-02  0.1071988E+00
          2   -1    0    0  501    0  0.00000000000E+00  0.00000000000E+00  0.13192721927E+04  0.13192721927E+04  0.25500000000E-02 0. -1.
         -2   -1    0    0    0  501 -0.00000000000E+00 -0.00000000000E+00 -0.10165823431E+03  0.10165823435E+03  0.25500000000E-02 0.  1.
    8880022    1    1    2    0    0  0.28771042124E+03 -0.38331386355E+02  0.29313515073E+03  0.43996187480E+03  0.15294330000E+03 0.  0.
    8880022    1    1    2    0    0 -0.28771042124E+03  0.38331386355E+02  0.92447880763E+03  0.98096855222E+03  0.15294330000E+03 0.  0.
<mgrwt>
<rscale>  0 0.32808266E+03</rscale>
<asrwt>0</asrwt>
<pdfrwt beam="1">  1        2 0.20296496E+00 0.32808266E+03</pdfrwt>
<pdfrwt beam="2">  1       -2 0.15639728E-01 0.32808266E+03</pdfrwt>
<totfact> 0.54568388E+02</totfact>
</mgrwt>
</event>
<event>
 4    1  0.4880711E-008  0.1651262E+03  0.7818608E-02  0.1183028E+00
         -2   -1    0    0    0  501 -0.00000000000E+00  0.00000000000E+00  0.10369624517E+03  0.10369624520E+03  0.25500000000E-02 0.  1.
          2   -1    0    0  501    0  0.00000000000E+00 -0.00000000000E+00 -0.10506682700E+04  0.10506682700E+04  0.25500000000E-02 0. -1.
    8880022    1    1    2    0    0 -0.57496454442E+02 -0.23857348183E+02  0.26279533939E+02  0.16720431291E+03  0.15294330000E+03 0.  1.
    8880022    1    1    2    0    0  0.57496454442E+02  0.23857348183E+02 -0.97325155879E+03  0.98716020232E+03  0.15294330000E+03 0.  0.
<mgrwt>
<rscale>  0 0.16512622E+03</rscale>
<asrwt>0</asrwt>
<pdfrwt beam="1">  1        2 0.16164126E+00 0.16512622E+03</pdfrwt>
<pdfrwt beam="2">  1       -2 0.15953269E-01 0.16512622E+03</pdfrwt>
<totfact> 0.76283405E+02</totfact>
</mgrwt>
</event>
<event>
 4    1  0.4880711E-008  0.5216786E+03  0.7818608E-02  0.1008270E+00
         -2   -1    0    0    0  501 -0.00000000000E+00  0.00000000000E+00  0.14585062520E+03  0.14585062522E+03  0.25500000000E-02 0.  1.
          2   -1    0    0  501    0  0.00000000000E+00 -0.00000000000E+00 -0.28877870701E+04  0.28877870701E+04  0.25500000000E-02 0. -1.
    8880022    1    1    2    0    0 -0.23804084348E+03  0.43828470413E+03 -0.46868269014E+03  0.70129312137E+03  0.15294330000E+03 0.  0.
    8880022    1    1    2    0    0  0.23804084348E+03 -0.43828470413E+03 -0.22732537547E+04  0.23323445739E+04  0.15294330000E+03 0.  0.
<mgrwt>
<rscale>  0 0.52167862E+03</rscale>
<asrwt>0</asrwt>
<pdfrwt beam="1">  1        2 0.44427489E+00 0.52167862E+03</pdfrwt>
<pdfrwt beam="2">  1       -2 0.22438560E-01 0.52167862E+03</pdfrwt>
<totfact> 0.39027841E+01</totfact>
</mgrwt>
</event>
<event>
 4    1  0.4880711E-008  0.4391359E+03  0.7818608E-02  0.1031012E+00
         -2   -1    0    0    0  501 -0.00000000000E+00  0.00000000000E+00  0.38796656233E+03  0.38796656234E+03  0.25500000000E-02 0.  1.
          2   -1    0    0  501    0  0.00000000000E+00 -0.00000000000E+00 -0.70456639196E+03  0.70456639197E+03  0.25500000000E-02 0. -1.
    8880022    1    1    2    0    0 -0.26582405764E+02  0.41078229851E+03  0.13815966729E+03  0.46035689171E+03  0.15294330000E+03 0.  0.
    8880022    1    1    2    0    0  0.26582405764E+02 -0.41078229851E+03 -0.45475949691E+03  0.63217606260E+03  0.15294330000E+03 0.  0.
<mgrwt>
<rscale>  0 0.43913594E+03</rscale>
<asrwt>0</asrwt>
<pdfrwt beam="1">  1        2 0.10839483E+00 0.43913594E+03</pdfrwt>
<pdfrwt beam="2">  1       -2 0.59687164E-01 0.43913594E+03</pdfrwt>
<totfact> 0.11026778E+02</totfact>
</mgrwt>
</event>
<event>
 4    1  0.4880711E-008  0.1164003E+04  0.7818608E-02  0.9144961E-01
         -2   -1    0    0    0  501 -0.00000000000E+00  0.00000000000E+00  0.11491405931E+04  0.11491405931E+04  0.25500000000E-02 0.  1.
          2   -1    0    0  501    0  0.00000000000E+00 -0.00000000000E+00 -0.19946847277E+04  0.19946847277E+04  0.25500000000E-02 0. -1.
    8880022    1    1    2    0    0  0.95241458184E+03  0.65147370267E+03  0.58239224212E+03  0.13015697821E+04  0.15294330000E+03 0.  0.
    8880022    1    1    2    0    0 -0.95241458184E+03 -0.65147370267E+03 -0.14279363767E+04  0.18422555387E+04  0.15294330000E+03 0.  0.
<mgrwt>
<rscale>  0 0.11640031E+04</rscale>
<asrwt>0</asrwt>
<pdfrwt beam="1">  1        2 0.30687457E+00 0.11640031E+04</pdfrwt>
<pdfrwt beam="2">  1       -2 0.17679086E+00 0.11640031E+04</pdfrwt>
<totfact> 0.12533096E+00</totfact>
</mgrwt>
</event>
<event>
 4    1  0.4880711E-008  0.4754238E+03  0.7818608E-02  0.1020400E+00
         -2   -1    0    0    0  501 -0.00000000000E+00  0.00000000000E+00  0.30979070730E+03  0.30979070731E+03  0.25500000000E-02 0.  1.
          2   -1    0    0  501    0  0.00000000000E+00 -0.00000000000E+00 -0.14204358623E+04  0.14204358623E+04  0.25500000000E-02 0. -1.
    8880022    1    1    2    0    0 -0.40904588856E+03  0.18792979132E+03  0.47993695846E+02  0.47784013359E+03  0.15294330000E+03 0.  0.
    8880022    1    1    2    0    0  0.40904588856E+03 -0.18792979132E+03 -0.11586388508E+04  0.12523864360E+04  0.15294330000E+03 0.  0.
<mgrwt>
<rscale>  0 0.47542381E+03</rscale>
<asrwt>0</asrwt>
<pdfrwt beam="1">  1        2 0.21852859E+00 0.47542381E+03</pdfrwt>
<pdfrwt beam="2">  1       -2 0.47660110E-01 0.47542381E+03</pdfrwt>
<totfact> 0.61984592E+01</totfact>
</mgrwt>
</event>
<event>
 4    1  0.4880711E-008  0.3963355E+03  0.7818608E-02  0.1045056E+00
         -2   -1    0    0    0  501 -0.00000000000E+00  0.00000000000E+00  0.17301151454E+03  0.17301151456E+03  0.25500000000E-02 0.  1.
          2   -1    0    0  501    0  0.00000000000E+00 -0.00000000000E+00 -0.19228297571E+04  0.19228297571E+04  0.25500000000E-02 0. -1.
    8880022    1    1    2    0    0  0.32142855913E+03 -0.17428090440E+03 -0.11358390177E+03  0.41229007752E+03  0.15294330000E+03 0.  0.
    8880022    1    1    2    0    0 -0.32142855913E+03  0.17428090440E+03 -0.16362343408E+04  0.16835511942E+04  0.15294330000E+03 0.  0.
<mgrwt>
<rscale>  0 0.39633547E+03</rscale>
<asrwt>0</asrwt>
<pdfrwt beam="1">  1        2 0.29581995E+00 0.39633547E+03</pdfrwt>
<pdfrwt beam="2">  1       -2 0.26617157E-01 0.39633547E+03</pdfrwt>
<totfact> 0.10158613E+02</totfact>
</mgrwt>
</event>
<event>
 4    1  0.4880711E-008  0.6560692E+03  0.7818608E-02  0.9795457E-01
         -2   -1    0    0    0  501 -0.00000000000E+00  0.00000000000E+00  0.75893088666E+03  0.75893088666E+03  0.25500000000E-02 0.  1.
          2   -1    0    0  501    0  0.00000000000E+00 -0.00000000000E+00 -0.13122657502E+04  0.13122657502E+04  0.25500000000E-02 0. -1.
    8880022    1    1    2    0    0  0.63120660371E+03 -0.92808482241E+02  0.50368829486E+03  0.82712075439E+03  0.15294330000E+03 0.  0.
    8880022    1    1    2    0    0 -0.63120660371E+03  0.92808482241E+02 -0.10570231585E+04  0.12440758825E+04  0.15294330000E+03 0.  0.
<mgrwt>
<rscale>  0 0.65606924E+03</rscale>
<asrwt>0</asrwt>
<pdfrwt beam="1">  1        2 0.20188704E+00 0.65606924E+03</pdfrwt>
<pdfrwt beam="2">  1       -2 0.11675860E+00 0.65606924E+03</pdfrwt>
<totfact> 0.95630850E+00</totfact>
</mgrwt>
</event>
<event>
 4    1  0.4880711E-008  0.2147264E+03  0.7818608E-02  0.1137877E+00
          2   -1    0    0  501    0  0.00000000000E+00  0.00000000000E+00  0.99261948552E+03  0.99261948552E+03  0.25500000000E-02 0. -1.
         -2   -1    0    0    0  501 -0.00000000000E+00 -0.00000000000E+00 -0.52914281534E+02  0.52914281595E+02  0.25500000000E-02 0.  1.
    8880022    1    1    2    0    0 -0.58904814083E+02  0.13872987570E+03  0.65256745297E+03  0.68698740106E+03  0.15294330000E+03 0.  0.
    8880022    1    1    2    0    0  0.58904814083E+02 -0.13872987570E+03  0.28713775102E+03  0.35854636605E+03  0.15294330000E+03 0.  0.
<mgrwt>
<rscale>  0 0.21472636E+03</rscale>
<asrwt>0</asrwt>
<pdfrwt beam="1">  1        2 0.15271068E+00 0.21472636E+03</pdfrwt>
<pdfrwt beam="2">  1       -2 0.81406590E-02 0.21472636E+03</pdfrwt>
<totfact> 0.24314792E+03</totfact>
</mgrwt>
</event>
<event>
 4    1  0.4880711E-008  0.7165355E+03  0.7818608E-02  0.9689365E-01
          2   -1    0    0  501    0  0.00000000000E+00  0.00000000000E+00  0.90739709441E+03  0.90739709441E+03  0.25500000000E-02 0. -1.
         -2   -1    0    0    0  501 -0.00000000000E+00 -0.00000000000E+00 -0.88326121511E+03  0.88326121512E+03  0.25500000000E-02 0.  1.
    8880022    1    1    2    0    0 -0.69153642256E+03 -0.10866846791E+03  0.54881544864E+03  0.90256385332E+03  0.15294330000E+03 0.  0.
    8880022    1    1    2    0    0  0.69153642256E+03  0.10866846791E+03 -0.52467956934E+03  0.88809445621E+03  0.15294330000E+03 0.  0.
<mgrwt>
<rscale>  0 0.71653549E+03</rscale>
<asrwt>0</asrwt>
<pdfrwt beam="1">  1        2 0.13959955E+00 0.71653549E+03</pdfrwt>
<pdfrwt beam="2">  1       -2 0.13588634E+00 0.71653549E+03</pdfrwt>
<totfact> 0.11474631E+01</totfact>
</mgrwt>
</event>
<event>
 4    1  0.4880711E-008  0.6233128E+03  0.7818608E-02  0.9858186E-01
         -2   -1    0    0    0  501 -0.00000000000E+00  0.00000000000E+00  0.15171882053E+03  0.15171882055E+03  0.25500000000E-02 0.  1.
          2   -1    0    0  501    0  0.00000000000E+00 -0.00000000000E+00 -0.37370574034E+04  0.37370574034E+04  0.25500000000E-02 0. -1.
    8880022    1    1    2    0    0 -0.74523245108E+02  0.59964443722E+03 -0.70180032098E+03  0.93863864649E+03  0.15294330000E+03 0.  0.
    8880022    1    1    2    0    0  0.74523245108E+02 -0.59964443722E+03 -0.28835382619E+04  0.29501375774E+04  0.15294330000E+03 0.  0.
<mgrwt>
<rscale>  0 0.62331278E+03</rscale>
<asrwt>0</asrwt>
<pdfrwt beam="1">  1        2 0.57493184E+00 0.62331278E+03</pdfrwt>
<pdfrwt beam="2">  1       -2 0.23341360E-01 0.62331278E+03</pdfrwt>
<totfact> 0.99529932E+00</totfact>
</mgrwt>
</event>
<event>
 4    1  0.4880711E-008  0.5337642E+03  0.7818608E-02  0.1005323E+00
          2   -1    0    0  501    0  0.00000000000E+00  0.00000000000E+00  0.74678568209E+03  0.74678568209E+03  0.25500000000E-02 0. -1.
         -2   -1    0    0    0  501 -0.00000000000E+00 -0.00000000000E+00 -0.10760537473E+04  0.10760537473E+04  0.25500000000E-02 0.  1.
    8880022    1    1    2    0    0  0.80876848747E+02 -0.50494707099E+03  0.56760361291E+03  0.77915218255E+03  0.15294330000E+03 0.  0.
    8880022    1    1    2    0    0 -0.80876848747E+02  0.50494707099E+03 -0.89687167809E+03  0.10436872468E+04  0.15294330000E+03 0.  1.
<mgrwt>
<rscale>  0 0.53376424E+03</rscale>
<asrwt>0</asrwt>
<pdfrwt beam="1">  1        2 0.11489010E+00 0.53376424E+03</pdfrwt>
<pdfrwt beam="2">  1       -2 0.16554673E+00 0.53376424E+03</pdfrwt>
<totfact> 0.90611291E+00</totfact>
</mgrwt>
</event>
<event>
 4    1  0.4880711E-008  0.4061890E+03  0.7818608E-02  0.1041657E+00
         -2   -1    0    0    0  501 -0.00000000000E+00  0.00000000000E+00  0.63285286984E+03  0.63285286984E+03  0.25500000000E-02 0.  1.
          2   -1    0    0  501    0  0.00000000000E+00 -0.00000000000E+00 -0.12548760509E+04  0.12548760509E+04  0.25500000000E-02 0. -1.
    8880022    1    1    2    0    0 -0.94651608480E+02  0.36419628759E+03 -0.11511275202E+04  0.12206900031E+04  0.15294330000E+03 0.  0.
    8880022    1    1    2    0    0  0.94651608480E+02 -0.36419628759E+03  0.52910433917E+03  0.66703891762E+03  0.15294330000E+03 0.  1.
<mgrwt>
<rscale>  0 0.40618901E+03</rscale>
<asrwt>0</asrwt>
<pdfrwt beam="1">  1        2 0.19305785E+00 0.40618901E+03</pdfrwt>
<pdfrwt beam="2">  1       -2 0.97361980E-01 0.40618901E+03</pdfrwt>
<totfact> 0.16660822E+01</totfact>
</mgrwt>
</event>
<event>
 4    1  0.4880711E-008  0.1046112E+04  0.7818608E-02  0.9259368E-01
         -2   -1    0    0    0  501 -0.00000000000E+00  0.00000000000E+00  0.62422176425E+03  0.62422176425E+03  0.25500000000E-02 0.  1.
          2   -1    0    0  501    0  0.00000000000E+00 -0.00000000000E+00 -0.27689392207E+04  0.27689392207E+04  0.25500000000E-02 0. -1.
    8880022    1    1    2    0    0  0.50799402940E+03  0.90160961598E+03 -0.44765495652E+02  0.10470689739E+04  0.15294330000E+03 0.  0.
    8880022    1    1    2    0    0 -0.50799402940E+03 -0.90160961598E+03 -0.20999519608E+04  0.23460920111E+04  0.15294330000E+03 0.  0.
<mgrwt>
<rscale>  0 0.10461116E+04</rscale>
<asrwt>0</asrwt>
<pdfrwt beam="1">  1        2 0.42599064E+00 0.10461116E+04</pdfrwt>
<pdfrwt beam="2">  1       -2 0.96034119E-01 0.10461116E+04</pdfrwt>
<totfact> 0.22107125E+00</totfact>
</mgrwt>
</event>
<event>
 4    1  0.4880711E-008  0.8235675E+03  0.7818608E-02  0.9526517E-01
          2   -1    0    0  501    0  0.00000000000E+00  0.00000000000E+00  0.45670540052E+03  0.45670540052E+03  0.25500000000E-02 0. -1.
         -2   -1    0    0    0  501 -0.00000000000E+00 -0.00000000000E+00 -0.17694550896E+04  0.17694550896E+04  0.25500000000E-02 0.  1.
    8880022    1    1    2    0    0 -0.71243642772E+03  0.38380486715E+03 -0.11025649948E+04  0.13761951389E+04  0.15294330000E+03 0.  0.
    8880022    1    1    2    0    0  0.71243642772E+03 -0.38380486715E+03 -0.21018469433E+03  0.84996535126E+03  0.15294330000E+03 0.  0.
<mgrwt>
<rscale>  0 0.82356754E+03</rscale>
<asrwt>0</asrwt>
<pdfrwt beam="1">  1        2 0.70262370E-01 0.82356754E+03</pdfrwt>
<pdfrwt beam="2">  1       -2 0.27222386E+00 0.82356754E+03</pdfrwt>
<totfact> 0.32892610E+00</totfact>
</mgrwt>
</event>
<event>
 4    1  0.4880711E-008  0.2496271E+03  0.7818608E-02  0.1113541E+00
         -2   -1    0    0    0  501 -0.00000000000E+00  0.00000000000E+00  0.50701569873E+02  0.50701569937E+02  0.25500000000E-02 0.  1.
          2   -1    0    0  501    0  0.00000000000E+00 -0.00000000000E+00 -0.18673118664E+04  0.18673118664E+04  0.25500000000E-02 0. -1.
    8880022    1    1    2    0    0  0.19314978022E+03 -0.40189315976E+02 -0.14689915230E+04  0.14900502563E+04  0.15294330000E+03 0.  0.
    8880022    1    1    2    0    0 -0.19314978022E+03  0.40189315976E+02 -0.34761877351E+03  0.42796317999E+03  0.15294330000E+03 0.  0.
<mgrwt>
<rscale>  0 0.24962707E+03</rscale>
<asrwt>0</asrwt>
<pdfrwt beam="1">  1        2 0.28727869E+00 0.24962707E+03</pdfrwt>
<pdfrwt beam="2">  1       -2 0.78002430E-02 0.24962707E+03</pdfrwt>
<totfact> 0.86138619E+02</totfact>
</mgrwt>
</event>
<event>
 4    1  0.4880711E-008  0.4149164E+03  0.7818608E-02  0.1038734E+00
         -2   -1    0    0    0  501 -0.00000000000E+00  0.00000000000E+00  0.23608769408E+03  0.23608769410E+03  0.25500000000E-02 0.  1.
          2   -1    0    0  501    0  0.00000000000E+00 -0.00000000000E+00 -0.10401246848E+04  0.10401246848E+04  0.25500000000E-02 0. -1.
    8880022    1    1    2    0    0  0.31452102666E+03 -0.22324980569E+03 -0.53138152305E+02  0.41830523329E+03  0.15294330000E+03 0.  0.
    8880022    1    1    2    0    0 -0.31452102666E+03  0.22324980569E+03 -0.75089883841E+03  0.85790714561E+03  0.15294330000E+03 0.  0.
<mgrwt>
<rscale>  0 0.41491638E+03</rscale>
<asrwt>0</asrwt>
<pdfrwt beam="1">  1        2 0.16001918E+00 0.41491638E+03</pdfrwt>
<pdfrwt beam="2">  1       -2 0.36321184E-01 0.41491638E+03</pdfrwt>
<totfact> 0.17614532E+02</totfact>
</mgrwt>
</event>
<event>
 4    1  0.4880711E-008  0.8220781E+03  0.7818608E-02  0.9528599E-01
          2   -1    0    0  501    0  0.00000000000E+00  0.00000000000E+00  0.38625497602E+04  0.38625497602E+04  0.25500000000E-02 0. -1.
         -2   -1    0    0    0  501 -0.00000000000E+00 -0.00000000000E+00 -0.20332087138E+03  0.20332087140E+03  0.25500000000E-02 0.  1.
    8880022    1    1    2    0    0  0.28468252837E+03  0.75589458068E+03  0.25888059073E+04  0.27161974225E+04  0.15294330000E+03 0.  0.
    8880022    1    1    2    0    0 -0.28468252837E+03 -0.75589458068E+03  0.10704229814E+04  0.13496732091E+04  0.15294330000E+03 0.  0.
<mgrwt>
<rscale>  0 0.82207811E+03</rscale>
<asrwt>0</asrwt>
<pdfrwt beam="1">  1        2 0.59423838E+00 0.82207811E+03</pdfrwt>
<pdfrwt beam="2">  1       -2 0.31280136E-01 0.82207811E+03</pdfrwt>
<totfact> 0.45120919E+00</totfact>
</mgrwt>
</event>
<event>
 4    1  0.4880711E-008  0.5097179E+03  0.7818608E-02  0.1011273E+00
          2   -1    0    0  501    0  0.00000000000E+00  0.00000000000E+00  0.32912260388E+04  0.32912260388E+04  0.25500000000E-02 0. -1.
         -2   -1    0    0    0  501 -0.00000000000E+00 -0.00000000000E+00 -0.18023713276E+03  0.18023713278E+03  0.25500000000E-02 0.  1.
    8880022    1    1    2    0    0  0.31877403267E+03 -0.36715631014E+03  0.25425532812E+03  0.56961220569E+03  0.15294330000E+03 0.  0.
    8880022    1    1    2    0    0 -0.31877403267E+03  0.36715631014E+03  0.28567335779E+04  0.29018509658E+04  0.15294330000E+03 0.  0.
<mgrwt>
<rscale>  0 0.50971786E+03</rscale>
<asrwt>0</asrwt>
<pdfrwt beam="1">  1        2 0.50634246E+00 0.50971786E+03</pdfrwt>
<pdfrwt beam="2">  1       -2 0.27728790E-01 0.50971786E+03</pdfrwt>
<totfact> 0.15107152E+01</totfact>
</mgrwt>
</event>
<event>
 4    1  0.4880711E-008  0.6040081E+03  0.7818608E-02  0.9897125E-01
          2   -1    0    0  501    0  0.00000000000E+00  0.00000000000E+00  0.16029176348E+04  0.16029176348E+04  0.25500000000E-02 0. -1.
         -2   -1    0    0    0  501 -0.00000000000E+00 -0.00000000000E+00 -0.22975967669E+03  0.22975967671E+03  0.25500000000E-02 0.  1.
    8880022    1    1    2    0    0 -0.88527120921E+02  0.57757863556E+03  0.77539777519E+03  0.98288732527E+03  0.15294330000E+03 0.  0.
    8880022    1    1    2    0    0  0.88527120921E+02 -0.57757863556E+03  0.59776018287E+03  0.84978998619E+03  0.15294330000E+03 0.  0.
<mgrwt>
<rscale>  0 0.60400810E+03</rscale>
<asrwt>0</asrwt>
<pdfrwt beam="1">  1        2 0.24660271E+00 0.60400810E+03</pdfrwt>
<pdfrwt beam="2">  1       -2 0.35347643E-01 0.60400810E+03</pdfrwt>
<totfact> 0.86573385E+01</totfact>
</mgrwt>
</event>
<event>
 4    1  0.4880711E-008  0.8738249E+03  0.7818608E-02  0.9458906E-01
          2   -1    0    0  501    0  0.00000000000E+00  0.00000000000E+00  0.18319327772E+04  0.18319327772E+04  0.25500000000E-02 0. -1.
         -2   -1    0    0    0  501 -0.00000000000E+00 -0.00000000000E+00 -0.60053066658E+03  0.60053066659E+03  0.25500000000E-02 0.  1.
    8880022    1    1    2    0    0 -0.64862077844E+03 -0.56521628579E+03 -0.57006604069E+02  0.87568245949E+03  0.15294330000E+03 0.  0.
    8880022    1    1    2    0    0  0.64862077844E+03  0.56521628579E+03  0.12884087146E+04  0.15567809843E+04  0.15294330000E+03 0.  0.
<mgrwt>
<rscale>  0 0.87382493E+03</rscale>
<asrwt>0</asrwt>
<pdfrwt beam="1">  1        2 0.28183581E+00 0.87382493E+03</pdfrwt>
<pdfrwt beam="2">  1       -2 0.92389335E-01 0.87382493E+03</pdfrwt>
<totfact> 0.83550157E+00</totfact>
</mgrwt>
</event>
<event>
 4    1  0.4880711E-008  0.3908819E+03  0.7818608E-02  0.1046983E+00
         -2   -1    0    0    0  501 -0.00000000000E+00  0.00000000000E+00  0.22071135768E+03  0.22071135770E+03  0.25500000000E-02 0.  1.
          2   -1    0    0  501    0  0.00000000000E+00 -0.00000000000E+00 -0.22215876563E+04  0.22215876563E+04  0.25500000000E-02 0. -1.
    8880022    1    1    2    0    0 -0.31822058058E+03  0.16772803263E+03  0.12745099274E+02  0.39108965904E+03  0.15294330000E+03 0.  0.
    8880022    1    1    2    0    0  0.31822058058E+03 -0.16772803263E+03 -0.20136213978E+04  0.20512093549E+04  0.15294330000E+03 0.  0.
<mgrwt>
<rscale>  0 0.39088193E+03</rscale>
<asrwt>0</asrwt>
<pdfrwt beam="1">  1        2 0.34178270E+00 0.39088193E+03</pdfrwt>
<pdfrwt beam="2">  1       -2 0.33955595E-01 0.39088193E+03</pdfrwt>
<totfact> 0.44981592E+01</totfact>
</mgrwt>
</event>
<event>
 4    1  0.4880711E-008  0.4501662E+03  0.7818608E-02  0.1027672E+00
          2   -1    0    0  501    0  0.00000000000E+00  0.00000000000E+00  0.27442270153E+04  0.27442270153E+04  0.25500000000E-02 0. -1.
         -2   -1    0    0    0  501 -0.00000000000E+00 -0.00000000000E+00 -0.11301383657E+03  0.11301383660E+03  0.25500000000E-02 0.  1.
    8880022    1    1    2    0    0  0.41949418755E+03 -0.57294039448E+02  0.47456599386E+03  0.65411200561E+03  0.15294330000E+03 0.  0.
    8880022    1    1    2    0    0 -0.41949418755E+03  0.57294039448E+02  0.21566471849E+04  0.22031288463E+04  0.15294330000E+03 0.  0.
<mgrwt>
<rscale>  0 0.45016623E+03</rscale>
<asrwt>0</asrwt>
<pdfrwt beam="1">  1        2 0.42218876E+00 0.45016623E+03</pdfrwt>
<pdfrwt beam="2">  1       -2 0.17386744E-01 0.45016623E+03</pdfrwt>
<totfact> 0.74864156E+01</totfact>
</mgrwt>
</event>
<event>
 4    1  0.4880711E-008  0.1252018E+04  0.7818608E-02  0.9068505E-01
         -2   -1    0    0    0  501 -0.00000000000E+00  0.00000000000E+00  0.11635038301E+04  0.11635038301E+04  0.25500000000E-02 0.  1.
          2   -1    0    0  501    0  0.00000000000E+00 -0.00000000000E+00 -0.17351931305E+04  0.17351931305E+04  0.25500000000E-02 0. -1.
    8880022    1    1    2    0    0  0.58296729371E+03 -0.10974089012E+04  0.39944496135E+03  0.13141937042E+04  0.15294330000E+03 0.  0.
    8880022    1    1    2    0    0 -0.58296729371E+03  0.10974089012E+04 -0.97113426172E+03  0.15845032563E+04  0.15294330000E+03 0.  0.
<mgrwt>
<rscale>  0 0.12520179E+04</rscale>
<asrwt>0</asrwt>
<pdfrwt beam="1">  1        2 0.26695279E+00 0.12520179E+04</pdfrwt>
<pdfrwt beam="2">  1       -2 0.17900059E+00 0.12520179E+04</pdfrwt>
<totfact> 0.16669223E+00</totfact>
</mgrwt>
</event>
<event>
 4    1  0.4880711E-008  0.4773398E+03  0.7818608E-02  0.1019869E+00
          2   -1    0    0  501    0  0.00000000000E+00  0.00000000000E+00  0.33181315617E+03  0.33181315618E+03  0.25500000000E-02 0. -1.
         -2   -1    0    0    0  501 -0.00000000000E+00 -0.00000000000E+00 -0.18168622066E+04  0.18168622066E+04  0.25500000000E-02 0.  1.
    8880022    1    1    2    0    0  0.32841258996E+03  0.31081636008E+03 -0.15898530477E+04  0.16599656639E+04  0.15294330000E+03 0.  0.
    8880022    1    1    2    0    0 -0.32841258996E+03 -0.31081636008E+03  0.10480399728E+03  0.48870969890E+03  0.15294330000E+03 0.  0.
<mgrwt>
<rscale>  0 0.47733981E+03</rscale>
<asrwt>0</asrwt>
<pdfrwt beam="1">  1        2 0.51048179E-01 0.47733981E+03</pdfrwt>
<pdfrwt beam="2">  1       -2 0.27951726E+00 0.47733981E+03</pdfrwt>
<totfact> 0.45003935E+00</totfact>
</mgrwt>
</event>
<event>
 4    1  0.4880711E-008  0.2812825E+03  0.7818608E-02  0.1094991E+00
         -2   -1    0    0    0  501 -0.00000000000E+00  0.00000000000E+00  0.47353675677E+02  0.47353675746E+02  0.25500000000E-02 0.  1.
          2   -1    0    0  501    0  0.00000000000E+00 -0.00000000000E+00 -0.20836118290E+04  0.20836118290E+04  0.25500000000E-02 0. -1.
    8880022    1    1    2    0    0  0.38568491127E+02  0.23289625968E+03 -0.14923703325E+04  0.15186471146E+04  0.15294330000E+03 0.  0.
    8880022    1    1    2    0    0 -0.38568491127E+02 -0.23289625968E+03 -0.54388782081E+03  0.61231839015E+03  0.15294330000E+03 0.  0.
<mgrwt>
<rscale>  0 0.28128251E+03</rscale>
<asrwt>0</asrwt>
<pdfrwt beam="1">  1        2 0.32055559E+00 0.28128251E+03</pdfrwt>
<pdfrwt beam="2">  1       -2 0.72851825E-02 0.28128251E+03</pdfrwt>
<totfact> 0.73427515E+02</totfact>
</mgrwt>
</event>
<event>
 4    1  0.4880711E-008  0.4612630E+03  0.7818608E-02  0.1024416E+00
         -2   -1    0    0    0  501 -0.00000000000E+00  0.00000000000E+00  0.13877630723E+03  0.13877630725E+03  0.25500000000E-02 0.  1.
          2   -1    0    0  501    0  0.00000000000E+00 -0.00000000000E+00 -0.28396290687E+04  0.28396290687E+04  0.25500000000E-02 0. -1.
    8880022    1    1    2    0    0 -0.43492476632E+03  0.14572725504E+02 -0.23605530109E+04  0.24051973073E+04  0.15294330000E+03 0.  0.
    8880022    1    1    2    0    0  0.43492476632E+03 -0.14572725504E+02 -0.34029975049E+03  0.57320806858E+03  0.15294330000E+03 0.  0.
<mgrwt>
<rscale>  0 0.46126302E+03</rscale>
<asrwt>0</asrwt>
<pdfrwt beam="1">  1        2 0.43686597E+00 0.46126302E+03</pdfrwt>
<pdfrwt beam="2">  1       -2 0.21350203E-01 0.46126302E+03</pdfrwt>
<totfact> 0.46100810E+01</totfact>
</mgrwt>
</event>
<event>
 4    1  0.4880711E-008  0.6052898E+03  0.7818608E-02  0.9894492E-01
         -2   -1    0    0    0  501 -0.00000000000E+00  0.00000000000E+00  0.38639563950E+03  0.38639563951E+03  0.25500000000E-02 0.  1.
          2   -1    0    0  501    0  0.00000000000E+00 -0.00000000000E+00 -0.19387261016E+04  0.19387261016E+04  0.25500000000E-02 0. -1.
    8880022    1    1    2    0    0 -0.80886759878E+02 -0.58003567256E+03  0.54819548102E+02  0.60776713077E+03  0.15294330000E+03 0.  0.
    8880022    1    1    2    0    0  0.80886759878E+02  0.58003567256E+03 -0.16071500102E+04  0.17173546103E+04  0.15294330000E+03 0.  0.
<mgrwt>
<rscale>  0 0.60528977E+03</rscale>
<asrwt>0</asrwt>
<pdfrwt beam="1">  1        2 0.29826555E+00 0.60528977E+03</pdfrwt>
<pdfrwt beam="2">  1       -2 0.59445484E-01 0.60528977E+03</pdfrwt>
<totfact> 0.20151907E+01</totfact>
</mgrwt>
</event>
<event>
 4    1  0.4880711E-008  0.4633777E+03  0.7818608E-02  0.1023806E+00
         -2   -1    0    0    0  501 -0.00000000000E+00  0.00000000000E+00  0.42321758160E+03  0.42321758161E+03  0.25500000000E-02 0.  1.
          2   -1    0    0  501    0  0.00000000000E+00 -0.00000000000E+00 -0.21408529148E+04  0.21408529148E+04  0.25500000000E-02 0. -1.
    8880022    1    1    2    0    0 -0.24209264377E+03  0.36430536827E+03  0.26104992419E+03  0.53185145055E+03  0.15294330000E+03 0.  0.
    8880022    1    1    2    0    0  0.24209264377E+03 -0.36430536827E+03 -0.19786852574E+04  0.20322190458E+04  0.15294330000E+03 0. -1.
<mgrwt>
<rscale>  0 0.46337771E+03</rscale>
<asrwt>0</asrwt>
<pdfrwt beam="1">  1        2 0.32936198E+00 0.46337771E+03</pdfrwt>
<pdfrwt beam="2">  1       -2 0.65110398E-01 0.46337771E+03</pdfrwt>
<totfact> 0.13308949E+01</totfact>
</mgrwt>
</event>
<event>
 4    1  0.4880711E-008  0.8921022E+03  0.7818608E-02  0.9435508E-01
         -2   -1    0    0    0  501 -0.00000000000E+00  0.00000000000E+00  0.39182958303E+03  0.39182958304E+03  0.25500000000E-02 0.  1.
          2   -1    0    0  501    0  0.00000000000E+00 -0.00000000000E+00 -0.34321373734E+04  0.34321373734E+04  0.25500000000E-02 0. -1.
    8880022    1    1    2    0    0 -0.67077097882E+02  0.87633056970E+03 -0.27417459317E+04  0.28832303085E+04  0.15294330000E+03 0.  0.
    8880022    1    1    2    0    0  0.67077097882E+02 -0.87633056970E+03 -0.29856185868E+03  0.94073664801E+03  0.15294330000E+03 0.  0.
<mgrwt>
<rscale>  0 0.89210216E+03</rscale>
<asrwt>0</asrwt>
<pdfrwt beam="1">  1        2 0.52802111E+00 0.89210216E+03</pdfrwt>
<pdfrwt beam="2">  1       -2 0.60281477E-01 0.89210216E+03</pdfrwt>
<totfact> 0.24488862E+00</totfact>
</mgrwt>
</event>
<event>
 4    1  0.4880711E-008  0.6793785E+03  0.7818608E-02  0.9753162E-01
          2   -1    0    0  501    0  0.00000000000E+00  0.00000000000E+00  0.28975857994E+04  0.28975857994E+04  0.25500000000E-02 0. -1.
         -2   -1    0    0    0  501 -0.00000000000E+00 -0.00000000000E+00 -0.29051029953E+03  0.29051029954E+03  0.25500000000E-02 0.  1.
    8880022    1    1    2    0    0  0.52932389837E+03 -0.39746653584E+03  0.23221105675E+03  0.71796731429E+03  0.15294330000E+03 0.  0.
    8880022    1    1    2    0    0 -0.52932389837E+03  0.39746653584E+03  0.23748644431E+04  0.24701287846E+04  0.15294330000E+03 0.  0.
<mgrwt>
<rscale>  0 0.67937846E+03</rscale>
<asrwt>0</asrwt>
<pdfrwt beam="1">  1        2 0.44578244E+00 0.67937846E+03</pdfrwt>
<pdfrwt beam="2">  1       -2 0.44693892E-01 0.67937846E+03</pdfrwt>
<totfact> 0.10280037E+01</totfact>
</mgrwt>
</event>
<event>
 4    1  0.4880711E-008  0.4656139E+03  0.7818608E-02  0.1023165E+00
         -2   -1    0    0    0  501 -0.00000000000E+00  0.00000000000E+00  0.61556907409E+03  0.61556907410E+03  0.25500000000E-02 0.  1.
          2   -1    0    0  501    0  0.00000000000E+00 -0.00000000000E+00 -0.45900592168E+03  0.45900592169E+03  0.25500000000E-02 0. -1.
    8880022    1    1    2    0    0 -0.14026017016E+02 -0.43955425819E+03  0.33747185273E+03  0.57505093639E+03  0.15294330000E+03 0.  0.
    8880022    1    1    2    0    0  0.14026017016E+02  0.43955425819E+03 -0.18090870032E+03  0.49952405939E+03  0.15294330000E+03 0.  0.
<mgrwt>
<rscale>  0 0.46561393E+03</rscale>
<asrwt>0</asrwt>
<pdfrwt beam="1">  1        2 0.70616296E-01 0.46561393E+03</pdfrwt>
<pdfrwt beam="2">  1       -2 0.94702934E-01 0.46561393E+03</pdfrwt>
<totfact> 0.65925150E+01</totfact>
</mgrwt>
</event>
<event>
 4    1  0.4880711E-008  0.2623482E+03  0.7818608E-02  0.1105741E+00
         -2   -1    0    0    0  501 -0.00000000000E+00  0.00000000000E+00  0.88346702781E+02  0.88346702818E+02  0.25500000000E-02 0.  1.
          2   -1    0    0  501    0  0.00000000000E+00 -0.00000000000E+00 -0.10771764267E+04  0.10771764267E+04  0.25500000000E-02 0. -1.
    8880022    1    1    2    0    0 -0.14899696790E+03 -0.15242979254E+03 -0.18783264745E+03  0.32265724005E+03  0.15294330000E+03 0.  0.
    8880022    1    1    2    0    0  0.14899696790E+03  0.15242979254E+03 -0.80099707649E+03  0.84286588949E+03  0.15294330000E+03 0. -1.
<mgrwt>
<rscale>  0 0.26234822E+03</rscale>
<asrwt>0</asrwt>
<pdfrwt beam="1">  1        2 0.16571944E+00 0.26234822E+03</pdfrwt>
<pdfrwt beam="2">  1       -2 0.13591801E-01 0.26234822E+03</pdfrwt>
<totfact> 0.95248362E+02</totfact>
</mgrwt>
</event>
<event>
 4    1  0.4880711E-008  0.1186539E+04  0.7818608E-02  0.9124721E-01
         -2   -1    0    0    0  501 -0.00000000000E+00  0.00000000000E+00  0.97165506318E+03  0.97165506318E+03  0.25500000000E-02 0.  1.
          2   -1    0    0  501    0  0.00000000000E+00 -0.00000000000E+00 -0.25744982956E+04  0.25744982956E+04  0.25500000000E-02 0. -1.
    8880022    1    1    2    0    0  0.11524355945E+04  0.23743649835E+03 -0.19737899704E+04  0.23029811963E+04  0.15294330000E+03 0.  0.
    8880022    1    1    2    0    0 -0.11524355945E+04 -0.23743649835E+03  0.37094673796E+03  0.12431721625E+04  0.15294330000E+03 0.  0.
<mgrwt>
<rscale>  0 0.11865393E+04</rscale>
<asrwt>0</asrwt>
<pdfrwt beam="1">  1        2 0.39607666E+00 0.11865393E+04</pdfrwt>
<pdfrwt beam="2">  1       -2 0.14948540E+00 0.11865393E+04</pdfrwt>
<totfact> 0.93378828E-01</totfact>
</mgrwt>
</event>
<event>
 4    1  0.4880711E-008  0.4347728E+03  0.7818608E-02  0.1032363E+00
         -2   -1    0    0    0  501 -0.00000000000E+00  0.00000000000E+00  0.52351269526E+03  0.52351269527E+03  0.25500000000E-02 0.  1.
          2   -1    0    0  501    0  0.00000000000E+00 -0.00000000000E+00 -0.29726324412E+04  0.29726324412E+04  0.25500000000E-02 0. -1.
    8880022    1    1    2    0    0 -0.30823605130E+03 -0.26575607999E+03 -0.28630303948E+04  0.28958540108E+04  0.15294330000E+03 0.  0.
    8880022    1    1    2    0    0  0.30823605130E+03  0.26575607999E+03  0.41391064882E+03  0.60029112570E+03  0.15294330000E+03 0.  1.
<mgrwt>
<rscale>  0 0.43477283E+03</rscale>
<asrwt>0</asrwt>
<pdfrwt beam="1">  1        2 0.45732806E+00 0.43477283E+03</pdfrwt>
<pdfrwt beam="2">  1       -2 0.80540417E-01 0.43477283E+03</pdfrwt>
<totfact> 0.28636794E+00</totfact>
</mgrwt>
</event>
<event>
 4    1  0.4880711E-008  0.7304577E+03  0.7818608E-02  0.9666518E-01
          2   -1    0    0  501    0  0.00000000000E+00  0.00000000000E+00  0.24901503577E+04  0.24901503577E+04  0.25500000000E-02 0. -1.
         -2   -1    0    0    0  501 -0.00000000000E+00 -0.00000000000E+00 -0.35502079280E+03  0.35502079281E+03  0.25500000000E-02 0.  1.
    8880022    1    1    2    0    0 -0.51802611618E+03 -0.49175783122E+03  0.19632893355E+04  0.20947728969E+04  0.15294330000E+03 0.  0.
    8880022    1    1    2    0    0  0.51802611618E+03  0.49175783122E+03  0.17184022942E+03  0.75039825364E+03  0.15294330000E+03 0.  0.
<mgrwt>
<rscale>  0 0.73045772E+03</rscale>
<asrwt>0</asrwt>
<pdfrwt beam="1">  1        2 0.38310006E+00 0.73045772E+03</pdfrwt>
<pdfrwt beam="2">  1       -2 0.54618583E-01 0.73045772E+03</pdfrwt>
<totfact> 0.11695053E+01</totfact>
</mgrwt>
</event>
<event>
 4    1  0.4880711E-008  0.5582960E+03  0.7818608E-02  0.9995918E-01
         -2   -1    0    0    0  501 -0.00000000000E+00  0.00000000000E+00  0.51495716697E+03  0.51495716698E+03  0.25500000000E-02 0.  1.
          2   -1    0    0  501    0  0.00000000000E+00 -0.00000000000E+00 -0.16615675566E+04  0.16615675566E+04  0.25500000000E-02 0. -1.
    8880022    1    1    2    0    0 -0.34676654841E+01 -0.53692717339E+03 -0.14409964344E+04  0.15453689499E+04  0.15294330000E+03 0.  0.
    8880022    1    1    2    0    0  0.34676654841E+01  0.53692717339E+03  0.29438604483E+03  0.63115577367E+03  0.15294330000E+03 0.  0.
<mgrwt>
<rscale>  0 0.55829604E+03</rscale>
<asrwt>0</asrwt>
<pdfrwt beam="1">  1        2 0.25562578E+00 0.55829604E+03</pdfrwt>
<pdfrwt beam="2">  1       -2 0.79224180E-01 0.55829604E+03</pdfrwt>
<totfact> 0.15406132E+01</totfact>
</mgrwt>
</event>
<event>
 4    1  0.4880711E-008  0.6498992E+03  0.7818608E-02  0.9806968E-01
          2   -1    0    0  501    0  0.00000000000E+00  0.00000000000E+00  0.17860904156E+04  0.17860904156E+04  0.25500000000E-02 0. -1.
         -2   -1    0    0    0  501 -0.00000000000E+00 -0.00000000000E+00 -0.27149001091E+03  0.27149001093E+03  0.25500000000E-02 0.  1.
    8880022    1    1    2    0    0  0.43658080897E+03  0.45648053027E+03  0.11267589224E+04  0.13007515518E+04  0.15294330000E+03 0.  0.
    8880022    1    1    2    0    0 -0.43658080897E+03 -0.45648053027E+03  0.38784148236E+03  0.75682887480E+03  0.15294330000E+03 0.  0.
<mgrwt>
<rscale>  0 0.64989917E+03</rscale>
<asrwt>0</asrwt>
<pdfrwt beam="1">  1        2 0.27478314E+00 0.64989917E+03</pdfrwt>
<pdfrwt beam="2">  1       -2 0.41767695E-01 0.64989917E+03</pdfrwt>
<totfact> 0.49568619E+01</totfact>
</mgrwt>
</event>
<event>
 4    1  0.4880711E-008  0.3564349E+03  0.7818608E-02  0.1060004E+00
          2   -1    0    0  501    0  0.00000000000E+00  0.00000000000E+00  0.69293083794E+03  0.69293083795E+03  0.25500000000E-02 0. -1.
         -2   -1    0    0    0  501 -0.00000000000E+00 -0.00000000000E+00 -0.87606512707E+03  0.87606512707E+03  0.25500000000E-02 0.  1.
    8880022    1    1    2    0    0  0.10747963118E+03 -0.30348362953E+03 -0.78916051043E+03  0.86592156039E+03  0.15294330000E+03 0.  0.
    8880022    1    1    2    0    0 -0.10747963118E+03  0.30348362953E+03  0.60602622131E+03  0.70307440463E+03  0.15294330000E+03 0.  0.
<mgrwt>
<rscale>  0 0.35643490E+03</rscale>
<asrwt>0</asrwt>
<pdfrwt beam="1">  1        2 0.10660474E+00 0.35643490E+03</pdfrwt>
<pdfrwt beam="2">  1       -2 0.13477925E+00 0.35643490E+03</pdfrwt>
<totfact> 0.17610243E+01</totfact>
</mgrwt>
</event>
<event>
 4    1  0.4880711E-008  0.4041090E+03  0.7818608E-02  0.1042366E+00
         -2   -1    0    0    0  501 -0.00000000000E+00  0.00000000000E+00  0.30584261805E+03  0.30584261806E+03  0.25500000000E-02 0.  1.
          2   -1    0    0  501    0  0.00000000000E+00 -0.00000000000E+00 -0.95350063798E+03  0.95350063798E+03  0.25500000000E-02 0. -1.
    8880022    1    1    2    0    0 -0.86472717267E+02  0.36391606882E+03  0.93853990849E+02  0.41486462924E+03  0.15294330000E+03 0.  1.
    8880022    1    1    2    0    0  0.86472717267E+02 -0.36391606882E+03 -0.74151201078E+03  0.84447862680E+03  0.15294330000E+03 0.  0.
<mgrwt>
<rscale>  0 0.40410901E+03</rscale>
<asrwt>0</asrwt>
<pdfrwt beam="1">  1        2 0.14669240E+00 0.40410901E+03</pdfrwt>
<pdfrwt beam="2">  1       -2 0.47052711E-01 0.40410901E+03</pdfrwt>
<totfact> 0.12081203E+02</totfact>
</mgrwt>
</event>
<event>
 4    1  0.4880711E-008  0.8976161E+03  0.7818608E-02  0.9428566E-01
         -2   -1    0    0    0  501 -0.00000000000E+00  0.00000000000E+00  0.68607890192E+03  0.68607890192E+03  0.25500000000E-02 0.  1.
          2   -1    0    0  501    0  0.00000000000E+00 -0.00000000000E+00 -0.18751688126E+04  0.18751688126E+04  0.25500000000E-02 0. -1.
    8880022    1    1    2    0    0 -0.76223807037E+03  0.44868272131E+03  0.18833679482E+03  0.91716163332E+03  0.15294330000E+03 0.  0.
    8880022    1    1    2    0    0  0.76223807037E+03 -0.44868272131E+03 -0.13774267055E+04  0.16440860812E+04  0.15294330000E+03 0.  0.
<mgrwt>
<rscale>  0 0.89761613E+03</rscale>
<asrwt>0</asrwt>
<pdfrwt beam="1">  1        2 0.28848751E+00 0.89761613E+03</pdfrwt>
<pdfrwt beam="2">  1       -2 0.10555060E+00 0.89761613E+03</pdfrwt>
<totfact> 0.57539233E+00</totfact>
</mgrwt>
</event>
<event>
 4    1  0.4880711E-008  0.5896098E+03  0.7818608E-02  0.9927200E-01
          2   -1    0    0  501    0  0.00000000000E+00  0.00000000000E+00  0.27472769984E+04  0.27472769984E+04  0.25500000000E-02 0. -1.
         -2   -1    0    0    0  501 -0.00000000000E+00 -0.00000000000E+00 -0.13146075063E+03  0.13146075065E+03  0.25500000000E-02 0.  1.
    8880022    1    1    2    0    0  0.99359369935E+02  0.56069221911E+03  0.15863928931E+04  0.16924190123E+04  0.15294330000E+03 0.  0.
    8880022    1    1    2    0    0 -0.99359369935E+02 -0.56069221911E+03  0.10294233547E+04  0.11863187367E+04  0.15294330000E+03 0.  0.
<mgrwt>
<rscale>  0 0.58960979E+03</rscale>
<asrwt>0</asrwt>
<pdfrwt beam="1">  1        2 0.42265801E+00 0.58960979E+03</pdfrwt>
<pdfrwt beam="2">  1       -2 0.20224730E-01 0.58960979E+03</pdfrwt>
<totfact> 0.55889957E+01</totfact>
</mgrwt>
</event>
<event>
 4    1  0.4880711E-008  0.1813571E+03  0.7818608E-02  0.1166496E+00
         -2   -1    0    0    0  501 -0.00000000000E+00  0.00000000000E+00  0.38767925530E+02  0.38767925614E+02  0.25500000000E-02 0.  1.
          2   -1    0    0  501    0  0.00000000000E+00 -0.00000000000E+00 -0.24108981728E+04  0.24108981728E+04  0.25500000000E-02 0. -1.
    8880022    1    1    2    0    0  0.54380450093E+02  0.80879594256E+02 -0.20001647287E+03  0.26999441578E+03  0.15294330000E+03 0.  1.
    8880022    1    1    2    0    0 -0.54380450093E+02 -0.80879594256E+02 -0.21721137744E+04  0.21796716826E+04  0.15294330000E+03 0.  0.
<mgrwt>
<rscale>  0 0.18135709E+03</rscale>
<asrwt>0</asrwt>
<pdfrwt beam="1">  1        2 0.37090729E+00 0.18135709E+03</pdfrwt>
<pdfrwt beam="2">  1       -2 0.59642981E-02 0.18135709E+03</pdfrwt>
<totfact> 0.68327510E+02</totfact>
</mgrwt>
</event>
<event>
 4    1  0.4880711E-008  0.8560132E+03  0.7818608E-02  0.9482302E-01
         -2   -1    0    0    0  501 -0.00000000000E+00  0.00000000000E+00  0.41971467383E+03  0.41971467384E+03  0.25500000000E-02 0.  1.
          2   -1    0    0  501    0  0.00000000000E+00 -0.00000000000E+00 -0.19924795957E+04  0.19924795957E+04  0.25500000000E-02 0. -1.
    8880022    1    1    2    0    0 -0.83619618443E+03 -0.10071158574E+03 -0.12107172393E+04  0.14827659184E+04  0.15294330000E+03 0.  0.
    8880022    1    1    2    0    0  0.83619618443E+03  0.10071158574E+03 -0.36204768257E+03  0.92942835110E+03  0.15294330000E+03 0.  0.
<mgrwt>
<rscale>  0 0.85601316E+03</rscale>
<asrwt>0</asrwt>
<pdfrwt beam="1">  1        2 0.30653532E+00 0.85601316E+03</pdfrwt>
<pdfrwt beam="2">  1       -2 0.64571489E-01 0.85601316E+03</pdfrwt>
<totfact> 0.15236407E+01</totfact>
</mgrwt>
</event>
<event>
 4    1  0.4880711E-008  0.8634204E+03  0.7818608E-02  0.9472500E-01
         -2   -1    0    0    0  501 -0.00000000000E+00  0.00000000000E+00  0.20286342903E+04  0.20286342903E+04  0.25500000000E-02 0.  1.
          2   -1    0    0  501    0  0.00000000000E+00 -0.00000000000E+00 -0.88333239480E+03  0.88333239480E+03  0.25500000000E-02 0. -1.
    8880022    1    1    2    0    0 -0.72316088394E+03  0.44625266342E+03  0.16852905550E+04  0.18935942045E+04  0.15294330000E+03 0.  0.
    8880022    1    1    2    0    0  0.72316088394E+03 -0.44625266342E+03 -0.53998865953E+03  0.10183724805E+04  0.15294330000E+03 0.  0.
<mgrwt>
<rscale>  0 0.86342038E+03</rscale>
<asrwt>0</asrwt>
<pdfrwt beam="1">  1        2 0.13589729E+00 0.86342038E+03</pdfrwt>
<pdfrwt beam="2">  1       -2 0.31209758E+00 0.86342038E+03</pdfrwt>
<totfact> 0.82813334E-01</totfact>
</mgrwt>
</event>
<event>
 4    1  0.4880711E-008  0.2878047E+03  0.7818608E-02  0.1091501E+00
         -2   -1    0    0    0  501 -0.00000000000E+00  0.00000000000E+00  0.40303827183E+03  0.40303827184E+03  0.25500000000E-02 0.  1.
          2   -1    0    0  501    0  0.00000000000E+00 -0.00000000000E+00 -0.41851491506E+03  0.41851491507E+03  0.25500000000E-02 0. -1.
    8880022    1    1    2    0    0 -0.24352358040E+03 -0.11669694707E+02  0.28530849202E+03  0.40525609757E+03  0.15294330000E+03 0.  0.
    8880022    1    1    2    0    0  0.24352358040E+03  0.11669694707E+02 -0.30078513525E+03  0.41629708933E+03  0.15294330000E+03 0.  0.
<mgrwt>
<rscale>  0 0.28780474E+03</rscale>
<asrwt>0</asrwt>
<pdfrwt beam="1">  1        2 0.64386910E-01 0.28780474E+03</pdfrwt>
<pdfrwt beam="2">  1       -2 0.62005888E-01 0.28780474E+03</pdfrwt>
<totfact> 0.18886686E+02</totfact>
</mgrwt>
</event>
<event>
 4    1  0.4880711E-008  0.6837061E+03  0.7818608E-02  0.9745510E-01
         -2   -1    0    0    0  501 -0.00000000000E+00  0.00000000000E+00  0.56332679699E+03  0.56332679700E+03  0.25500000000E-02 0.  1.
          2   -1    0    0  501    0  0.00000000000E+00 -0.00000000000E+00 -0.99452403382E+03  0.99452403382E+03  0.25500000000E-02 0. -1.
    8880022    1    1    2    0    0 -0.11405169144E+03  0.65654752570E+03  0.10139739673E+03  0.69118414833E+03  0.15294330000E+03 0.  0.
    8880022    1    1    2    0    0  0.11405169144E+03 -0.65654752570E+03 -0.53259463356E+03  0.86666668249E+03  0.15294330000E+03 0.  0.
<mgrwt>
<rscale>  0 0.68370615E+03</rscale>
<asrwt>0</asrwt>
<pdfrwt beam="1">  1        2 0.15300370E+00 0.68370615E+03</pdfrwt>
<pdfrwt beam="2">  1       -2 0.86665661E-01 0.68370615E+03</pdfrwt>
<totfact> 0.29941641E+01</totfact>
</mgrwt>
</event>
<event>
 4    1  0.4880711E-008  0.4309874E+03  0.7818608E-02  0.1033548E+00
          2   -1    0    0  501    0  0.00000000000E+00  0.00000000000E+00  0.31968683332E+04  0.31968683332E+04  0.25500000000E-02 0. -1.
         -2   -1    0    0    0  501 -0.00000000000E+00 -0.00000000000E+00 -0.15715192877E+03  0.15715192879E+03  0.25500000000E-02 0.  1.
    8880022    1    1    2    0    0 -0.24287086090E+03 -0.32151557762E+03  0.18848754164E+03  0.47040166676E+03  0.15294330000E+03 0.  0.
    8880022    1    1    2    0    0  0.24287086090E+03  0.32151557762E+03  0.28512288628E+04  0.28836185953E+04  0.15294330000E+03 0.  0.
<mgrwt>
<rscale>  0 0.43098744E+03</rscale>
<asrwt>0</asrwt>
<pdfrwt beam="1">  1        2 0.49182588E+00 0.43098744E+03</pdfrwt>
<pdfrwt beam="2">  1       -2 0.24177221E-01 0.43098744E+03</pdfrwt>
<totfact> 0.22690845E+01</totfact>
</mgrwt>
</event>
<event>
 4    1  0.4880711E-008  0.2502235E+03  0.7818608E-02  0.1113164E+00
          2   -1    0    0  501    0  0.00000000000E+00  0.00000000000E+00  0.73609799669E+03  0.73609799669E+03  0.25500000000E-02 0. -1.
         -2   -1    0    0    0  501 -0.00000000000E+00 -0.00000000000E+00 -0.91739190878E+02  0.91739190913E+02  0.25500000000E-02 0.  1.
    8880022    1    1    2    0    0  0.19911141977E+02  0.19703725221E+03  0.21048516261E+03  0.32697979911E+03  0.15294330000E+03 0. -1.
    8880022    1    1    2    0    0 -0.19911141977E+02 -0.19703725221E+03  0.43387364320E+03  0.50085738850E+03  0.15294330000E+03 0.  0.
<mgrwt>
<rscale>  0 0.25022347E+03</rscale>
<asrwt>0</asrwt>
<pdfrwt beam="1">  1        2 0.11324584E+00 0.25022347E+03</pdfrwt>
<pdfrwt beam="2">  1       -2 0.14113722E-01 0.25022347E+03</pdfrwt>
<totfact> 0.14922394E+03</totfact>
</mgrwt>
</event>
<event>
 4    1  0.4880711E-008  0.5035391E+03  0.7818608E-02  0.1012859E+00
         -2   -1    0    0    0  501 -0.00000000000E+00  0.00000000000E+00  0.13546029652E+03  0.13546029654E+03  0.25500000000E-02 0.  1.
          2   -1    0    0  501    0  0.00000000000E+00 -0.00000000000E+00 -0.23136849606E+04  0.23136849606E+04  0.25500000000E-02 0. -1.
    8880022    1    1    2    0    0 -0.36533436603E+03  0.31095145151E+03 -0.55393506139E+03  0.74859582516E+03  0.15294330000E+03 0.  0.
    8880022    1    1    2    0    0  0.36533436603E+03 -0.31095145151E+03 -0.16242896027E+04  0.17005494320E+04  0.15294330000E+03 0.  0.
<mgrwt>
<rscale>  0 0.50353913E+03</rscale>
<asrwt>0</asrwt>
<pdfrwt beam="1">  1        2 0.35595150E+00 0.50353913E+03</pdfrwt>
<pdfrwt beam="2">  1       -2 0.20840047E-01 0.50353913E+03</pdfrwt>
<totfact> 0.94565127E+01</totfact>
</mgrwt>
</event>
<event>
 4    1  0.4880711E-008  0.9237762E+03  0.7818608E-02  0.9396339E-01
         -2   -1    0    0    0  501 -0.00000000000E+00  0.00000000000E+00  0.49644852904E+03  0.49644852905E+03  0.25500000000E-02 0.  1.
          2   -1    0    0  501    0  0.00000000000E+00 -0.00000000000E+00 -0.34193050399E+04  0.34193050399E+04  0.25500000000E-02 0. -1.
    8880022    1    1    2    0    0 -0.21040423507E+03  0.88639764914E+03 -0.28420930453E+04  0.29884536580E+04  0.15294330000E+03 0.  0.
    8880022    1    1    2    0    0  0.21040423507E+03 -0.88639764914E+03 -0.80763465534E+02  0.92729991098E+03  0.15294330000E+03 0.  0.
<mgrwt>
<rscale>  0 0.92377616E+03</rscale>
<asrwt>0</asrwt>
<pdfrwt beam="1">  1        2 0.52604691E+00 0.92377616E+03</pdfrwt>
<pdfrwt beam="2">  1       -2 0.76376699E-01 0.92377616E+03</pdfrwt>
<totfact> 0.14846826E+00</totfact>
</mgrwt>
</event>
<event>
 4    1  0.4880711E-008  0.4216945E+03  0.7818608E-02  0.1036516E+00
         -2   -1    0    0    0  501 -0.00000000000E+00  0.00000000000E+00  0.13574944240E+04  0.13574944240E+04  0.25500000000E-02 0.  1.
          2   -1    0    0  501    0  0.00000000000E+00 -0.00000000000E+00 -0.23423104928E+03  0.23423104929E+03  0.25500000000E-02 0. -1.
    8880022    1    1    2    0    0 -0.35791423201E+03 -0.16227135181E+03  0.10899913750E+04  0.11687204283E+04  0.15294330000E+03 0.  0.
    8880022    1    1    2    0    0  0.35791423201E+03  0.16227135181E+03  0.33271999789E+02  0.42300504498E+03  0.15294330000E+03 0.  0.
<mgrwt>
<rscale>  0 0.42169449E+03</rscale>
<asrwt>0</asrwt>
<pdfrwt beam="1">  1        2 0.36035545E-01 0.42169449E+03</pdfrwt>
<pdfrwt beam="2">  1       -2 0.20884530E+00 0.42169449E+03</pdfrwt>
<totfact> 0.17811537E+01</totfact>
</mgrwt>
</event>
<event>
 4    1  0.4880711E-008  0.2490191E+03  0.7818608E-02  0.1113926E+00
         -2   -1    0    0    0  501 -0.00000000000E+00  0.00000000000E+00  0.49568617375E+02  0.49568617441E+02  0.25500000000E-02 0.  1.
          2   -1    0    0  501    0  0.00000000000E+00 -0.00000000000E+00 -0.13968780961E+04  0.13968780961E+04  0.25500000000E-02 0. -1.
    8880022    1    1    2    0    0  0.69887328520E+02  0.18366981933E+03 -0.90736813888E+03  0.94091839906E+03  0.15294330000E+03 0.  0.
    8880022    1    1    2    0    0 -0.69887328520E+02 -0.18366981933E+03 -0.43994133983E+03  0.50552831446E+03  0.15294330000E+03 0.  0.
<mgrwt>
<rscale>  0 0.24901906E+03</rscale>
<asrwt>0</asrwt>
<pdfrwt beam="1">  1        2 0.21490429E+00 0.24901906E+03</pdfrwt>
<pdfrwt beam="2">  1       -2 0.76259422E-02 0.24901906E+03</pdfrwt>
<totfact> 0.15837511E+03</totfact>
</mgrwt>
</event>
<event>
 4    1  0.4880711E-008  0.3806575E+03  0.7818608E-02  0.1050691E+00
         -2   -1    0    0    0  501 -0.00000000000E+00  0.00000000000E+00  0.68725963862E+03  0.68725963862E+03  0.25500000000E-02 0.  1.
          2   -1    0    0  501    0  0.00000000000E+00 -0.00000000000E+00 -0.47813509860E+03  0.47813509861E+03  0.25500000000E-02 0. -1.
    8880022    1    1    2    0    0  0.30640752259E+03  0.16620135277E+03 -0.33111536119E+03  0.50451709088E+03  0.15294330000E+03 0.  0.
    8880022    1    1    2    0    0 -0.30640752259E+03 -0.16620135277E+03  0.54023990121E+03  0.66087764634E+03  0.15294330000E+03 0.  0.
<mgrwt>
<rscale>  0 0.38065747E+03</rscale>
<asrwt>0</asrwt>
<pdfrwt beam="1">  1        2 0.73559246E-01 0.38065747E+03</pdfrwt>
<pdfrwt beam="2">  1       -2 0.10573225E+00 0.38065747E+03</pdfrwt>
<totfact> 0.49050612E+01</totfact>
</mgrwt>
</event>
<event>
 4    1  0.4880711E-008  0.1848582E+03  0.7818608E-02  0.1163182E+00
         -2   -1    0    0    0  501 -0.00000000000E+00  0.00000000000E+00  0.16132096978E+04  0.16132096978E+04  0.25500000000E-02 0.  1.
          2   -1    0    0  501    0  0.00000000000E+00 -0.00000000000E+00 -0.50662731560E+02  0.50662731624E+02  0.25500000000E-02 0. -1.
    8880022    1    1    2    0    0 -0.10379377457E+03 -0.27860855296E+01  0.14158847184E+04  0.14279012917E+04  0.15294330000E+03 0.  0.
    8880022    1    1    2    0    0  0.10379377457E+03  0.27860855296E+01  0.14666224790E+03  0.23597113782E+03  0.15294330000E+03 0. -1.
<mgrwt>
<rscale>  0 0.18485822E+03</rscale>
<asrwt>0</asrwt>
<pdfrwt beam="1">  1        2 0.77942665E-02 0.18485822E+03</pdfrwt>
<pdfrwt beam="2">  1       -2 0.24818610E+00 0.18485822E+03</pdfrwt>
<totfact> 0.65268132E+01</totfact>
</mgrwt>
</event>
<event>
 4    1  0.4880711E-008  0.8826984E+03  0.7818608E-02  0.9447472E-01
         -2   -1    0    0    0  501 -0.00000000000E+00  0.00000000000E+00  0.42443438104E+03  0.42443438105E+03  0.25500000000E-02 0.  1.
          2   -1    0    0  501    0  0.00000000000E+00 -0.00000000000E+00 -0.31514916713E+04  0.31514916713E+04  0.25500000000E-02 0. -1.
    8880022    1    1    2    0    0 -0.39779514191E+03 -0.77299661785E+03 -0.20825362241E+03  0.90693217519E+03  0.15294330000E+03 0.  0.
    8880022    1    1    2    0    0  0.39779514191E+03  0.77299661785E+03 -0.25188036678E+04  0.26689938771E+04  0.15294330000E+03 0.  0.
<mgrwt>
<rscale>  0 0.88269836E+03</rscale>
<asrwt>0</asrwt>
<pdfrwt beam="1">  1        2 0.48484486E+00 0.88269836E+03</pdfrwt>
<pdfrwt beam="2">  1       -2 0.65297599E-01 0.88269836E+03</pdfrwt>
<totfact> 0.31527829E+00</totfact>
</mgrwt>
</event>
<event>
 4    1  0.4880711E-008  0.4386338E+03  0.7818608E-02  0.1031167E+00
          2   -1    0    0  501    0  0.00000000000E+00  0.00000000000E+00  0.85641349096E+03  0.85641349097E+03  0.25500000000E-02 0. -1.
         -2   -1    0    0    0  501 -0.00000000000E+00 -0.00000000000E+00 -0.56704308758E+03  0.56704308759E+03  0.25500000000E-02 0.  1.
    8880022    1    1    2    0    0  0.34809033562E+03 -0.21872608798E+03  0.69773468748E+03  0.82415613232E+03  0.15294330000E+03 0.  0.
    8880022    1    1    2    0    0 -0.34809033562E+03  0.21872608798E+03 -0.40836428410E+03  0.59930044624E+03  0.15294330000E+03 0.  0.
<mgrwt>
<rscale>  0 0.43863383E+03</rscale>
<asrwt>0</asrwt>
<pdfrwt beam="1">  1        2 0.13175592E+00 0.43863383E+03</pdfrwt>
<pdfrwt beam="2">  1       -2 0.87237399E-01 0.43863383E+03</pdfrwt>
<totfact> 0.37480008E+01</totfact>
</mgrwt>
</event>
<event>
 4    1  0.4880711E-008  0.3222875E+03  0.7818608E-02  0.1074601E+00
         -2   -1    0    0    0  501 -0.00000000000E+00  0.00000000000E+00  0.10285644855E+03  0.10285644858E+03  0.25500000000E-02 0.  1.
          2   -1    0    0  501    0  0.00000000000E+00 -0.00000000000E+00 -0.16502208358E+04  0.16502208358E+04  0.25500000000E-02 0. -1.
    8880022    1    1    2    0    0 -0.88289129027E+02 -0.26959713400E+03 -0.22765163504E+03  0.39458143002E+03  0.15294330000E+03 0.  0.
    8880022    1    1    2    0    0  0.88289129027E+02  0.26959713400E+03 -0.13197127522E+04  0.13584958544E+04  0.15294330000E+03 0.  0.
<mgrwt>
<rscale>  0 0.32228751E+03</rscale>
<asrwt>0</asrwt>
<pdfrwt beam="1">  1        2 0.25388011E+00 0.32228751E+03</pdfrwt>
<pdfrwt beam="2">  1       -2 0.15824070E-01 0.32228751E+03</pdfrwt>
<totfact> 0.35415805E+02</totfact>
</mgrwt>
</event>
<event>
 4    1  0.4880711E-008  0.2432987E+03  0.7818608E-02  0.1117615E+00
          2   -1    0    0  501    0  0.00000000000E+00  0.00000000000E+00  0.11174378572E+03  0.11174378575E+03  0.25500000000E-02 0. -1.
         -2   -1    0    0    0  501 -0.00000000000E+00 -0.00000000000E+00 -0.84287285325E+03  0.84287285325E+03  0.25500000000E-02 0.  1.
    8880022    1    1    2    0    0 -0.11097186196E+03  0.15325743082E+03 -0.74634933856E+02  0.25448894006E+03  0.15294330000E+03 0.  0.
    8880022    1    1    2    0    0  0.11097186196E+03 -0.15325743082E+03 -0.65649413368E+03  0.70012769894E+03  0.15294330000E+03 0.  1.
<mgrwt>
<rscale>  0 0.24329868E+03</rscale>
<asrwt>0</asrwt>
<pdfrwt beam="1">  1        2 0.17191352E-01 0.24329868E+03</pdfrwt>
<pdfrwt beam="2">  1       -2 0.12967274E+00 0.24329868E+03</pdfrwt>
<totfact> 0.15273562E+02</totfact>
</mgrwt>
</event>
<event>
 4    1  0.4880711E-008  0.2879512E+03  0.7818608E-02  0.1091424E+00
          2   -1    0    0  501    0  0.00000000000E+00  0.00000000000E+00  0.19568999497E+04  0.19568999497E+04  0.25500000000E-02 0. -1.
         -2   -1    0    0    0  501 -0.00000000000E+00 -0.00000000000E+00 -0.42291490314E+03  0.42291490315E+03  0.25500000000E-02 0.  1.
    8880022    1    1    2    0    0  0.22577496827E+03  0.92465601470E+02  0.18957198624E+04  0.19174643865E+04  0.15294330000E+03 0.  0.
    8880022    1    1    2    0    0 -0.22577496827E+03 -0.92465601470E+02 -0.36173481583E+03  0.46235046637E+03  0.15294330000E+03 0.  0.
<mgrwt>
<rscale>  0 0.28795117E+03</rscale>
<asrwt>0</asrwt>
<pdfrwt beam="1">  1        2 0.30106154E+00 0.28795117E+03</pdfrwt>
<pdfrwt beam="2">  1       -2 0.65063830E-01 0.28795117E+03</pdfrwt>
<totfact> 0.17634725E+01</totfact>
</mgrwt>
</event>
<event>
 4    1  0.4880711E-008  0.9833543E+03  0.7818608E-02  0.9326992E-01
         -2   -1    0    0    0  501 -0.00000000000E+00  0.00000000000E+00  0.79828619997E+03  0.79828619998E+03  0.25500000000E-02 0.  1.
          2   -1    0    0  501    0  0.00000000000E+00 -0.00000000000E+00 -0.18750243599E+04  0.18750243599E+04  0.25500000000E-02 0. -1.
    8880022    1    1    2    0    0 -0.95453202426E+03  0.18017396415E+03 -0.13336141367E+04  0.16569587688E+04  0.15294330000E+03 0.  0.
    8880022    1    1    2    0    0  0.95453202426E+03 -0.18017396415E+03  0.25687597685E+03  0.10163517911E+04  0.15294330000E+03 0.  0.
<mgrwt>
<rscale>  0 0.98335431E+03</rscale>
<asrwt>0</asrwt>
<pdfrwt beam="1">  1        2 0.28846529E+00 0.98335431E+03</pdfrwt>
<pdfrwt beam="2">  1       -2 0.12281326E+00 0.98335431E+03</pdfrwt>
<totfact> 0.39266548E+00</totfact>
</mgrwt>
</event>
<event>
 4    1  0.4880711E-008  0.4903932E+03  0.7818608E-02  0.1016317E+00
         -2   -1    0    0    0  501 -0.00000000000E+00  0.00000000000E+00  0.34456184582E+03  0.34456184583E+03  0.25500000000E-02 0.  1.
          2   -1    0    0  501    0  0.00000000000E+00 -0.00000000000E+00 -0.24608579291E+04  0.24608579291E+04  0.25500000000E-02 0. -1.
    8880022    1    1    2    0    0  0.28404187968E+03 -0.36934272886E+03  0.12909578521E+03  0.50710079427E+03  0.15294330000E+03 0.  0.
    8880022    1    1    2    0    0 -0.28404187968E+03  0.36934272886E+03 -0.22453918685E+04  0.22983189807E+04  0.15294330000E+03 0.  0.
<mgrwt>
<rscale>  0 0.49039320E+03</rscale>
<asrwt>0</asrwt>
<pdfrwt beam="1">  1        2 0.37859352E+00 0.49039320E+03</pdfrwt>
<pdfrwt beam="2">  1       -2 0.53009516E-01 0.49039320E+03</pdfrwt>
<totfact> 0.13564935E+01</totfact>
</mgrwt>
</event>
<event>
 4    1  0.4880711E-008  0.2702156E+03  0.7818608E-02  0.1101156E+00
          2   -1    0    0  501    0  0.00000000000E+00  0.00000000000E+00  0.37867734371E+04  0.37867734371E+04  0.25500000000E-02 0. -1.
         -2   -1    0    0    0  501 -0.00000000000E+00 -0.00000000000E+00 -0.16099394053E+03  0.16099394055E+03  0.25500000000E-02 0.  1.
    8880022    1    1    2    0    0 -0.21845857613E+03  0.43596901975E+02 -0.39020969610E+02  0.27301854961E+03  0.15294330000E+03 0.  0.
    8880022    1    1    2    0    0  0.21845857613E+03 -0.43596901975E+02  0.36648004662E+04  0.36747488281E+04  0.15294330000E+03 0.  0.
<mgrwt>
<rscale>  0 0.27021564E+03</rscale>
<asrwt>0</asrwt>
<pdfrwt beam="1">  1        2 0.58258047E+00 0.27021564E+03</pdfrwt>
<pdfrwt beam="2">  1       -2 0.24768301E-01 0.27021564E+03</pdfrwt>
<totfact> 0.93967368E+00</totfact>
</mgrwt>
</event>
<event>
 4    1  0.4880711E-008  0.6388970E+03  0.7818608E-02  0.9827839E-01
         -2   -1    0    0    0  501 -0.00000000000E+00  0.00000000000E+00  0.81488896741E+03  0.81488896741E+03  0.25500000000E-02 0.  1.
          2   -1    0    0  501    0  0.00000000000E+00 -0.00000000000E+00 -0.98359584674E+03  0.98359584674E+03  0.25500000000E-02 0. -1.
    8880022    1    1    2    0    0 -0.72598638780E+02 -0.61605775508E+03 -0.71429298782E+03  0.95833389036E+03  0.15294330000E+03 0.  0.
    8880022    1    1    2    0    0  0.72598638780E+02  0.61605775508E+03  0.54558610850E+03  0.84015092379E+03  0.15294330000E+03 0.  0.
<mgrwt>
<rscale>  0 0.63889700E+03</rscale>
<asrwt>0</asrwt>
<pdfrwt beam="1">  1        2 0.15132244E+00 0.63889700E+03</pdfrwt>
<pdfrwt beam="2">  1       -2 0.12536753E+00 0.63889700E+03</pdfrwt>
<totfact> 0.12665457E+01</totfact>
</mgrwt>
</event>
<event>
 4    1  0.4880711E-008  0.4504762E+03  0.7818608E-02  0.1027580E+00
          2   -1    0    0  501    0  0.00000000000E+00  0.00000000000E+00  0.43364122943E+04  0.43364122943E+04  0.25500000000E-02 0. -1.
         -2   -1    0    0    0  501 -0.00000000000E+00 -0.00000000000E+00 -0.73916221272E+02  0.73916221316E+02  0.25500000000E-02 0.  1.
    8880022    1    1    2    0    0  0.39064945804E+03 -0.16410406972E+03  0.79553274153E+03  0.91422160367E+03  0.15294330000E+03 0.  0.
    8880022    1    1    2    0    0 -0.39064945804E+03  0.16410406972E+03  0.34669633315E+04  0.34961069120E+04  0.15294330000E+03 0.  0.
<mgrwt>
<rscale>  0 0.45047619E+03</rscale>
<asrwt>0</asrwt>
<pdfrwt beam="1">  1        2 0.66714035E+00 0.45047619E+03</pdfrwt>
<pdfrwt beam="2">  1       -2 0.11371726E-01 0.45047619E+03</pdfrwt>
<totfact> 0.11872514E+01</totfact>
</mgrwt>
</event>
<event>
 4    1  0.4880711E-008  0.7091844E+03  0.7818608E-02  0.9701653E-01
         -2   -1    0    0    0  501 -0.00000000000E+00  0.00000000000E+00  0.32549032903E+03  0.32549032904E+03  0.25500000000E-02 0.  1.
          2   -1    0    0  501    0  0.00000000000E+00 -0.00000000000E+00 -0.17708701338E+04  0.17708701338E+04  0.25500000000E-02 0. -1.
    8880022    1    1    2    0    0 -0.68562005634E+03  0.97344882579E+02 -0.10968821396E+04  0.13061749381E+04  0.15294330000E+03 0.  0.
    8880022    1    1    2    0    0  0.68562005634E+03 -0.97344882579E+02 -0.34849766516E+03  0.79018552471E+03  0.15294330000E+03 0.  0.
<mgrwt>
<rscale>  0 0.70918442E+03</rscale>
<asrwt>0</asrwt>
<pdfrwt beam="1">  1        2 0.27244155E+00 0.70918442E+03</pdfrwt>
<pdfrwt beam="2">  1       -2 0.50075436E-01 0.70918442E+03</pdfrwt>
<totfact> 0.34894975E+01</totfact>
</mgrwt>
</event>
<event>
 4    1  0.4880711E-008  0.2114945E+03  0.7818608E-02  0.1140388E+00
          2   -1    0    0  501    0  0.00000000000E+00  0.00000000000E+00  0.29079950741E+03  0.29079950742E+03  0.25500000000E-02 0. -1.
         -2   -1    0    0    0  501 -0.00000000000E+00 -0.00000000000E+00 -0.59807860003E+03  0.59807860004E+03  0.25500000000E-02 0.  1.
    8880022    1    1    2    0    0  0.13113790727E+03  0.64351382098E+02 -0.53668690954E+03  0.57685591181E+03  0.15294330000E+03 0.  0.
    8880022    1    1    2    0    0 -0.13113790727E+03 -0.64351382098E+02  0.22940781692E+03  0.31202219565E+03  0.15294330000E+03 0. -1.
<mgrwt>
<rscale>  0 0.21149445E+03</rscale>
<asrwt>0</asrwt>
<pdfrwt beam="1">  1        2 0.44738386E-01 0.21149445E+03</pdfrwt>
<pdfrwt beam="2">  1       -2 0.92012092E-01 0.21149445E+03</pdfrwt>
<totfact> 0.11926036E+02</totfact>
</mgrwt>
</event>
<event>
 4    1  0.4880711E-008  0.9543584E+03  0.7818608E-02  0.9360071E-01
         -2   -1    0    0    0  501 -0.00000000000E+00  0.00000000000E+00  0.44765557406E+03  0.44765557407E+03  0.25500000000E-02 0.  1.
          2   -1    0    0  501    0  0.00000000000E+00 -0.00000000000E+00 -0.21430980351E+04  0.21430980351E+04  0.25500000000E-02 0. -1.
    8880022    1    1    2    0    0 -0.94091331653E+03  0.45721034930E+02 -0.11391862647E+04  0.14861175193E+04  0.15294330000E+03 0.  0.
    8880022    1    1    2    0    0  0.94091331653E+03 -0.45721034930E+02 -0.55625619634E+03  0.11046360900E+04  0.15294330000E+03 0.  0.
<mgrwt>
<rscale>  0 0.95435839E+03</rscale>
<asrwt>0</asrwt>
<pdfrwt beam="1">  1        2 0.32970738E+00 0.95435839E+03</pdfrwt>
<pdfrwt beam="2">  1       -2 0.68870090E-01 0.95435839E+03</pdfrwt>
<totfact> 0.10817860E+01</totfact>
</mgrwt>
</event>
<event>
 4    1  0.7562286E-008  0.1019631E+04  0.7818608E-02  0.9287272E-01
          2   -1    0    0  501    0  0.00000000000E+00  0.00000000000E+00  0.15227312194E+04  0.15227312194E+04  0.25500000000E-02 0. -1.
         -2   -1    0    0    0  501 -0.00000000000E+00 -0.00000000000E+00 -0.14891413118E+04  0.14891413118E+04  0.25500000000E-02 0.  1.
    8880022    1    1    2    0    0 -0.98939310834E+03 -0.19328090212E+03 -0.10913868126E+04  0.14935772688E+04  0.15294330000E+03 0.  0.
    8880022    1    1    2    0    0  0.98939310834E+03  0.19328090212E+03  0.11249767202E+04  0.15182952624E+04  0.15294330000E+03 0.  0.
<mgrwt>
<rscale>  0 0.10196312E+04</rscale>
<asrwt>0</asrwt>
<pdfrwt beam="1">  1        2 0.23426634E+00 0.10196312E+04</pdfrwt>
<pdfrwt beam="2">  1       -2 0.22909866E+00 0.10196312E+04</pdfrwt>
<totfact> 0.10603457E+00</totfact>
</mgrwt>
</event>
<event>
 4    1  0.4880711E-008  0.6772462E+03  0.7818608E-02  0.9756955E-01
          2   -1    0    0  501    0  0.00000000000E+00  0.00000000000E+00  0.15266652283E+04  0.15266652284E+04  0.25500000000E-02 0. -1.
         -2   -1    0    0    0  501 -0.00000000000E+00 -0.00000000000E+00 -0.58821514446E+03  0.58821514447E+03  0.25500000000E-02 0.  1.
    8880022    1    1    2    0    0 -0.65923151243E+03 -0.26164399748E+02 -0.27041215173E+03  0.72923600268E+03  0.15294330000E+03 0.  0.
    8880022    1    1    2    0    0  0.65923151243E+03  0.26164399748E+02  0.12088622356E+04  0.13856443701E+04  0.15294330000E+03 0.  0.
<mgrwt>
<rscale>  0 0.67724620E+03</rscale>
<asrwt>0</asrwt>
<pdfrwt beam="1">  1        2 0.23487157E+00 0.67724620E+03</pdfrwt>
<pdfrwt beam="2">  1       -2 0.90494639E-01 0.67724620E+03</pdfrwt>
<totfact> 0.13246551E+01</totfact>
</mgrwt>
</event>
<event>
 4    1  0.4880711E-008  0.7571875E+03  0.7818608E-02  0.9624141E-01
         -2   -1    0    0    0  501 -0.00000000000E+00  0.00000000000E+00  0.65058334181E+03  0.65058334181E+03  0.25500000000E-02 0.  1.
          2   -1    0    0  501    0  0.00000000000E+00 -0.00000000000E+00 -0.18927895369E+04  0.18927895369E+04  0.25500000000E-02 0. -1.
    8880022    1    1    2    0    0 -0.70542778593E+03 -0.22872022047E+03  0.30854417977E+03  0.81763834566E+03  0.15294330000E+03 0.  1.
    8880022    1    1    2    0    0  0.70542778593E+03  0.22872022047E+03 -0.15507503748E+04  0.17257345330E+04  0.15294330000E+03 0.  0.
<mgrwt>
<rscale>  0 0.75718753E+03</rscale>
<asrwt>0</asrwt>
<pdfrwt beam="1">  1        2 0.29119839E+00 0.75718753E+03</pdfrwt>
<pdfrwt beam="2">  1       -2 0.10008975E+00 0.75718753E+03</pdfrwt>
<totfact> 0.65197999E+00</totfact>
</mgrwt>
</event>
<event>
 4    1  0.4880711E-008  0.7904371E+03  0.7818608E-02  0.9573963E-01
         -2   -1    0    0    0  501 -0.00000000000E+00  0.00000000000E+00  0.58820376317E+03  0.58820376317E+03  0.25500000000E-02 0.  1.
          2   -1    0    0  501    0  0.00000000000E+00 -0.00000000000E+00 -0.19908188438E+04  0.19908188438E+04  0.25500000000E-02 0. -1.
    8880022    1    1    2    0    0  0.60732352165E+03  0.48224191322E+03 -0.15820070093E+04  0.17684843661E+04  0.15294330000E+03 0.  0.
    8880022    1    1    2    0    0 -0.60732352165E+03 -0.48224191322E+03  0.17939192864E+03  0.81053824086E+03  0.15294330000E+03 0.  0.
<mgrwt>
<rscale>  0 0.79043708E+03</rscale>
<asrwt>0</asrwt>
<pdfrwt beam="1">  1        2 0.30627982E+00 0.79043708E+03</pdfrwt>
<pdfrwt beam="2">  1       -2 0.90492887E-01 0.79043708E+03</pdfrwt>
<totfact> 0.72602738E+00</totfact>
</mgrwt>
</event>
<event>
 4    1  0.4880711E-008  0.3310598E+03  0.7818608E-02  0.1070669E+00
         -2   -1    0    0    0  501 -0.00000000000E+00  0.00000000000E+00  0.10621197147E+03  0.10621197150E+03  0.25500000000E-02 0.  1.
          2   -1    0    0  501    0  0.00000000000E+00 -0.00000000000E+00 -0.10633447387E+04  0.10633447387E+04  0.25500000000E-02 0. -1.
    8880022    1    1    2    0    0 -0.43007850268E+01  0.29358210850E+03 -0.37801278266E+03  0.50248807752E+03  0.15294330000E+03 0.  0.
    8880022    1    1    2    0    0  0.43007850268E+01 -0.29358210850E+03 -0.57911998461E+03  0.66706863273E+03  0.15294330000E+03 0.  0.
<mgrwt>
<rscale>  0 0.33105982E+03</rscale>
<asrwt>0</asrwt>
<pdfrwt beam="1">  1        2 0.16359149E+00 0.33105982E+03</pdfrwt>
<pdfrwt beam="2">  1       -2 0.16340304E-01 0.33105982E+03</pdfrwt>
<totfact> 0.71227215E+02</totfact>
</mgrwt>
</event>
<event>
 4    1  0.4880711E-008  0.4285216E+03  0.7818608E-02  0.1034328E+00
         -2   -1    0    0    0  501 -0.00000000000E+00  0.00000000000E+00  0.69917911191E+03  0.69917911192E+03  0.25500000000E-02 0.  1.
          2   -1    0    0  501    0  0.00000000000E+00 -0.00000000000E+00 -0.97218817172E+03  0.97218817172E+03  0.25500000000E-02 0. -1.
    8880022    1    1    2    0    0  0.20660856439E+03 -0.34285861973E+03 -0.85043905602E+03  0.95230109368E+03  0.15294330000E+03 0. -1.
    8880022    1    1    2    0    0 -0.20660856439E+03  0.34285861973E+03  0.57742999621E+03  0.71906618996E+03  0.15294330000E+03 0.  0.
<mgrwt>
<rscale>  0 0.42852163E+03</rscale>
<asrwt>0</asrwt>
<pdfrwt beam="1">  1        2 0.14956741E+00 0.42852163E+03</pdfrwt>
<pdfrwt beam="2">  1       -2 0.10756602E+00 0.42852163E+03</pdfrwt>
<totfact> 0.19345948E+01</totfact>
</mgrwt>
</event>
<event>
 4    1  0.4880711E-008  0.3638600E+03  0.7818608E-02  0.1057066E+00
          2   -1    0    0  501    0  0.00000000000E+00  0.00000000000E+00  0.30603963843E+03  0.30603963844E+03  0.25500000000E-02 0. -1.
         -2   -1    0    0    0  501 -0.00000000000E+00 -0.00000000000E+00 -0.72223240140E+03  0.72223240140E+03  0.25500000000E-02 0.  1.
    8880022    1    1    2    0    0 -0.31627510552E+03  0.94723343185E+02 -0.53367793347E+03  0.64591504380E+03  0.15294330000E+03 0.  1.
    8880022    1    1    2    0    0  0.31627510552E+03 -0.94723343185E+02  0.11748517051E+03  0.38235699604E+03  0.15294330000E+03 0.  0.
<mgrwt>
<rscale>  0 0.36386001E+03</rscale>
<asrwt>0</asrwt>
<pdfrwt beam="1">  1        2 0.47083021E-01 0.36386001E+03</pdfrwt>
<pdfrwt beam="2">  1       -2 0.11111268E+00 0.36386001E+03</pdfrwt>
<totfact> 0.71450312E+01</totfact>
</mgrwt>
</event>
<event>
 4    1  0.4880711E-008  0.9820518E+03  0.7818608E-02  0.9328452E-01
          2   -1    0    0  501    0  0.00000000000E+00  0.00000000000E+00  0.78934640415E+03  0.78934640416E+03  0.25500000000E-02 0. -1.
         -2   -1    0    0    0  501 -0.00000000000E+00 -0.00000000000E+00 -0.13855490559E+04  0.13855490559E+04  0.25500000000E-02 0.  1.
    8880022    1    1    2    0    0 -0.62230649572E+03 -0.74415639269E+03 -0.67193888224E+03  0.11899275717E+04  0.15294330000E+03 0.  0.
    8880022    1    1    2    0    0  0.62230649572E+03  0.74415639269E+03  0.75736230535E+02  0.98496788832E+03  0.15294330000E+03 0.  0.
<mgrwt>
<rscale>  0 0.98205181E+03</rscale>
<asrwt>0</asrwt>
<pdfrwt beam="1">  1        2 0.12143791E+00 0.98205181E+03</pdfrwt>
<pdfrwt beam="2">  1       -2 0.21316139E+00 0.98205181E+03</pdfrwt>
<totfact> 0.38152096E+00</totfact>
</mgrwt>
</event>
<event>
 4    1  0.4880711E-008  0.4842714E+03  0.7818608E-02  0.1017968E+00
         -2   -1    0    0    0  501 -0.00000000000E+00  0.00000000000E+00  0.96645457325E+03  0.96645457325E+03  0.25500000000E-02 0.  1.
          2   -1    0    0  501    0  0.00000000000E+00 -0.00000000000E+00 -0.99665937603E+03  0.99665937604E+03  0.25500000000E-02 0. -1.
    8880022    1    1    2    0    0 -0.43218341968E+03  0.15602769920E+03  0.83864214970E+03  0.96842111679E+03  0.15294330000E+03 0.  0.
    8880022    1    1    2    0    0  0.43218341968E+03 -0.15602769920E+03 -0.86884695249E+03  0.99469283250E+03  0.15294330000E+03 0. -1.
<mgrwt>
<rscale>  0 0.48427142E+03</rscale>
<asrwt>0</asrwt>
<pdfrwt beam="1">  1        2 0.15333221E+00 0.48427142E+03</pdfrwt>
<pdfrwt beam="2">  1       -2 0.14868532E+00 0.48427142E+03</pdfrwt>
<totfact> 0.82385257E+00</totfact>
</mgrwt>
</event>
<event>
 4    1  0.4880711E-008  0.3428239E+03  0.7818608E-02  0.1065600E+00
         -2   -1    0    0    0  501 -0.00000000000E+00  0.00000000000E+00  0.11734676191E+03  0.11734676193E+03  0.25500000000E-02 0.  1.
          2   -1    0    0  501    0  0.00000000000E+00 -0.00000000000E+00 -0.10606581626E+04  0.10606581626E+04  0.25500000000E-02 0. -1.
    8880022    1    1    2    0    0  0.82651670636E+02 -0.29547470229E+03 -0.61070396770E+03  0.70034819021E+03  0.15294330000E+03 0. -1.
    8880022    1    1    2    0    0 -0.82651670636E+02  0.29547470229E+03 -0.33260743302E+03  0.47765673435E+03  0.15294330000E+03 0.  0.
<mgrwt>
<rscale>  0 0.34282394E+03</rscale>
<asrwt>0</asrwt>
<pdfrwt beam="1">  1        2 0.16317817E+00 0.34282394E+03</pdfrwt>
<pdfrwt beam="2">  1       -2 0.18053349E-01 0.34282394E+03</pdfrwt>
<totfact> 0.60350159E+02</totfact>
</mgrwt>
</event>
<event>
 4    1  0.4880711E-008  0.9532137E+03  0.7818608E-02  0.9361402E-01
         -2   -1    0    0    0  501 -0.00000000000E+00  0.00000000000E+00  0.92339315482E+03  0.92339315482E+03  0.25500000000E-02 0.  1.
          2   -1    0    0  501    0  0.00000000000E+00 -0.00000000000E+00 -0.16956824624E+04  0.16956824624E+04  0.25500000000E-02 0. -1.
    8880022    1    1    2    0    0  0.62468799679E+03  0.70355493781E+03  0.46223404926E+03  0.10593755770E+04  0.15294330000E+03 0.  0.
    8880022    1    1    2    0    0 -0.62468799679E+03 -0.70355493781E+03 -0.12345233568E+04  0.15597000402E+04  0.15294330000E+03 0.  0.
<mgrwt>
<rscale>  0 0.95321367E+03</rscale>
<asrwt>0</asrwt>
<pdfrwt beam="1">  1        2 0.26087422E+00 0.95321367E+03</pdfrwt>
<pdfrwt beam="2">  1       -2 0.14206049E+00 0.95321367E+03</pdfrwt>
<totfact> 0.34106132E+00</totfact>
</mgrwt>
</event>
<event>
 4    1  0.4880711E-008  0.9264030E+03  0.7818608E-02  0.9393165E-01
         -2   -1    0    0    0  501 -0.00000000000E+00  0.00000000000E+00  0.49520254118E+03  0.49520254119E+03  0.25500000000E-02 0.  1.
          2   -1    0    0  501    0  0.00000000000E+00 -0.00000000000E+00 -0.18991760166E+04  0.18991760166E+04  0.25500000000E-02 0. -1.
    8880022    1    1    2    0    0  0.81356248128E+03 -0.41586880723E+03 -0.34793376601E+03  0.98958594085E+03  0.15294330000E+03 0.  0.
    8880022    1    1    2    0    0 -0.81356248128E+03  0.41586880723E+03 -0.10560397094E+04  0.14047926170E+04  0.15294330000E+03 0.  0.
<mgrwt>
<rscale>  0 0.92640295E+03</rscale>
<asrwt>0</asrwt>
<pdfrwt beam="1">  1        2 0.29218092E+00 0.92640295E+03</pdfrwt>
<pdfrwt beam="2">  1       -2 0.76185007E-01 0.92640295E+03</pdfrwt>
<totfact> 0.11833251E+01</totfact>
</mgrwt>
</event>
<event>
 4    1  0.4880711E-008  0.2870350E+03  0.7818608E-02  0.1091907E+00
         -2   -1    0    0    0  501 -0.00000000000E+00  0.00000000000E+00  0.25133631393E+03  0.25133631395E+03  0.25500000000E-02 0.  1.
          2   -1    0    0  501    0  0.00000000000E+00 -0.00000000000E+00 -0.13687202323E+04  0.13687202324E+04  0.25500000000E-02 0. -1.
    8880022    1    1    2    0    0 -0.24170542380E+03  0.23998350558E+02 -0.12650919653E+04  0.12972458388E+04  0.15294330000E+03 0.  0.
    8880022    1    1    2    0    0  0.24170542380E+03 -0.23998350558E+02  0.14770804687E+03  0.32281070746E+03  0.15294330000E+03 0.  1.
<mgrwt>
<rscale>  0 0.28703499E+03</rscale>
<asrwt>0</asrwt>
<pdfrwt beam="1">  1        2 0.21057234E+00 0.28703499E+03</pdfrwt>
<pdfrwt beam="2">  1       -2 0.38667126E-01 0.28703499E+03</pdfrwt>
<totfact> 0.10314314E+02</totfact>
</mgrwt>
</event>
<event>
 4    1  0.4880711E-008  0.8462933E+03  0.7818608E-02  0.9495325E-01
          2   -1    0    0  501    0  0.00000000000E+00  0.00000000000E+00  0.38886730931E+04  0.38886730931E+04  0.25500000000E-02 0. -1.
         -2   -1    0    0    0  501 -0.00000000000E+00 -0.00000000000E+00 -0.34000062132E+03  0.34000062133E+03  0.25500000000E-02 0.  1.
    8880022    1    1    2    0    0  0.54559102492E+03 -0.62861052354E+03  0.32056933790E+04  0.33155214446E+04  0.15294330000E+03 0.  0.
    8880022    1    1    2    0    0 -0.54559102492E+03  0.62861052354E+03  0.34297909286E+03  0.91315226985E+03  0.15294330000E+03 0.  0.
<mgrwt>
<rscale>  0 0.84629334E+03</rscale>
<asrwt>0</asrwt>
<pdfrwt beam="1">  1        2 0.59825737E+00 0.84629334E+03</pdfrwt>
<pdfrwt beam="2">  1       -2 0.52307790E-01 0.84629334E+03</pdfrwt>
<totfact> 0.15657760E+00</totfact>
</mgrwt>
</event>
<event>
 4    1  0.4880711E-008  0.2220091E+03  0.7818608E-02  0.1132394E+00
          2   -1    0    0  501    0  0.00000000000E+00  0.00000000000E+00  0.17817486475E+04  0.17817486475E+04  0.25500000000E-02 0. -1.
         -2   -1    0    0    0  501 -0.00000000000E+00 -0.00000000000E+00 -0.53001493195E+02  0.53001493256E+02  0.25500000000E-02 0.  1.
    8880022    1    1    2    0    0  0.14451547277E+03 -0.70793086918E+02  0.23007232679E+03  0.31972067746E+03  0.15294330000E+03 0.  0.
    8880022    1    1    2    0    0 -0.14451547277E+03  0.70793086918E+02  0.14986748275E+04  0.15150294633E+04  0.15294330000E+03 0.  0.
<mgrwt>
<rscale>  0 0.22200909E+03</rscale>
<asrwt>0</asrwt>
<pdfrwt beam="1">  1        2 0.27411515E+00 0.22200909E+03</pdfrwt>
<pdfrwt beam="2">  1       -2 0.81540766E-02 0.22200909E+03</pdfrwt>
<totfact> 0.89402560E+02</totfact>
</mgrwt>
</event>
<event>
 4    1  0.4880711E-008  0.3491011E+03  0.7818608E-02  0.1062985E+00
          2   -1    0    0  501    0  0.00000000000E+00  0.00000000000E+00  0.41871610506E+03  0.41871610506E+03  0.25500000000E-02 0. -1.
         -2   -1    0    0    0  501 -0.00000000000E+00 -0.00000000000E+00 -0.62286104855E+03  0.62286104856E+03  0.25500000000E-02 0.  1.
    8880022    1    1    2    0    0 -0.25317578447E+03 -0.18542363837E+03 -0.48217842100E+03  0.59528781795E+03  0.15294330000E+03 0.  1.
    8880022    1    1    2    0    0  0.25317578447E+03  0.18542363837E+03  0.27803347750E+03  0.44628933567E+03  0.15294330000E+03 0.  0.
<mgrwt>
<rscale>  0 0.34910107E+03</rscale>
<asrwt>0</asrwt>
<pdfrwt beam="1">  1        2 0.64417862E-01 0.34910107E+03</pdfrwt>
<pdfrwt beam="2">  1       -2 0.95824778E-01 0.34910107E+03</pdfrwt>
<totfact> 0.71950402E+01</totfact>
</mgrwt>
</event>
<event>
 4    1  0.4880711E-008  0.7901653E+03  0.7818608E-02  0.9574363E-01
         -2   -1    0    0    0  501 -0.00000000000E+00  0.00000000000E+00  0.50356590904E+03  0.50356590905E+03  0.25500000000E-02 0.  1.
          2   -1    0    0  501    0  0.00000000000E+00 -0.00000000000E+00 -0.17500574620E+04  0.17500574620E+04  0.25500000000E-02 0. -1.
    8880022    1    1    2    0    0 -0.37897999219E+03 -0.67627188397E+03 -0.12316412156E+04  0.14633185684E+04  0.15294330000E+03 0.  0.
    8880022    1    1    2    0    0  0.37897999219E+03  0.67627188397E+03 -0.14850337280E+02  0.79030480263E+03  0.15294330000E+03 0.  1.
<mgrwt>
<rscale>  0 0.79016527E+03</rscale>
<asrwt>0</asrwt>
<pdfrwt beam="1">  1        2 0.26923961E+00 0.79016527E+03</pdfrwt>
<pdfrwt beam="2">  1       -2 0.77471679E-01 0.79016527E+03</pdfrwt>
<totfact> 0.13989391E+01</totfact>
</mgrwt>
</event>
<event>
 4    1  0.4880711E-008  0.4008751E+03  0.7818608E-02  0.1043477E+00
          2   -1    0    0  501    0  0.00000000000E+00  0.00000000000E+00  0.21128166992E+04  0.21128166992E+04  0.25500000000E-02 0. -1.
         -2   -1    0    0    0  501 -0.00000000000E+00 -0.00000000000E+00 -0.20968938390E+03  0.20968938392E+03  0.25500000000E-02 0.  1.
    8880022    1    1    2    0    0 -0.34288773840E+03 -0.14048910896E+03  0.18785847619E+04  0.19208804106E+04  0.15294330000E+03 0.  0.
    8880022    1    1    2    0    0  0.34288773840E+03  0.14048910896E+03  0.24542553313E+02  0.40162567251E+03  0.15294330000E+03 0.  1.
<mgrwt>
<rscale>  0 0.40087510E+03</rscale>
<asrwt>0</asrwt>
<pdfrwt beam="1">  1        2 0.32504874E+00 0.40087510E+03</pdfrwt>
<pdfrwt beam="2">  1       -2 0.32259904E-01 0.40087510E+03</pdfrwt>
<totfact> 0.56501281E+01</totfact>
</mgrwt>
</event>
<event>
 4    1  0.4880711E-008  0.7311346E+03  0.7818608E-02  0.9665421E-01
          2   -1    0    0  501    0  0.00000000000E+00  0.00000000000E+00  0.15021426092E+04  0.15021426092E+04  0.25500000000E-02 0. -1.
         -2   -1    0    0    0  501 -0.00000000000E+00 -0.00000000000E+00 -0.47890038783E+03  0.47890038784E+03  0.25500000000E-02 0.  1.
    8880022    1    1    2    0    0  0.25108926105E+03  0.66941791581E+03  0.95573498129E+01  0.73119707260E+03  0.15294330000E+03 0.  0.
    8880022    1    1    2    0    0 -0.25108926105E+03 -0.66941791581E+03  0.10136848715E+04  0.12498459244E+04  0.15294330000E+03 0.  0.
<mgrwt>
<rscale>  0 0.73113461E+03</rscale>
<asrwt>0</asrwt>
<pdfrwt beam="1">  1        2 0.23109886E+00 0.73113461E+03</pdfrwt>
<pdfrwt beam="2">  1       -2 0.73676984E-01 0.73113461E+03</pdfrwt>
<totfact> 0.21578179E+01</totfact>
</mgrwt>
</event>
<event>
 4    1  0.4880711E-008  0.9582182E+03  0.7818608E-02  0.9355596E-01
          2   -1    0    0  501    0  0.00000000000E+00  0.00000000000E+00  0.11302246789E+04  0.11302246789E+04  0.25500000000E-02 0. -1.
         -2   -1    0    0    0  501 -0.00000000000E+00 -0.00000000000E+00 -0.85415442978E+03  0.85415442978E+03  0.25500000000E-02 0.  1.
    8880022    1    1    2    0    0  0.53139687866E+03 -0.78256495277E+03 -0.81363777304E+02  0.96166640017E+03  0.15294330000E+03 0.  0.
    8880022    1    1    2    0    0 -0.53139687866E+03  0.78256495277E+03  0.35743402647E+03  0.10227127086E+04  0.15294330000E+03 0.  0.
<mgrwt>
<rscale>  0 0.95821824E+03</rscale>
<asrwt>0</asrwt>
<pdfrwt beam="1">  1        2 0.17388072E+00 0.95821824E+03</pdfrwt>
<pdfrwt beam="2">  1       -2 0.13140837E+00 0.95821824E+03</pdfrwt>
<totfact> 0.87850510E+00</totfact>
</mgrwt>
</event>
<event>
 4    1  0.4880711E-008  0.3456281E+03  0.7818608E-02  0.1064424E+00
          2   -1    0    0  501    0  0.00000000000E+00  0.00000000000E+00  0.21343148156E+04  0.21343148156E+04  0.25500000000E-02 0. -1.
         -2   -1    0    0    0  501 -0.00000000000E+00 -0.00000000000E+00 -0.66290333293E+03  0.66290333294E+03  0.25500000000E-02 0.  1.
    8880022    1    1    2    0    0  0.30818959931E+03 -0.32958821611E+02  0.20739689537E+04  0.21025712799E+04  0.15294330000E+03 0.  0.
    8880022    1    1    2    0    0 -0.30818959931E+03  0.32958821611E+02 -0.60255747110E+03  0.69464686859E+03  0.15294330000E+03 0.  0.
<mgrwt>
<rscale>  0 0.34562807E+03</rscale>
<asrwt>0</asrwt>
<pdfrwt beam="1">  1        2 0.32835612E+00 0.34562807E+03</pdfrwt>
<pdfrwt beam="2">  1       -2 0.10198513E+00 0.34562807E+03</pdfrwt>
<totfact> 0.50977015E+00</totfact>
</mgrwt>
</event>
<event>
 4    1  0.4880711E-008  0.7996638E+03  0.7818608E-02  0.9560504E-01
         -2   -1    0    0    0  501 -0.00000000000E+00  0.00000000000E+00  0.21084812085E+04  0.21084812085E+04  0.25500000000E-02 0.  1.
          2   -1    0    0  501    0  0.00000000000E+00 -0.00000000000E+00 -0.95655543909E+03  0.95655543909E+03  0.25500000000E-02 0. -1.
    8880022    1    1    2    0    0 -0.69858834381E+03  0.35783349164E+03  0.18424432478E+04  0.20084967653E+04  0.15294330000E+03 0.  0.
    8880022    1    1    2    0    0  0.69858834381E+03 -0.35783349164E+03 -0.69051747840E+03  0.10565398823E+04  0.15294330000E+03 0.  0.
<mgrwt>
<rscale>  0 0.79966376E+03</rscale>
<asrwt>0</asrwt>
<pdfrwt beam="1">  1        2 0.14716238E+00 0.79966376E+03</pdfrwt>
<pdfrwt beam="2">  1       -2 0.32438172E+00 0.79966376E+03</pdfrwt>
<totfact> 0.63010202E-01</totfact>
</mgrwt>
</event>
<event>
 4    1  0.4880711E-008  0.7216431E+03  0.7818608E-02  0.9680919E-01
         -2   -1    0    0    0  501 -0.00000000000E+00  0.00000000000E+00  0.79905638566E+03  0.79905638567E+03  0.25500000000E-02 0.  1.
          2   -1    0    0  501    0  0.00000000000E+00 -0.00000000000E+00 -0.20491388118E+04  0.20491388118E+04  0.25500000000E-02 0. -1.
    8880022    1    1    2    0    0 -0.40330791434E+03 -0.57854976372E+03  0.55098189205E+03  0.90793711305E+03  0.15294330000E+03 0.  0.
    8880022    1    1    2    0    0  0.40330791434E+03  0.57854976372E+03 -0.18010643182E+04  0.19402580844E+04  0.15294330000E+03 0.  0.
<mgrwt>
<rscale>  0 0.72164309E+03</rscale>
<asrwt>0</asrwt>
<pdfrwt beam="1">  1        2 0.31525212E+00 0.72164309E+03</pdfrwt>
<pdfrwt beam="2">  1       -2 0.12293175E+00 0.72164309E+03</pdfrwt>
<totfact> 0.32713649E+00</totfact>
</mgrwt>
</event>
<event>
 4    1  0.6906600E-008  0.1309549E+04  0.7818608E-02  0.9022027E-01
         -2   -1    0    0    0  501 -0.00000000000E+00  0.00000000000E+00  0.19762448353E+04  0.19762448353E+04  0.25500000000E-02 0.  1.
          2   -1    0    0  501    0  0.00000000000E+00 -0.00000000000E+00 -0.22544325587E+04  0.22544325587E+04  0.25500000000E-02 0. -1.
    8880022    1    1    2    0    0  0.86495765508E+03  0.97127483212E+03 -0.17980973595E+04  0.22244262882E+04  0.15294330000E+03 0.  0.
    8880022    1    1    2    0    0 -0.86495765508E+03 -0.97127483212E+03  0.15199096361E+04  0.20062511058E+04  0.15294330000E+03 0.  0.
<mgrwt>
<rscale>  0 0.13095489E+04</rscale>
<asrwt>0</asrwt>
<pdfrwt beam="1">  1        2 0.34683578E+00 0.13095489E+04</pdfrwt>
<pdfrwt beam="2">  1       -2 0.30403767E+00 0.13095489E+04</pdfrwt>
<totfact> 0.13906462E-01</totfact>
</mgrwt>
</event>
<event>
 4    1  0.4880711E-008  0.3315405E+03  0.7818608E-02  0.1070457E+00
         -2   -1    0    0    0  501 -0.00000000000E+00  0.00000000000E+00  0.35228266227E+03  0.35228266228E+03  0.25500000000E-02 0.  1.
          2   -1    0    0  501    0  0.00000000000E+00 -0.00000000000E+00 -0.14811004539E+04  0.14811004539E+04  0.25500000000E-02 0. -1.
    8880022    1    1    2    0    0  0.15296033170E+03 -0.25125803079E+03 -0.13788379128E+04  0.14181371950E+04  0.15294330000E+03 0.  0.
    8880022    1    1    2    0    0 -0.15296033170E+03  0.25125803079E+03  0.25002012111E+03  0.41524592122E+03  0.15294330000E+03 0.  0.
<mgrwt>
<rscale>  0 0.33154052E+03</rscale>
<asrwt>0</asrwt>
<pdfrwt beam="1">  1        2 0.22786161E+00 0.33154052E+03</pdfrwt>
<pdfrwt beam="2">  1       -2 0.54197333E-01 0.33154052E+03</pdfrwt>
<totfact> 0.45529781E+01</totfact>
</mgrwt>
</event>
<event>
 4    1  0.4880711E-008  0.1549176E+03  0.7818608E-02  0.1194557E+00
         -2   -1    0    0    0  501 -0.00000000000E+00  0.00000000000E+00  0.53390393492E+03  0.53390393493E+03  0.25500000000E-02 0.  1.
          2   -1    0    0  501    0  0.00000000000E+00 -0.00000000000E+00 -0.71314709970E+03  0.71314709971E+03  0.25500000000E-02 0. -1.
    8880022    1    1    2    0    0 -0.14742568270E+02  0.19759936271E+02  0.51393317642E+03  0.53677440442E+03  0.15294330000E+03 0.  1.
    8880022    1    1    2    0    0  0.14742568270E+02 -0.19759936271E+02 -0.69317634120E+03  0.71027663021E+03  0.15294330000E+03 0.  0.
<mgrwt>
<rscale>  0 0.15491756E+03</rscale>
<asrwt>0</asrwt>
<pdfrwt beam="1">  1        2 0.10971494E+00 0.15491756E+03</pdfrwt>
<pdfrwt beam="2">  1       -2 0.82139067E-01 0.15491756E+03</pdfrwt>
<totfact> 0.57502826E+01</totfact>
</mgrwt>
</event>
<event>
 4    1  0.8171794E-008  0.1057976E+04  0.7818608E-02  0.9247148E-01
         -2   -1    0    0    0  501 -0.00000000000E+00  0.00000000000E+00  0.19495538020E+04  0.19495538020E+04  0.25500000000E-02 0.  1.
          2   -1    0    0  501    0  0.00000000000E+00 -0.00000000000E+00 -0.18520003115E+04  0.18520003115E+04  0.25500000000E-02 0. -1.
    8880022    1    1    2    0    0 -0.24699305208E+03  0.10173078779E+04 -0.15301163209E+04  0.18602603299E+04  0.15294330000E+03 0.  0.
    8880022    1    1    2    0    0  0.24699305208E+03 -0.10173078779E+04  0.16276698115E+04  0.19412937837E+04  0.15294330000E+03 0.  0.
<mgrwt>
<rscale>  0 0.10579757E+04</rscale>
<asrwt>0</asrwt>
<pdfrwt beam="1">  1        2 0.28492312E+00 0.10579757E+04</pdfrwt>
<pdfrwt beam="2">  1       -2 0.29993135E+00 0.10579757E+04</pdfrwt>
<totfact> 0.25643223E-01</totfact>
</mgrwt>
</event>
<event>
 4    1  0.4880711E-008  0.5693529E+03  0.7818608E-02  0.9971112E-01
         -2   -1    0    0    0  501 -0.00000000000E+00  0.00000000000E+00  0.22466354380E+03  0.22466354381E+03  0.25500000000E-02 0.  1.
          2   -1    0    0  501    0  0.00000000000E+00 -0.00000000000E+00 -0.22996825595E+04  0.22996825595E+04  0.25500000000E-02 0. -1.
    8880022    1    1    2    0    0 -0.53050398459E+03 -0.13905590133E+03 -0.26709371483E+03  0.62888928030E+03  0.15294330000E+03 0.  0.
    8880022    1    1    2    0    0  0.53050398459E+03  0.13905590133E+03 -0.18079253009E+04  0.18954568230E+04  0.15294330000E+03 0. -1.
<mgrwt>
<rscale>  0 0.56935286E+03</rscale>
<asrwt>0</asrwt>
<pdfrwt beam="1">  1        2 0.35379730E+00 0.56935286E+03</pdfrwt>
<pdfrwt beam="2">  1       -2 0.34563624E-01 0.56935286E+03</pdfrwt>
<totfact> 0.37974649E+01</totfact>
</mgrwt>
</event>
<event>
 4    1  0.4880711E-008  0.5808057E+03  0.7818608E-02  0.9946048E-01
         -2   -1    0    0    0  501 -0.00000000000E+00  0.00000000000E+00  0.23546873363E+03  0.23546873364E+03  0.25500000000E-02 0.  1.
          2   -1    0    0  501    0  0.00000000000E+00 -0.00000000000E+00 -0.40364303441E+04  0.40364303441E+04  0.25500000000E-02 0. -1.
    8880022    1    1    2    0    0 -0.26762595617E+03  0.49226004679E+03 -0.36160080702E+04  0.36623557477E+04  0.15294330000E+03 0.  0.
    8880022    1    1    2    0    0  0.26762595617E+03 -0.49226004679E+03 -0.18495354025E+03  0.60954333000E+03  0.15294330000E+03 0.  0.
<mgrwt>
<rscale>  0 0.58080570E+03</rscale>
<asrwt>0</asrwt>
<pdfrwt beam="1">  1        2 0.62098923E+00 0.58080570E+03</pdfrwt>
<pdfrwt beam="2">  1       -2 0.36225962E-01 0.58080570E+03</pdfrwt>
<totfact> 0.26601128E+00</totfact>
</mgrwt>
</event>
<event>
 4    1  0.4880711E-008  0.2084763E+03  0.7818608E-02  0.1142778E+00
          2   -1    0    0  501    0  0.00000000000E+00  0.00000000000E+00  0.53884191654E+03  0.53884191655E+03  0.25500000000E-02 0. -1.
         -2   -1    0    0    0  501 -0.00000000000E+00 -0.00000000000E+00 -0.52351871395E+03  0.52351871396E+03  0.25500000000E-02 0.  1.
    8880022    1    1    2    0    0  0.13571384353E+03  0.40650558166E+02 -0.48088841163E+03  0.52413360192E+03  0.15294330000E+03 0.  1.
    8880022    1    1    2    0    0 -0.13571384353E+03 -0.40650558166E+02  0.49621161422E+03  0.53822702859E+03  0.15294330000E+03 0.  0.
<mgrwt>
<rscale>  0 0.20847630E+03</rscale>
<asrwt>0</asrwt>
<pdfrwt beam="1">  1        2 0.82898756E-01 0.20847630E+03</pdfrwt>
<pdfrwt beam="2">  1       -2 0.80541341E-01 0.20847630E+03</pdfrwt>
<totfact> 0.82041216E+01</totfact>
</mgrwt>
</event>
<event>
 4    1  0.4880711E-008  0.6702170E+03  0.7818608E-02  0.9769566E-01
         -2   -1    0    0    0  501 -0.00000000000E+00  0.00000000000E+00  0.91426944324E+03  0.91426944324E+03  0.25500000000E-02 0.  1.
          2   -1    0    0  501    0  0.00000000000E+00 -0.00000000000E+00 -0.10730432236E+04  0.10730432236E+04  0.25500000000E-02 0. -1.
    8880022    1    1    2    0    0  0.35852396571E+03 -0.54521528663E+03 -0.81101282420E+03  0.10521086431E+04  0.15294330000E+03 0.  0.
    8880022    1    1    2    0    0 -0.35852396571E+03  0.54521528663E+03  0.65223904385E+03  0.93520402378E+03  0.15294330000E+03 0.  0.
<mgrwt>
<rscale>  0 0.67021698E+03</rscale>
<asrwt>0</asrwt>
<pdfrwt beam="1">  1        2 0.16508357E+00 0.67021698E+03</pdfrwt>
<pdfrwt beam="2">  1       -2 0.14065684E+00 0.67021698E+03</pdfrwt>
<totfact> 0.82729553E+00</totfact>
</mgrwt>
</event>
<event>
 4    1  0.4880711E-008  0.4421812E+03  0.7818608E-02  0.1030080E+00
          2   -1    0    0  501    0  0.00000000000E+00  0.00000000000E+00  0.81438907213E+03  0.81438907214E+03  0.25500000000E-02 0. -1.
         -2   -1    0    0    0  501 -0.00000000000E+00 -0.00000000000E+00 -0.20450793478E+04  0.20450793478E+04  0.25500000000E-02 0.  1.
    8880022    1    1    2    0    0  0.28948620526E+03 -0.29720411981E+03  0.72784629617E+03  0.85163632833E+03  0.15294330000E+03 0.  0.
    8880022    1    1    2    0    0 -0.28948620526E+03  0.29720411981E+03 -0.19585365718E+04  0.20078320916E+04  0.15294330000E+03 0.  0.
<mgrwt>
<rscale>  0 0.44218119E+03</rscale>
<asrwt>0</asrwt>
<pdfrwt beam="1">  1        2 0.12529063E+00 0.44218119E+03</pdfrwt>
<pdfrwt beam="2">  1       -2 0.31462759E+00 0.44218119E+03</pdfrwt>
<totfact> 0.98258411E-01</totfact>
</mgrwt>
</event>
<event>
 4    1  0.4880711E-008  0.3075997E+03  0.7818608E-02  0.1081502E+00
          2   -1    0    0  501    0  0.00000000000E+00  0.00000000000E+00  0.10856862665E+03  0.10856862668E+03  0.25500000000E-02 0. -1.
         -2   -1    0    0    0  501 -0.00000000000E+00 -0.00000000000E+00 -0.13118930983E+04  0.13118930983E+04  0.25500000000E-02 0.  1.
    8880022    1    1    2    0    0  0.26500895302E+03  0.31562590258E+02 -0.10131627668E+04  0.10588278365E+04  0.15294330000E+03 0.  0.
    8880022    1    1    2    0    0 -0.26500895302E+03 -0.31562590258E+02 -0.19016170478E+03  0.36163388843E+03  0.15294330000E+03 0.  0.
<mgrwt>
<rscale>  0 0.30759973E+03</rscale>
<asrwt>0</asrwt>
<pdfrwt beam="1">  1        2 0.16702867E-01 0.30759973E+03</pdfrwt>
<pdfrwt beam="2">  1       -2 0.20182970E+00 0.30759973E+03</pdfrwt>
<totfact> 0.48043652E+01</totfact>
</mgrwt>
</event>
<event>
 4    1  0.4880711E-008  0.2039935E+03  0.7818608E-02  0.1146413E+00
          2   -1    0    0  501    0  0.00000000000E+00  0.00000000000E+00  0.66558032416E+03  0.66558032416E+03  0.25500000000E-02 0. -1.
         -2   -1    0    0    0  501 -0.00000000000E+00 -0.00000000000E+00 -0.62582198206E+02  0.62582198258E+02  0.25500000000E-02 0.  1.
    8880022    1    1    2    0    0  0.13486453704E+03  0.57665317855E+01  0.31279988787E+03  0.37343957892E+03  0.15294330000E+03 0. -1.
    8880022    1    1    2    0    0 -0.13486453704E+03 -0.57665317855E+01  0.29019823808E+03  0.35472294349E+03  0.15294330000E+03 0.  1.
<mgrwt>
<rscale>  0 0.20399350E+03</rscale>
<asrwt>0</asrwt>
<pdfrwt beam="1">  1        2 0.10239697E+00 0.20399350E+03</pdfrwt>
<pdfrwt beam="2">  1       -2 0.96280310E-02 0.20399350E+03</pdfrwt>
<totfact> 0.31122648E+03</totfact>
</mgrwt>
</event>
<event>
 4    1  0.4880711E-008  0.4993705E+03  0.7818608E-02  0.1013943E+00
         -2   -1    0    0    0  501 -0.00000000000E+00  0.00000000000E+00  0.88797468574E+03  0.88797468575E+03  0.25500000000E-02 0.  1.
          2   -1    0    0  501    0  0.00000000000E+00 -0.00000000000E+00 -0.37280834529E+03  0.37280834529E+03  0.25500000000E-02 0. -1.
    8880022    1    1    2    0    0  0.40777872055E+03  0.24432712699E+03  0.57070100981E+03  0.75833404613E+03  0.15294330000E+03 0.  0.
    8880022    1    1    2    0    0 -0.40777872055E+03 -0.24432712699E+03 -0.55534669350E+02  0.50244898491E+03  0.15294330000E+03 0.  0.
<mgrwt>
<rscale>  0 0.49937049E+03</rscale>
<asrwt>0</asrwt>
<pdfrwt beam="1">  1        2 0.57355130E-01 0.49937049E+03</pdfrwt>
<pdfrwt beam="2">  1       -2 0.13661149E+00 0.49937049E+03</pdfrwt>
<totfact> 0.34050156E+01</totfact>
</mgrwt>
</event>
<event>
 4    1  0.4880711E-008  0.2512737E+03  0.7818608E-02  0.1112503E+00
          2   -1    0    0  501    0  0.00000000000E+00  0.00000000000E+00  0.42035632946E+03  0.42035632947E+03  0.25500000000E-02 0. -1.
         -2   -1    0    0    0  501 -0.00000000000E+00 -0.00000000000E+00 -0.15063580658E+04  0.15063580659E+04  0.25500000000E-02 0.  1.
    8880022    1    1    2    0    0 -0.19846252440E+03  0.18958491226E+02 -0.14570678872E+04  0.14785754221E+04  0.15294330000E+03 0.  0.
    8880022    1    1    2    0    0  0.19846252440E+03 -0.18958491226E+02  0.37106615083E+03  0.44813897318E+03  0.15294330000E+03 0.  0.
<mgrwt>
<rscale>  0 0.25127366E+03</rscale>
<asrwt>0</asrwt>
<pdfrwt beam="1">  1        2 0.64670205E-01 0.25127366E+03</pdfrwt>
<pdfrwt beam="2">  1       -2 0.23174739E+00 0.25127366E+03</pdfrwt>
<totfact> 0.70787058E+00</totfact>
</mgrwt>
</event>
<event>
 4    1  0.4880711E-008  0.6057736E+03  0.7818608E-02  0.9893500E-01
          2   -1    0    0  501    0  0.00000000000E+00  0.00000000000E+00  0.21642577702E+04  0.21642577702E+04  0.25500000000E-02 0. -1.
         -2   -1    0    0    0  501 -0.00000000000E+00 -0.00000000000E+00 -0.28897997986E+03  0.28897997987E+03  0.25500000000E-02 0.  1.
    8880022    1    1    2    0    0  0.15644743351E+03 -0.56488424395E+03  0.14910100304E+03  0.62385316433E+03  0.15294330000E+03 0.  0.
    8880022    1    1    2    0    0 -0.15644743351E+03  0.56488424395E+03  0.17261767873E+04  0.18293845857E+04  0.15294330000E+03 0. -1.
<mgrwt>
<rscale>  0 0.60577361E+03</rscale>
<asrwt>0</asrwt>
<pdfrwt beam="1">  1        2 0.33296274E+00 0.60577361E+03</pdfrwt>
<pdfrwt beam="2">  1       -2 0.44458458E-01 0.60577361E+03</pdfrwt>
<totfact> 0.27495555E+01</totfact>
</mgrwt>
</event>
<event>
 4    1  0.4880711E-008  0.4951614E+03  0.7818608E-02  0.1015050E+00
          2   -1    0    0  501    0  0.00000000000E+00  0.00000000000E+00  0.13563537868E+04  0.13563537868E+04  0.25500000000E-02 0. -1.
         -2   -1    0    0    0  501 -0.00000000000E+00 -0.00000000000E+00 -0.27429651813E+03  0.27429651815E+03  0.25500000000E-02 0.  1.
    8880022    1    1    2    0    0  0.39928817644E+03 -0.24972400424E+03  0.10171237393E+04  0.11312495216E+04  0.15294330000E+03 0.  0.
    8880022    1    1    2    0    0 -0.39928817644E+03  0.24972400424E+03  0.64933529389E+02  0.49940078333E+03  0.15294330000E+03 0.  0.
<mgrwt>
<rscale>  0 0.49516137E+03</rscale>
<asrwt>0</asrwt>
<pdfrwt beam="1">  1        2 0.20866982E+00 0.49516137E+03</pdfrwt>
<pdfrwt beam="2">  1       -2 0.42199464E-01 0.49516137E+03</pdfrwt>
<totfact> 0.85384676E+01</totfact>
</mgrwt>
</event>
<event>
 4    1  0.4880711E-008  0.5961513E+03  0.7818608E-02  0.9913423E-01
         -2   -1    0    0    0  501 -0.00000000000E+00  0.00000000000E+00  0.66885916868E+03  0.66885916868E+03  0.25500000000E-02 0.  1.
          2   -1    0    0  501    0  0.00000000000E+00 -0.00000000000E+00 -0.11132772199E+04  0.11132772199E+04  0.25500000000E-02 0. -1.
    8880022    1    1    2    0    0  0.57469173147E+03  0.41642349824E+02 -0.86644464031E+03  0.10517236516E+04  0.15294330000E+03 0.  0.
    8880022    1    1    2    0    0 -0.57469173147E+03 -0.41642349824E+02  0.42202658907E+03  0.73041273704E+03  0.15294330000E+03 0.  0.
<mgrwt>
<rscale>  0 0.59615126E+03</rscale>
<asrwt>0</asrwt>
<pdfrwt beam="1">  1        2 0.17127342E+00 0.59615126E+03</pdfrwt>
<pdfrwt beam="2">  1       -2 0.10290141E+00 0.59615126E+03</pdfrwt>
<totfact> 0.17121725E+01</totfact>
</mgrwt>
</event>
<event>
 4    1  0.4880711E-008  0.4216776E+03  0.7818608E-02  0.1036522E+00
         -2   -1    0    0    0  501 -0.00000000000E+00  0.00000000000E+00  0.12074800461E+04  0.12074800461E+04  0.25500000000E-02 0.  1.
          2   -1    0    0  501    0  0.00000000000E+00 -0.00000000000E+00 -0.20570408866E+03  0.20570408867E+03  0.25500000000E-02 0. -1.
    8880022    1    1    2    0    0 -0.17398879506E+03  0.35234675188E+03  0.87752437079E+03  0.97358153676E+03  0.15294330000E+03 0.  0.
    8880022    1    1    2    0    0  0.17398879506E+03 -0.35234675188E+03  0.12425158663E+03  0.43960259800E+03  0.15294330000E+03 0.  0.
<mgrwt>
<rscale>  0 0.42167759E+03</rscale>
<asrwt>0</asrwt>
<pdfrwt beam="1">  1        2 0.31646783E-01 0.42167759E+03</pdfrwt>
<pdfrwt beam="2">  1       -2 0.18576616E+00 0.42167759E+03</pdfrwt>
<totfact> 0.28995900E+01</totfact>
</mgrwt>
</event>
<event>
 4    1  0.4880711E-008  0.1796572E+03  0.7818608E-02  0.1168135E+00
          2   -1    0    0  501    0  0.00000000000E+00  0.00000000000E+00  0.19970485524E+04  0.19970485524E+04  0.25500000000E-02 0. -1.
         -2   -1    0    0    0  501 -0.00000000000E+00 -0.00000000000E+00 -0.44460468365E+02  0.44460468438E+02  0.25500000000E-02 0.  1.
    8880022    1    1    2    0    0  0.28000582231E+01 -0.94218890242E+02  0.16193815068E+03  0.24186909117E+03  0.15294330000E+03 0.  0.
    8880022    1    1    2    0    0 -0.28000582231E+01  0.94218890242E+02  0.17906499333E+04  0.17996399296E+04  0.15294330000E+03 0.  0.
<mgrwt>
<rscale>  0 0.17965715E+03</rscale>
<asrwt>0</asrwt>
<pdfrwt beam="1">  1        2 0.30723824E+00 0.17965715E+03</pdfrwt>
<pdfrwt beam="2">  1       -2 0.68400720E-02 0.17965715E+03</pdfrwt>
<totfact> 0.91355274E+02</totfact>
</mgrwt>
</event>
<event>
 4    1  0.4880711E-008  0.1728134E+03  0.7818608E-02  0.1174945E+00
          2   -1    0    0  501    0  0.00000000000E+00  0.00000000000E+00  0.18392026150E+04  0.18392026150E+04  0.25500000000E-02 0. -1.
         -2   -1    0    0    0  501 -0.00000000000E+00 -0.00000000000E+00 -0.53370064033E+02  0.53370064094E+02  0.25500000000E-02 0.  1.
    8880022    1    1    2    0    0  0.36901228034E+02  0.71492115680E+02  0.10360223046E+03  0.20148920171E+03  0.15294330000E+03 0.  1.
    8880022    1    1    2    0    0 -0.36901228034E+02 -0.71492115680E+02  0.16822303205E+04  0.16910834774E+04  0.15294330000E+03 0.  0.
<mgrwt>
<rscale>  0 0.17281341E+03</rscale>
<asrwt>0</asrwt>
<pdfrwt beam="1">  1        2 0.28295421E+00 0.17281341E+03</pdfrwt>
<pdfrwt beam="2">  1       -2 0.82107803E-02 0.17281341E+03</pdfrwt>
<totfact> 0.83189784E+02</totfact>
</mgrwt>
</event>
<event>
 4    1  0.4880711E-008  0.5456555E+03  0.7818608E-02  0.1002505E+00
         -2   -1    0    0    0  501 -0.00000000000E+00  0.00000000000E+00  0.12812100125E+04  0.12812100125E+04  0.25500000000E-02 0.  1.
          2   -1    0    0  501    0  0.00000000000E+00 -0.00000000000E+00 -0.78172304506E+03  0.78172304506E+03  0.25500000000E-02 0. -1.
    8880022    1    1    2    0    0  0.28053630712E+03  0.44232077720E+03  0.11144061027E+04  0.12408226724E+04  0.15294330000E+03 0.  0.
    8880022    1    1    2    0    0 -0.28053630712E+03 -0.44232077720E+03 -0.61491913523E+03  0.82211038520E+03  0.15294330000E+03 0.  0.
<mgrwt>
<rscale>  0 0.54565552E+03</rscale>
<asrwt>0</asrwt>
<pdfrwt beam="1">  1        2 0.12026508E+00 0.54565552E+03</pdfrwt>
<pdfrwt beam="2">  1       -2 0.19710923E+00 0.54565552E+03</pdfrwt>
<totfact> 0.52026848E+00</totfact>
</mgrwt>
</event>
<event>
 4    1  0.4880711E-008  0.8287728E+03  0.7818608E-02  0.9519279E-01
          2   -1    0    0  501    0  0.00000000000E+00  0.00000000000E+00  0.10973776138E+04  0.10973776138E+04  0.25500000000E-02 0. -1.
         -2   -1    0    0    0  501 -0.00000000000E+00 -0.00000000000E+00 -0.96197498675E+03  0.96197498675E+03  0.25500000000E-02 0.  1.
    8880022    1    1    2    0    0 -0.61797952343E+03  0.53063541653E+03 -0.54089275101E+03  0.98966118332E+03  0.15294330000E+03 0.  0.
    8880022    1    1    2    0    0  0.61797952343E+03 -0.53063541653E+03  0.67629537802E+03  0.10696914172E+04  0.15294330000E+03 0.  0.
<mgrwt>
<rscale>  0 0.82877276E+03</rscale>
<asrwt>0</asrwt>
<pdfrwt beam="1">  1        2 0.16882733E+00 0.82877276E+03</pdfrwt>
<pdfrwt beam="2">  1       -2 0.14799615E+00 0.82877276E+03</pdfrwt>
<totfact> 0.68552219E+00</totfact>
</mgrwt>
</event>
<event>
 4    1  0.4880711E-008  0.3602478E+03  0.7818608E-02  0.1058486E+00
          2   -1    0    0  501    0  0.00000000000E+00  0.00000000000E+00  0.19739939696E+03  0.19739939697E+03  0.25500000000E-02 0. -1.
         -2   -1    0    0    0  501 -0.00000000000E+00 -0.00000000000E+00 -0.12467554421E+04  0.12467554421E+04  0.25500000000E-02 0.  1.
    8880022    1    1    2    0    0  0.69496568057E+02  0.31868021857E+03 -0.28238241658E+02  0.36135288291E+03  0.15294330000E+03 0.  0.
    8880022    1    1    2    0    0 -0.69496568057E+02 -0.31868021857E+03 -0.10211178035E+04  0.10828019562E+04  0.15294330000E+03 0.  0.
<mgrwt>
<rscale>  0 0.36024784E+03</rscale>
<asrwt>0</asrwt>
<pdfrwt beam="1">  1        2 0.30369139E-01 0.36024784E+03</pdfrwt>
<pdfrwt beam="2">  1       -2 0.19180852E+00 0.36024784E+03</pdfrwt>
<totfact> 0.27924617E+01</totfact>
</mgrwt>
</event>
<event>
 4    1  0.4880711E-008  0.8384951E+03  0.7818608E-02  0.9505910E-01
         -2   -1    0    0    0  501 -0.00000000000E+00  0.00000000000E+00  0.59792605572E+03  0.59792605572E+03  0.25500000000E-02 0.  1.
          2   -1    0    0  501    0  0.00000000000E+00 -0.00000000000E+00 -0.20295798579E+04  0.20295798579E+04  0.25500000000E-02 0. -1.
    8880022    1    1    2    0    0 -0.71351910610E+03 -0.41300464948E+03 -0.15678860421E+04  0.17780159305E+04  0.15294330000E+03 0.  0.
    8880022    1    1    2    0    0  0.71351910610E+03  0.41300464948E+03  0.13623223984E+03  0.84948998314E+03  0.15294330000E+03 0.  0.
<mgrwt>
<rscale>  0 0.83849509E+03</rscale>
<asrwt>0</asrwt>
<pdfrwt beam="1">  1        2 0.31224305E+00 0.83849509E+03</pdfrwt>
<pdfrwt beam="2">  1       -2 0.91988625E-01 0.83849509E+03</pdfrwt>
<totfact> 0.66096503E+00</totfact>
</mgrwt>
</event>
<event>
 4    1  0.4880711E-008  0.6947201E+03  0.7818608E-02  0.9726304E-01
         -2   -1    0    0    0  501 -0.00000000000E+00  0.00000000000E+00  0.65940451437E+03  0.65940451437E+03  0.25500000000E-02 0.  1.
          2   -1    0    0  501    0  0.00000000000E+00 -0.00000000000E+00 -0.93226688557E+03  0.93226688557E+03  0.25500000000E-02 0. -1.
    8880022    1    1    2    0    0 -0.55302154531E+03 -0.39167788699E+03 -0.50535514776E+03  0.85908083154E+03  0.15294330000E+03 0.  0.
    8880022    1    1    2    0    0  0.55302154531E+03  0.39167788699E+03  0.23249277656E+03  0.73259056840E+03  0.15294330000E+03 0.  0.
<mgrwt>
<rscale>  0 0.69472012E+03</rscale>
<asrwt>0</asrwt>
<pdfrwt beam="1">  1        2 0.14342567E+00 0.69472012E+03</pdfrwt>
<pdfrwt beam="2">  1       -2 0.10144685E+00 0.69472012E+03</pdfrwt>
<totfact> 0.22745036E+01</totfact>
</mgrwt>
</event>
<event>
 4    1  0.4880711E-008  0.9240827E+03  0.7818608E-02  0.9395968E-01
         -2   -1    0    0    0  501 -0.00000000000E+00  0.00000000000E+00  0.46627488703E+03  0.46627488703E+03  0.25500000000E-02 0.  1.
          2   -1    0    0  501    0  0.00000000000E+00 -0.00000000000E+00 -0.27288075089E+04  0.27288075089E+04  0.25500000000E-02 0. -1.
    8880022    1    1    2    0    0 -0.53711179175E+03 -0.73623919612E+03 -0.20474110020E+04  0.22462904298E+04  0.15294330000E+03 0.  0.
    8880022    1    1    2    0    0  0.53711179175E+03  0.73623919612E+03 -0.21512161989E+03  0.94879196618E+03  0.15294330000E+03 0.  0.
<mgrwt>
<rscale>  0 0.92408273E+03</rscale>
<asrwt>0</asrwt>
<pdfrwt beam="1">  1        2 0.41981653E+00 0.92408273E+03</pdfrwt>
<pdfrwt beam="2">  1       -2 0.71734600E-01 0.92408273E+03</pdfrwt>
<totfact> 0.46170779E+00</totfact>
</mgrwt>
</event>
<event>
 4    1  0.4880711E-008  0.4492148E+03  0.7818608E-02  0.1027956E+00
          2   -1    0    0  501    0  0.00000000000E+00  0.00000000000E+00  0.10109585098E+04  0.10109585098E+04  0.25500000000E-02 0. -1.
         -2   -1    0    0    0  501 -0.00000000000E+00 -0.00000000000E+00 -0.35410932204E+03  0.35410932205E+03  0.25500000000E-02 0.  1.
    8880022    1    1    2    0    0  0.66938710093E+02  0.41703900033E+03 -0.12241666232E+03  0.46559618870E+03  0.15294330000E+03 0.  0.
    8880022    1    1    2    0    0 -0.66938710093E+02 -0.41703900033E+03  0.77926585006E+03  0.89947164313E+03  0.15294330000E+03 0.  0.
<mgrwt>
<rscale>  0 0.44921484E+03</rscale>
<asrwt>0</asrwt>
<pdfrwt beam="1">  1        2 0.15553208E+00 0.44921484E+03</pdfrwt>
<pdfrwt beam="2">  1       -2 0.54478358E-01 0.44921484E+03</pdfrwt>
<totfact> 0.82151871E+01</totfact>
</mgrwt>
</event>
<event>
 4    1  0.4880711E-008  0.2741229E+03  0.7818608E-02  0.1098943E+00
          2   -1    0    0  501    0  0.00000000000E+00  0.00000000000E+00  0.93380568597E+03  0.93380568598E+03  0.25500000000E-02 0. -1.
         -2   -1    0    0    0  501 -0.00000000000E+00 -0.00000000000E+00 -0.27045570982E+03  0.27045570983E+03  0.25500000000E-02 0.  1.
    8880022    1    1    2    0    0  0.22414792661E+03  0.38851083174E+02  0.83633994422E+03  0.88011809149E+03  0.15294330000E+03 0.  0.
    8880022    1    1    2    0    0 -0.22414792661E+03 -0.38851083174E+02 -0.17298996806E+03  0.32414330431E+03  0.15294330000E+03 0.  0.
<mgrwt>
<rscale>  0 0.27412288E+03</rscale>
<asrwt>0</asrwt>
<pdfrwt beam="1">  1        2 0.14366241E+00 0.27412288E+03</pdfrwt>
<pdfrwt beam="2">  1       -2 0.41608570E-01 0.27412288E+03</pdfrwt>
<totfact> 0.16118431E+02</totfact>
</mgrwt>
</event>
<event>
 4    1  0.4880711E-008  0.6818465E+03  0.7818608E-02  0.9748791E-01
         -2   -1    0    0    0  501 -0.00000000000E+00  0.00000000000E+00  0.34205031782E+03  0.34205031783E+03  0.25500000000E-02 0.  1.
          2   -1    0    0  501    0  0.00000000000E+00 -0.00000000000E+00 -0.15954023621E+04  0.15954023621E+04  0.25500000000E-02 0. -1.
    8880022    1    1    2    0    0 -0.92375810855E+00  0.66447133314E+03 -0.25393390384E+03  0.72759678836E+03  0.15294330000E+03 0.  0.
    8880022    1    1    2    0    0  0.92375810855E+00 -0.66447133314E+03 -0.99941814039E+03  0.12098558915E+04  0.15294330000E+03 0.  0.
<mgrwt>
<rscale>  0 0.68184651E+03</rscale>
<asrwt>0</asrwt>
<pdfrwt beam="1">  1        2 0.24544651E+00 0.68184651E+03</pdfrwt>
<pdfrwt beam="2">  1       -2 0.52623127E-01 0.68184651E+03</pdfrwt>
<totfact> 0.39458548E+01</totfact>
</mgrwt>
</event>
<event>
 4    1  0.4880711E-008  0.2784299E+03  0.7818608E-02  0.1096550E+00
         -2   -1    0    0    0  501 -0.00000000000E+00  0.00000000000E+00  0.23267783103E+03  0.23267783104E+03  0.25500000000E-02 0.  1.
          2   -1    0    0  501    0  0.00000000000E+00 -0.00000000000E+00 -0.49212773840E+03  0.49212773841E+03  0.25500000000E-02 0. -1.
    8880022    1    1    2    0    0 -0.17880434704E+03 -0.14886425804E+03 -0.33568455396E+03  0.43612765863E+03  0.15294330000E+03 0.  0.
    8880022    1    1    2    0    0  0.17880434704E+03  0.14886425804E+03  0.76234646585E+02  0.28867791082E+03  0.15294330000E+03 0.  0.
<mgrwt>
<rscale>  0 0.27842991E+03</rscale>
<asrwt>0</asrwt>
<pdfrwt beam="1">  1        2 0.75711959E-01 0.27842991E+03</pdfrwt>
<pdfrwt beam="2">  1       -2 0.35796590E-01 0.27842991E+03</pdfrwt>
<totfact> 0.46912601E+02</totfact>
</mgrwt>
</event>
<event>
 4    1  0.4880711E-008  0.2925471E+03  0.7818608E-02  0.1089027E+00
         -2   -1    0    0    0  501 -0.00000000000E+00  0.00000000000E+00  0.91221373283E+02  0.91221373319E+02  0.25500000000E-02 0.  1.
          2   -1    0    0  501    0  0.00000000000E+00 -0.00000000000E+00 -0.11772641295E+04  0.11772641295E+04  0.25500000000E-02 0. -1.
    8880022    1    1    2    0    0  0.17525162641E+03  0.17742328106E+03 -0.82883085401E+03  0.87894504424E+03  0.15294330000E+03 0.  0.
    8880022    1    1    2    0    0 -0.17525162641E+03 -0.17742328106E+03 -0.25721190222E+03  0.38954045860E+03  0.15294330000E+03 0.  0.
<mgrwt>
<rscale>  0 0.29254710E+03</rscale>
<asrwt>0</asrwt>
<pdfrwt beam="1">  1        2 0.18111755E+00 0.29254710E+03</pdfrwt>
<pdfrwt beam="2">  1       -2 0.14034058E-01 0.29254710E+03</pdfrwt>
<totfact> 0.78837280E+02</totfact>
</mgrwt>
</event>
<event>
 4    1  0.4880711E-008  0.7958346E+03  0.7818608E-02  0.9566066E-01
         -2   -1    0    0    0  501 -0.00000000000E+00  0.00000000000E+00  0.84692848220E+03  0.84692848220E+03  0.25500000000E-02 0.  1.
          2   -1    0    0  501    0  0.00000000000E+00 -0.00000000000E+00 -0.11500799162E+04  0.11500799162E+04  0.25500000000E-02 0. -1.
    8880022    1    1    2    0    0  0.26324264326E+03 -0.73529883350E+03  0.43894830679E+03  0.90886100853E+03  0.15294330000E+03 0.  0.
    8880022    1    1    2    0    0 -0.26324264326E+03  0.73529883350E+03 -0.74209974077E+03  0.10881473899E+04  0.15294330000E+03 0.  0.
<mgrwt>
<rscale>  0 0.79583460E+03</rscale>
<asrwt>0</asrwt>
<pdfrwt beam="1">  1        2 0.17693537E+00 0.79583460E+03</pdfrwt>
<pdfrwt beam="2">  1       -2 0.13029669E+00 0.79583460E+03</pdfrwt>
<totfact> 0.88856542E+00</totfact>
</mgrwt>
</event>
<event>
 4    1  0.4880711E-008  0.6659306E+03  0.7818608E-02  0.9777337E-01
          2   -1    0    0  501    0  0.00000000000E+00  0.00000000000E+00  0.48759608684E+03  0.48759608684E+03  0.25500000000E-02 0. -1.
         -2   -1    0    0    0  501 -0.00000000000E+00 -0.00000000000E+00 -0.12231034142E+04  0.12231034142E+04  0.25500000000E-02 0.  1.
    8880022    1    1    2    0    0 -0.62593364315E+03  0.16816342550E+03  0.65367905868E+02  0.66913113769E+03  0.15294330000E+03 0.  0.
    8880022    1    1    2    0    0  0.62593364315E+03 -0.16816342550E+03 -0.80087523320E+03  0.10415683633E+04  0.15294330000E+03 0.  0.
<mgrwt>
<rscale>  0 0.66593056E+03</rscale>
<asrwt>0</asrwt>
<pdfrwt beam="1">  1        2 0.75014783E-01 0.66593056E+03</pdfrwt>
<pdfrwt beam="2">  1       -2 0.18816975E+00 0.66593056E+03</pdfrwt>
<totfact> 0.10384140E+01</totfact>
</mgrwt>
</event>
<event>
 4    1  0.4880711E-008  0.8269127E+03  0.7818608E-02  0.9521859E-01
          2   -1    0    0  501    0  0.00000000000E+00  0.00000000000E+00  0.51715604428E+03  0.51715604428E+03  0.25500000000E-02 0. -1.
         -2   -1    0    0    0  501 -0.00000000000E+00 -0.00000000000E+00 -0.24886026023E+04  0.24886026023E+04  0.25500000000E-02 0.  1.
    8880022    1    1    2    0    0  0.63910263910E+03 -0.50193704751E+03 -0.20146163555E+04  0.21777198387E+04  0.15294330000E+03 0.  0.
    8880022    1    1    2    0    0 -0.63910263910E+03  0.50193704751E+03  0.43169797460E+02  0.82803880791E+03  0.15294330000E+03 0.  0.
<mgrwt>
<rscale>  0 0.82691271E+03</rscale>
<asrwt>0</asrwt>
<pdfrwt beam="1">  1        2 0.79562470E-01 0.82691271E+03</pdfrwt>
<pdfrwt beam="2">  1       -2 0.38286193E+00 0.82691271E+03</pdfrwt>
<totfact> 0.59435115E-01</totfact>
</mgrwt>
</event>
<event>
 4    1  0.4880711E-008  0.1027090E+04  0.7818608E-02  0.9279322E-01
          2   -1    0    0  501    0  0.00000000000E+00  0.00000000000E+00  0.26321860881E+04  0.26321860881E+04  0.25500000000E-02 0. -1.
         -2   -1    0    0    0  501 -0.00000000000E+00 -0.00000000000E+00 -0.52907279906E+03  0.52907279907E+03  0.25500000000E-02 0.  1.
    8880022    1    1    2    0    0  0.47342867608E+03 -0.89854698667E+03  0.27319252568E+03  0.10628015843E+04  0.15294330000E+03 0.  0.
    8880022    1    1    2    0    0 -0.47342867608E+03  0.89854698667E+03  0.18299207634E+04  0.20984573028E+04  0.15294330000E+03 0.  0.
<mgrwt>
<rscale>  0 0.10270896E+04</rscale>
<asrwt>0</asrwt>
<pdfrwt beam="1">  1        2 0.40495171E+00 0.10270896E+04</pdfrwt>
<pdfrwt beam="2">  1       -2 0.81395814E-01 0.10270896E+04</pdfrwt>
<totfact> 0.39078111E+00</totfact>
</mgrwt>
</event>
<event>
 4    1  0.4880711E-008  0.4418109E+03  0.7818608E-02  0.1030193E+00
         -2   -1    0    0    0  501 -0.00000000000E+00  0.00000000000E+00  0.12659619092E+04  0.12659619092E+04  0.25500000000E-02 0.  1.
          2   -1    0    0  501    0  0.00000000000E+00 -0.00000000000E+00 -0.81843432881E+03  0.81843432881E+03  0.25500000000E-02 0. -1.
    8880022    1    1    2    0    0 -0.11857834202E+03  0.39717051640E+03  0.11626711673E+04  0.12437850049E+04  0.15294330000E+03 0.  0.
    8880022    1    1    2    0    0  0.11857834202E+03 -0.39717051640E+03 -0.71514358688E+03  0.84061123307E+03  0.15294330000E+03 0.  0.
<mgrwt>
<rscale>  0 0.44181093E+03</rscale>
<asrwt>0</asrwt>
<pdfrwt beam="1">  1        2 0.12591297E+00 0.44181093E+03</pdfrwt>
<pdfrwt beam="2">  1       -2 0.19476337E+00 0.44181093E+03</pdfrwt>
<totfact> 0.51840575E+00</totfact>
</mgrwt>
</event>
<event>
 4    1  0.4880711E-008  0.7084172E+03  0.7818608E-02  0.9702945E-01
          2   -1    0    0  501    0  0.00000000000E+00  0.00000000000E+00  0.18230735319E+04  0.18230735319E+04  0.25500000000E-02 0. -1.
         -2   -1    0    0    0  501 -0.00000000000E+00 -0.00000000000E+00 -0.29250754318E+03  0.29250754319E+03  0.25500000000E-02 0.  1.
    8880022    1    1    2    0    0  0.15197396272E+03  0.67480904022E+03  0.10219958838E+04  0.12435154063E+04  0.15294330000E+03 0.  0.
    8880022    1    1    2    0    0 -0.15197396272E+03 -0.67480904022E+03  0.50857010488E+03  0.87206566880E+03  0.15294330000E+03 0.  0.
<mgrwt>
<rscale>  0 0.70841724E+03</rscale>
<asrwt>0</asrwt>
<pdfrwt beam="1">  1        2 0.28047285E+00 0.70841724E+03</pdfrwt>
<pdfrwt beam="2">  1       -2 0.45001161E-01 0.70841724E+03</pdfrwt>
<totfact> 0.40531882E+01</totfact>
</mgrwt>
</event>
<event>
 4    1  0.4880711E-008  0.1089179E+04  0.7818608E-02  0.9215804E-01
         -2   -1    0    0    0  501 -0.00000000000E+00  0.00000000000E+00  0.10282993854E+04  0.10282993854E+04  0.25500000000E-02 0.  1.
          2   -1    0    0  501    0  0.00000000000E+00 -0.00000000000E+00 -0.21089078837E+04  0.21089078837E+04  0.25500000000E-02 0. -1.
    8880022    1    1    2    0    0 -0.70266828183E+01  0.10783640571E+04  0.51539926692E+03  0.12049674150E+04  0.15294330000E+03 0.  0.
    8880022    1    1    2    0    0  0.70266828183E+01 -0.10783640571E+04 -0.15960077653E+04  0.19322398541E+04  0.15294330000E+03 0.  0.
<mgrwt>
<rscale>  0 0.10891786E+04</rscale>
<asrwt>0</asrwt>
<pdfrwt beam="1">  1        2 0.32444737E+00 0.10891786E+04</pdfrwt>
<pdfrwt beam="2">  1       -2 0.15819991E+00 0.10891786E+04</pdfrwt>
<totfact> 0.14892655E+00</totfact>
</mgrwt>
</event>
<event>
 4    1  0.4880711E-008  0.1597329E+04  0.7818608E-02  0.8822190E-01
          2   -1    0    0  501    0  0.00000000000E+00  0.00000000000E+00  0.26848358307E+04  0.26848358307E+04  0.25500000000E-02 0. -1.
         -2   -1    0    0    0  501 -0.00000000000E+00 -0.00000000000E+00 -0.10824481101E+04  0.10824481101E+04  0.25500000000E-02 0.  1.
    8880022    1    1    2    0    0  0.12103667355E+04  0.10310585187E+04  0.14592874656E+04  0.21635574556E+04  0.15294330000E+03 0.  0.
    8880022    1    1    2    0    0 -0.12103667355E+04 -0.10310585187E+04  0.14310025503E+03  0.16037264852E+04  0.15294330000E+03 0.  0.
<mgrwt>
<rscale>  0 0.15973293E+04</rscale>
<asrwt>0</asrwt>
<pdfrwt beam="1">  1        2 0.41305166E+00 0.15973293E+04</pdfrwt>
<pdfrwt beam="2">  1       -2 0.16653048E+00 0.15973293E+04</pdfrwt>
<totfact> 0.57147512E-01</totfact>
</mgrwt>
</event>
<event>
 4    1  0.4880711E-008  0.1118011E+04  0.7818608E-02  0.9187813E-01
          2   -1    0    0  501    0  0.00000000000E+00  0.00000000000E+00  0.13314075611E+04  0.13314075611E+04  0.25500000000E-02 0. -1.
         -2   -1    0    0    0  501 -0.00000000000E+00 -0.00000000000E+00 -0.23769420589E+04  0.23769420590E+04  0.25500000000E-02 0.  1.
    8880022    1    1    2    0    0  0.10160528671E+03  0.11028295029E+04 -0.19650143981E+04  0.22608029070E+04  0.15294330000E+03 0.  0.
    8880022    1    1    2    0    0 -0.10160528671E+03 -0.11028295029E+04  0.91947990025E+03  0.14475467131E+04  0.15294330000E+03 0.  0.
<mgrwt>
<rscale>  0 0.11180108E+04</rscale>
<asrwt>0</asrwt>
<pdfrwt beam="1">  1        2 0.20483193E+00 0.11180108E+04</pdfrwt>
<pdfrwt beam="2">  1       -2 0.36568339E+00 0.11180108E+04</pdfrwt>
<totfact> 0.19494662E-01</totfact>
</mgrwt>
</event>
<event>
 4    1  0.4880711E-008  0.3158110E+03  0.7818608E-02  0.1077594E+00
         -2   -1    0    0    0  501 -0.00000000000E+00  0.00000000000E+00  0.35357735994E+03  0.35357735995E+03  0.25500000000E-02 0.  1.
          2   -1    0    0  501    0  0.00000000000E+00 -0.00000000000E+00 -0.31825225863E+03  0.31825225865E+03  0.25500000000E-02 0. -1.
    8880022    1    1    2    0    0  0.16520675623E+03 -0.22147603612E+03  0.13091312570E+03  0.34186957510E+03  0.15294330000E+03 0.  0.
    8880022    1    1    2    0    0 -0.16520675623E+03  0.22147603612E+03 -0.95588024395E+02  0.32996004350E+03  0.15294330000E+03 0.  1.
<mgrwt>
<rscale>  0 0.31581096E+03</rscale>
<asrwt>0</asrwt>
<pdfrwt beam="1">  1        2 0.48961886E-01 0.31581096E+03</pdfrwt>
<pdfrwt beam="2">  1       -2 0.54396517E-01 0.31581096E+03</pdfrwt>
<totfact> 0.33345076E+02</totfact>
</mgrwt>
</event>
<event>
 4    1  0.4880711E-008  0.4331978E+03  0.7818608E-02  0.1032855E+00
         -2   -1    0    0    0  501 -0.00000000000E+00  0.00000000000E+00  0.78023233660E+03  0.78023233660E+03  0.25500000000E-02 0.  1.
          2   -1    0    0  501    0  0.00000000000E+00 -0.00000000000E+00 -0.99378358421E+03  0.99378358421E+03  0.25500000000E-02 0. -1.
    8880022    1    1    2    0    0  0.37360691694E+03  0.15711955058E+03  0.66547011060E+03  0.79404710357E+03  0.15294330000E+03 0.  0.
    8880022    1    1    2    0    0 -0.37360691694E+03 -0.15711955058E+03 -0.87902135821E+03  0.97996881725E+03  0.15294330000E+03 0.  0.
<mgrwt>
<rscale>  0 0.43319780E+03</rscale>
<asrwt>0</asrwt>
<pdfrwt beam="1">  1        2 0.15288978E+00 0.43319780E+03</pdfrwt>
<pdfrwt beam="2">  1       -2 0.12003574E+00 0.43319780E+03</pdfrwt>
<totfact> 0.14368771E+01</totfact>
</mgrwt>
</event>
<event>
 4    1  0.4880711E-008  0.2579095E+03  0.7818608E-02  0.1108406E+00
          2   -1    0    0  501    0  0.00000000000E+00  0.00000000000E+00  0.55277747126E+03  0.55277747127E+03  0.25500000000E-02 0. -1.
         -2   -1    0    0    0  501 -0.00000000000E+00 -0.00000000000E+00 -0.53890677255E+03  0.53890677255E+03  0.25500000000E-02 0.  1.
    8880022    1    1    2    0    0 -0.19342649630E+03 -0.75576742569E+02  0.48799207727E+03  0.55195432237E+03  0.15294330000E+03 0. -1.
    8880022    1    1    2    0    0  0.19342649630E+03  0.75576742569E+02 -0.47412137856E+03  0.53972992145E+03  0.15294330000E+03 0.  0.
<mgrwt>
<rscale>  0 0.25790949E+03</rscale>
<asrwt>0</asrwt>
<pdfrwt beam="1">  1        2 0.85042688E-01 0.25790949E+03</pdfrwt>
<pdfrwt beam="2">  1       -2 0.82908734E-01 0.25790949E+03</pdfrwt>
<totfact> 0.74075418E+01</totfact>
</mgrwt>
</event>
<event>
 4    1  0.4880711E-008  0.3364787E+03  0.7818608E-02  0.1068306E+00
         -2   -1    0    0    0  501 -0.00000000000E+00  0.00000000000E+00  0.95613066773E+02  0.95613066807E+02  0.25500000000E-02 0.  1.
          2   -1    0    0  501    0  0.00000000000E+00 -0.00000000000E+00 -0.14212262538E+04  0.14212262538E+04  0.25500000000E-02 0. -1.
    8880022    1    1    2    0    0  0.18417990351E+03  0.23644030108E+03 -0.35303320896E+03  0.48769903883E+03  0.15294330000E+03 0.  0.
    8880022    1    1    2    0    0 -0.18417990351E+03 -0.23644030108E+03 -0.97257997804E+03  0.10291402818E+04  0.15294330000E+03 0.  0.
<mgrwt>
<rscale>  0 0.33647869E+03</rscale>
<asrwt>0</asrwt>
<pdfrwt beam="1">  1        2 0.21865018E+00 0.33647869E+03</pdfrwt>
<pdfrwt beam="2">  1       -2 0.14709704E-01 0.33647869E+03</pdfrwt>
<totfact> 0.53055236E+02</totfact>
</mgrwt>
</event>
<event>
 4    1  0.4880711E-008  0.5202837E+03  0.7818608E-02  0.1008616E+00
          2   -1    0    0  501    0  0.00000000000E+00  0.00000000000E+00  0.18678718164E+04  0.18678718164E+04  0.25500000000E-02 0. -1.
         -2   -1    0    0    0  501 -0.00000000000E+00 -0.00000000000E+00 -0.16476793045E+03  0.16476793047E+03  0.25500000000E-02 0.  1.
    8880022    1    1    2    0    0 -0.23354105785E+03 -0.43904679544E+03  0.49882954276E+03  0.72078157582E+03  0.15294330000E+03 0.  0.
    8880022    1    1    2    0    0  0.23354105785E+03  0.43904679544E+03  0.12042743431E+04  0.13118581710E+04  0.15294330000E+03 0. -1.
<mgrwt>
<rscale>  0 0.52028374E+03</rscale>
<asrwt>0</asrwt>
<pdfrwt beam="1">  1        2 0.28736489E+00 0.52028374E+03</pdfrwt>
<pdfrwt beam="2">  1       -2 0.25348913E-01 0.52028374E+03</pdfrwt>
<totfact> 0.11625886E+02</totfact>
</mgrwt>
</event>
<event>
 4    1  0.4880711E-008  0.8460019E+03  0.7818608E-02  0.9495719E-01
          2   -1    0    0  501    0  0.00000000000E+00  0.00000000000E+00  0.16810681659E+04  0.16810681659E+04  0.25500000000E-02 0. -1.
         -2   -1    0    0    0  501 -0.00000000000E+00 -0.00000000000E+00 -0.67262922179E+03  0.67262922180E+03  0.25500000000E-02 0.  1.
    8880022    1    1    2    0    0  0.45954918507E+03  0.69364411134E+03  0.12171918190E+04  0.14823208776E+04  0.15294330000E+03 0.  0.
    8880022    1    1    2    0    0 -0.45954918507E+03 -0.69364411134E+03 -0.20875287489E+03  0.87137651017E+03  0.15294330000E+03 0.  0.
<mgrwt>
<rscale>  0 0.84600193E+03</rscale>
<asrwt>0</asrwt>
<pdfrwt beam="1">  1        2 0.25862587E+00 0.84600193E+03</pdfrwt>
<pdfrwt beam="2">  1       -2 0.10348142E+00 0.84600193E+03</pdfrwt>
<totfact> 0.77631538E+00</totfact>
</mgrwt>
</event>
<event>
 4    1  0.4880711E-008  0.2652785E+03  0.7818608E-02  0.1104013E+00
         -2   -1    0    0    0  501 -0.00000000000E+00  0.00000000000E+00  0.16994728894E+04  0.16994728894E+04  0.25500000000E-02 0.  1.
          2   -1    0    0  501    0  0.00000000000E+00 -0.00000000000E+00 -0.12839980408E+04  0.12839980408E+04  0.25500000000E-02 0. -1.
    8880022    1    1    2    0    0 -0.21627424449E+03  0.14369258541E+02 -0.12597469165E+04  0.12873752255E+04  0.15294330000E+03 0.  0.
    8880022    1    1    2    0    0  0.21627424449E+03 -0.14369258541E+02  0.16752217651E+04  0.16960957047E+04  0.15294330000E+03 0.  1.
<mgrwt>
<rscale>  0 0.26527849E+03</rscale>
<asrwt>0</asrwt>
<pdfrwt beam="1">  1        2 0.19753816E+00 0.26527849E+03</pdfrwt>
<pdfrwt beam="2">  1       -2 0.26145737E+00 0.26527849E+03</pdfrwt>
<totfact> 0.11236505E+00</totfact>
</mgrwt>
</event>
<event>
 4    1  0.4880711E-008  0.1168875E+04  0.7818608E-02  0.9140545E-01
         -2   -1    0    0    0  501 -0.00000000000E+00  0.00000000000E+00  0.68440470409E+03  0.68440470409E+03  0.25500000000E-02 0.  1.
          2   -1    0    0  501    0  0.00000000000E+00 -0.00000000000E+00 -0.28633986867E+04  0.28633986867E+04  0.25500000000E-02 0. -1.
    8880022    1    1    2    0    0 -0.77967588180E+03 -0.85731095327E+03 -0.11332540755E+03  0.11743555051E+04  0.15294330000E+03 0.  0.
    8880022    1    1    2    0    0  0.77967588180E+03  0.85731095327E+03 -0.20656685751E+04  0.23734478857E+04  0.15294330000E+03 0.  0.
<mgrwt>
<rscale>  0 0.11688748E+04</rscale>
<asrwt>0</asrwt>
<pdfrwt beam="1">  1        2 0.44052287E+00 0.11688748E+04</pdfrwt>
<pdfrwt beam="2">  1       -2 0.10529303E+00 0.11688748E+04</pdfrwt>
<totfact> 0.15319548E+00</totfact>
</mgrwt>
</event>
<event>
 4    1  0.4880711E-008  0.3501759E+03  0.7818608E-02  0.1062543E+00
          2   -1    0    0  501    0  0.00000000000E+00  0.00000000000E+00  0.84615315851E+03  0.84615315851E+03  0.25500000000E-02 0. -1.
         -2   -1    0    0    0  501 -0.00000000000E+00 -0.00000000000E+00 -0.24955296817E+03  0.24955296818E+03  0.25500000000E-02 0.  1.
    8880022    1    1    2    0    0 -0.28271661430E+03  0.13893465881E+03  0.65304836172E+03  0.74100967550E+03  0.15294330000E+03 0.  0.
    8880022    1    1    2    0    0  0.28271661430E+03 -0.13893465881E+03 -0.56448171378E+02  0.35469645119E+03  0.15294330000E+03 0.  0.
<mgrwt>
<rscale>  0 0.35017592E+03</rscale>
<asrwt>0</asrwt>
<pdfrwt beam="1">  1        2 0.13017741E+00 0.35017592E+03</pdfrwt>
<pdfrwt beam="2">  1       -2 0.38392764E-01 0.35017592E+03</pdfrwt>
<totfact> 0.21268422E+02</totfact>
</mgrwt>
</event>
<event>
 4    1  0.4880711E-008  0.1003178E+04  0.7818608E-02  0.9305066E-01
         -2   -1    0    0    0  501 -0.00000000000E+00  0.00000000000E+00  0.63353942400E+03  0.63353942400E+03  0.25500000000E-02 0.  1.
          2   -1    0    0  501    0  0.00000000000E+00 -0.00000000000E+00 -0.22819800459E+04  0.22819800459E+04  0.25500000000E-02 0. -1.
    8880022    1    1    2    0    0 -0.22773783446E+03  0.96494047760E+03 -0.20597070883E+02  0.10033895250E+04  0.15294330000E+03 0.  0.
    8880022    1    1    2    0    0  0.22773783446E+03 -0.96494047760E+03 -0.16278435510E+04  0.19121299449E+04  0.15294330000E+03 0.  0.
<mgrwt>
<rscale>  0 0.10031781E+04</rscale>
<asrwt>0</asrwt>
<pdfrwt beam="1">  1        2 0.35107385E+00 0.10031781E+04</pdfrwt>
<pdfrwt beam="2">  1       -2 0.97467605E-01 0.10031781E+04</pdfrwt>
<totfact> 0.40917009E+00</totfact>
</mgrwt>
</event>
<event>
 4    1  0.4880711E-008  0.7123999E+03  0.7818608E-02  0.9696259E-01
         -2   -1    0    0    0  501 -0.00000000000E+00  0.00000000000E+00  0.95543552944E+03  0.95543552945E+03  0.25500000000E-02 0.  1.
          2   -1    0    0  501    0  0.00000000000E+00 -0.00000000000E+00 -0.79290740706E+03  0.79290740706E+03  0.25500000000E-02 0. -1.
    8880022    1    1    2    0    0 -0.68463485130E+03 -0.12408508472E+03  0.58349713070E+03  0.92085967575E+03  0.15294330000E+03 0.  0.
    8880022    1    1    2    0    0  0.68463485130E+03  0.12408508472E+03 -0.42096900832E+03  0.82748326076E+03  0.15294330000E+03 0.  0.
<mgrwt>
<rscale>  0 0.71239992E+03</rscale>
<asrwt>0</asrwt>
<pdfrwt beam="1">  1        2 0.12198576E+00 0.71239992E+03</pdfrwt>
<pdfrwt beam="2">  1       -2 0.14699008E+00 0.71239992E+03</pdfrwt>
<totfact> 0.11241989E+01</totfact>
</mgrwt>
</event>
<event>
 4    1  0.4880711E-008  0.2134544E+03  0.7818608E-02  0.1138859E+00
         -2   -1    0    0    0  501 -0.00000000000E+00  0.00000000000E+00  0.13990323552E+03  0.13990323555E+03  0.25500000000E-02 0.  1.
          2   -1    0    0  501    0  0.00000000000E+00 -0.00000000000E+00 -0.16912633713E+04  0.16912633713E+04  0.25500000000E-02 0. -1.
    8880022    1    1    2    0    0 -0.14408057170E+03 -0.37575471084E+02 -0.15984006871E+04  0.16125903189E+04  0.15294330000E+03 0. -1.
    8880022    1    1    2    0    0  0.14408057170E+03  0.37575471084E+02  0.47040551301E+02  0.21857628794E+03  0.15294330000E+03 0.  0.
<mgrwt>
<rscale>  0 0.21345440E+03</rscale>
<asrwt>0</asrwt>
<pdfrwt beam="1">  1        2 0.26019435E+00 0.21345440E+03</pdfrwt>
<pdfrwt beam="2">  1       -2 0.21523576E-01 0.21345440E+03</pdfrwt>
<totfact> 0.20422072E+02</totfact>
</mgrwt>
</event>
<event>
 4    1  0.4880711E-008  0.2534021E+03  0.7818608E-02  0.1111173E+00
          2   -1    0    0  501    0  0.00000000000E+00  0.00000000000E+00  0.17428281973E+04  0.17428281973E+04  0.25500000000E-02 0. -1.
         -2   -1    0    0    0  501 -0.00000000000E+00 -0.00000000000E+00 -0.37614577242E+02  0.37614577329E+02  0.25500000000E-02 0.  1.
    8880022    1    1    2    0    0 -0.19709908812E+03 -0.44417474086E+02  0.72518266538E+03  0.76818130264E+03  0.15294330000E+03 0.  1.
    8880022    1    1    2    0    0  0.19709908812E+03  0.44417474086E+02  0.98003095472E+03  0.10122614720E+04  0.15294330000E+03 0. -1.
<mgrwt>
<rscale>  0 0.25340208E+03</rscale>
<asrwt>0</asrwt>
<pdfrwt beam="1">  1        2 0.26812746E+00 0.25340208E+03</pdfrwt>
<pdfrwt beam="2">  1       -2 0.57868571E-02 0.25340208E+03</pdfrwt>
<totfact> 0.15891455E+03</totfact>
</mgrwt>
</event>
<event>
 4    1  0.4880711E-008  0.4445795E+03  0.7818608E-02  0.1029351E+00
         -2   -1    0    0    0  501 -0.00000000000E+00  0.00000000000E+00  0.13547872241E+03  0.13547872243E+03  0.25500000000E-02 0.  1.
          2   -1    0    0  501    0  0.00000000000E+00 -0.00000000000E+00 -0.16186987235E+04  0.16186987235E+04  0.25500000000E-02 0. -1.
    8880022    1    1    2    0    0  0.69746715957E+02  0.41157583237E+03 -0.10171832050E+04  0.11100957597E+04  0.15294330000E+03 0.  0.
    8880022    1    1    2    0    0 -0.69746715957E+02 -0.41157583237E+03 -0.46603679603E+03  0.64408168616E+03  0.15294330000E+03 0.  0.
<mgrwt>
<rscale>  0 0.44457949E+03</rscale>
<asrwt>0</asrwt>
<pdfrwt beam="1">  1        2 0.24903056E+00 0.44457949E+03</pdfrwt>
<pdfrwt beam="2">  1       -2 0.20842882E-01 0.44457949E+03</pdfrwt>
<totfact> 0.22617646E+02</totfact>
</mgrwt>
</event>
<event>
 4    1  0.4880711E-008  0.1407359E+04  0.7818608E-02  0.8948509E-01
          2   -1    0    0  501    0  0.00000000000E+00  0.00000000000E+00  0.26193088160E+04  0.26193088160E+04  0.25500000000E-02 0. -1.
         -2   -1    0    0    0  501 -0.00000000000E+00 -0.00000000000E+00 -0.11857126178E+04  0.11857126178E+04  0.25500000000E-02 0.  1.
    8880022    1    1    2    0    0 -0.28045795801E+03  0.13706240842E+04 -0.42828615333E+03  0.14710838618E+04  0.15294330000E+03 0.  0.
    8880022    1    1    2    0    0  0.28045795801E+03 -0.13706240842E+04  0.18618823515E+04  0.23339375721E+04  0.15294330000E+03 0.  0.
<mgrwt>
<rscale>  0 0.14073588E+04</rscale>
<asrwt>0</asrwt>
<pdfrwt beam="1">  1        2 0.40297058E+00 0.14073588E+04</pdfrwt>
<pdfrwt beam="2">  1       -2 0.18241733E+00 0.14073588E+04</pdfrwt>
<totfact> 0.49235443E-01</totfact>
</mgrwt>
</event>
<event>
 4    1  0.4880711E-008  0.1016912E+04  0.7818608E-02  0.9290188E-01
         -2   -1    0    0    0  501 -0.00000000000E+00  0.00000000000E+00  0.68910861936E+03  0.68910861937E+03  0.25500000000E-02 0.  1.
          2   -1    0    0  501    0  0.00000000000E+00 -0.00000000000E+00 -0.22051530080E+04  0.22051530080E+04  0.25500000000E-02 0. -1.
    8880022    1    1    2    0    0 -0.78818073655E+03 -0.62409167480E+03  0.59933555663E+02  0.10186770716E+04  0.15294330000E+03 0.  0.
    8880022    1    1    2    0    0  0.78818073655E+03  0.62409167480E+03 -0.15759779443E+04  0.18755845558E+04  0.15294330000E+03 0.  0.
<mgrwt>
<rscale>  0 0.10169125E+04</rscale>
<asrwt>0</asrwt>
<pdfrwt beam="1">  1        2 0.33925431E+00 0.10169125E+04</pdfrwt>
<pdfrwt beam="2">  1       -2 0.10601671E+00 0.10169125E+04</pdfrwt>
<totfact> 0.36871519E+00</totfact>
</mgrwt>
</event>
<event>
 4    1  0.4880711E-008  0.2677493E+03  0.7818608E-02  0.1102575E+00
          2   -1    0    0  501    0  0.00000000000E+00  0.00000000000E+00  0.22024204021E+03  0.22024204023E+03  0.25500000000E-02 0. -1.
         -2   -1    0    0    0  501 -0.00000000000E+00 -0.00000000000E+00 -0.96173779497E+03  0.96173779497E+03  0.25500000000E-02 0.  1.
    8880022    1    1    2    0    0  0.19190012901E+03  0.10710913916E+03 -0.85143232784E+03  0.89253946082E+03  0.15294330000E+03 0.  0.
    8880022    1    1    2    0    0 -0.19190012901E+03 -0.10710913916E+03  0.10993657309E+03  0.28944037438E+03  0.15294330000E+03 0.  0.
<mgrwt>
<rscale>  0 0.26774929E+03</rscale>
<asrwt>0</asrwt>
<pdfrwt beam="1">  1        2 0.33883391E-01 0.26774929E+03</pdfrwt>
<pdfrwt beam="2">  1       -2 0.14795966E+00 0.26774929E+03</pdfrwt>
<totfact> 0.50764633E+01</totfact>
</mgrwt>
</event>
<event>
 4    1  0.4880711E-008  0.1102652E+04  0.7818608E-02  0.9202611E-01
         -2   -1    0    0    0  501 -0.00000000000E+00  0.00000000000E+00  0.35725197831E+03  0.35725197831E+03  0.25500000000E-02 0.  1.
          2   -1    0    0  501    0  0.00000000000E+00 -0.00000000000E+00 -0.46962478581E+04  0.46962478581E+04  0.25500000000E-02 0. -1.
    8880022    1    1    2    0    0  0.25192581665E+03 -0.10625360081E+04 -0.34952879163E+04  0.36650891744E+04  0.15294330000E+03 0.  0.
    8880022    1    1    2    0    0 -0.25192581665E+03  0.10625360081E+04 -0.84370796345E+03  0.13884106620E+04  0.15294330000E+03 0.  0.
<mgrwt>
<rscale>  0 0.11026518E+04</rscale>
<asrwt>0</asrwt>
<pdfrwt beam="1">  1        2 0.72249962E+00 0.11026518E+04</pdfrwt>
<pdfrwt beam="2">  1       -2 0.54961846E-01 0.11026518E+04</pdfrwt>
<totfact> 0.25654027E-01</totfact>
</mgrwt>
</event>
<event>
 4    1  0.4880711E-008  0.2212593E+03  0.7818608E-02  0.1132948E+00
          2   -1    0    0  501    0  0.00000000000E+00  0.00000000000E+00  0.12255221181E+04  0.12255221181E+04  0.25500000000E-02 0. -1.
         -2   -1    0    0    0  501 -0.00000000000E+00 -0.00000000000E+00 -0.67846141753E+02  0.67846141801E+02  0.25500000000E-02 0.  1.
    8880022    1    1    2    0    0 -0.18375973447E+02  0.15882801168E+03  0.16414496143E+03  0.27549815801E+03  0.15294330000E+03 0.  0.
    8880022    1    1    2    0    0  0.18375973447E+02 -0.15882801168E+03  0.99353101494E+03  0.10178701019E+04  0.15294330000E+03 0. -1.
<mgrwt>
<rscale>  0 0.22125927E+03</rscale>
<asrwt>0</asrwt>
<pdfrwt beam="1">  1        2 0.18854185E+00 0.22125927E+03</pdfrwt>
<pdfrwt beam="2">  1       -2 0.10437869E-01 0.22125927E+03</pdfrwt>
<totfact> 0.12010778E+03</totfact>
</mgrwt>
</event>
<event>
 4    1  0.4880711E-008  0.1622126E+03  0.7818608E-02  0.1186221E+00
         -2   -1    0    0    0  501 -0.00000000000E+00  0.00000000000E+00  0.38857136265E+03  0.38857136266E+03  0.25500000000E-02 0.  1.
          2   -1    0    0  501    0  0.00000000000E+00 -0.00000000000E+00 -0.46705503623E+03  0.46705503624E+03  0.25500000000E-02 0. -1.
    8880022    1    1    2    0    0  0.40077877438E+02 -0.36263492135E+02 -0.43482739540E+03  0.46409890533E+03  0.15294330000E+03 0. -1.
    8880022    1    1    2    0    0 -0.40077877438E+02  0.36263492135E+02  0.35634372182E+03  0.39152749356E+03  0.15294330000E+03 0.  0.
<mgrwt>
<rscale>  0 0.16221261E+03</rscale>
<asrwt>0</asrwt>
<pdfrwt beam="1">  1        2 0.71854621E-01 0.16221261E+03</pdfrwt>
<pdfrwt beam="2">  1       -2 0.59780209E-01 0.16221261E+03</pdfrwt>
<totfact> 0.18297812E+02</totfact>
</mgrwt>
</event>
<event>
 4    1  0.4880711E-008  0.2548839E+03  0.7818608E-02  0.1110257E+00
         -2   -1    0    0    0  501 -0.00000000000E+00  0.00000000000E+00  0.34421348661E+03  0.34421348662E+03  0.25500000000E-02 0.  1.
          2   -1    0    0  501    0  0.00000000000E+00 -0.00000000000E+00 -0.19134742242E+04  0.19134742242E+04  0.25500000000E-02 0. -1.
    8880022    1    1    2    0    0 -0.18165833589E+03  0.92598004638E+02 -0.18563570508E+04  0.18737735440E+04  0.15294330000E+03 0.  0.
    8880022    1    1    2    0    0  0.18165833589E+03 -0.92598004638E+02  0.28709631312E+03  0.38391416682E+03  0.15294330000E+03 0.  1.
<mgrwt>
<rscale>  0 0.25488388E+03</rscale>
<asrwt>0</asrwt>
<pdfrwt beam="1">  1        2 0.29438064E+00 0.25488388E+03</pdfrwt>
<pdfrwt beam="2">  1       -2 0.52955922E-01 0.25488388E+03</pdfrwt>
<totfact> 0.28834987E+01</totfact>
</mgrwt>
</event>
<event>
 4    1  0.4880711E-008  0.2053479E+03  0.7818608E-02  0.1145304E+00
         -2   -1    0    0    0  501 -0.00000000000E+00  0.00000000000E+00  0.58822939110E+02  0.58822939165E+02  0.25500000000E-02 0.  1.
          2   -1    0    0  501    0  0.00000000000E+00 -0.00000000000E+00 -0.15843967272E+04  0.15843967272E+04  0.25500000000E-02 0. -1.
    8880022    1    1    2    0    0 -0.11303228786E+03  0.77458364255E+02 -0.15482289601E+03  0.25717285712E+03  0.15294330000E+03 0.  0.
    8880022    1    1    2    0    0  0.11303228786E+03 -0.77458364255E+02 -0.13707508921E+04  0.13860468093E+04  0.15294330000E+03 0. -1.
<mgrwt>
<rscale>  0 0.20534787E+03</rscale>
<asrwt>0</asrwt>
<pdfrwt beam="1">  1        2 0.24375331E+00 0.20534787E+03</pdfrwt>
<pdfrwt beam="2">  1       -2 0.90496842E-02 0.20534787E+03</pdfrwt>
<totfact> 0.96480604E+02</totfact>
</mgrwt>
</event>
<event>
 4    1  0.4880711E-008  0.3002664E+03  0.7818608E-02  0.1085108E+00
          2   -1    0    0  501    0  0.00000000000E+00  0.00000000000E+00  0.13495514518E+04  0.13495514518E+04  0.25500000000E-02 0. -1.
         -2   -1    0    0    0  501 -0.00000000000E+00 -0.00000000000E+00 -0.12006116036E+03  0.12006116039E+03  0.25500000000E-02 0.  1.
    8880022    1    1    2    0    0  0.14637685615E+03  0.21293673533E+03  0.11041261969E+04  0.11442266161E+04  0.15294330000E+03 0. -1.
    8880022    1    1    2    0    0 -0.14637685615E+03 -0.21293673533E+03  0.12536409460E+03  0.32538599616E+03  0.15294330000E+03 0.  0.
<mgrwt>
<rscale>  0 0.30026637E+03</rscale>
<asrwt>0</asrwt>
<pdfrwt beam="1">  1        2 0.20762330E+00 0.30026637E+03</pdfrwt>
<pdfrwt beam="2">  1       -2 0.18470948E-01 0.30026637E+03</pdfrwt>
<totfact> 0.39768387E+02</totfact>
</mgrwt>
</event>
<event>
 4    1  0.4880711E-008  0.4199376E+03  0.7818608E-02  0.1037087E+00
          2   -1    0    0  501    0  0.00000000000E+00  0.00000000000E+00  0.30173632518E+03  0.30173632519E+03  0.25500000000E-02 0. -1.
         -2   -1    0    0    0  501 -0.00000000000E+00 -0.00000000000E+00 -0.16464689894E+04  0.16464689894E+04  0.25500000000E-02 0.  1.
    8880022    1    1    2    0    0 -0.94104484453E+02 -0.37960541376E+03 -0.14547064381E+04  0.15141064686E+04  0.15294330000E+03 0.  1.
    8880022    1    1    2    0    0  0.94104484453E+02  0.37960541376E+03  0.10997377389E+03  0.43409884601E+03  0.15294330000E+03 0.  0.
<mgrwt>
<rscale>  0 0.41993759E+03</rscale>
<asrwt>0</asrwt>
<pdfrwt beam="1">  1        2 0.46420974E-01 0.41993759E+03</pdfrwt>
<pdfrwt beam="2">  1       -2 0.25330292E+00 0.41993759E+03</pdfrwt>
<totfact> 0.72322867E+00</totfact>
</mgrwt>
</event>
<event>
 4    1  0.4880711E-008  0.6751842E+03  0.7818608E-02  0.9760638E-01
         -2   -1    0    0    0  501 -0.00000000000E+00  0.00000000000E+00  0.63899232742E+03  0.63899232743E+03  0.25500000000E-02 0.  1.
          2   -1    0    0  501    0  0.00000000000E+00 -0.00000000000E+00 -0.29690384868E+04  0.29690384868E+04  0.25500000000E-02 0. -1.
    8880022    1    1    2    0    0  0.17188059684E+03 -0.63477484467E+03 -0.27374286744E+04  0.28194661628E+04  0.15294330000E+03 0.  0.
    8880022    1    1    2    0    0 -0.17188059684E+03  0.63477484467E+03  0.40738251496E+03  0.78856465144E+03  0.15294330000E+03 0.  0.
<mgrwt>
<rscale>  0 0.67518419E+03</rscale>
<asrwt>0</asrwt>
<pdfrwt beam="1">  1        2 0.45677514E+00 0.67518419E+03</pdfrwt>
<pdfrwt beam="2">  1       -2 0.98306514E-01 0.67518419E+03</pdfrwt>
<totfact> 0.16985382E+00</totfact>
</mgrwt>
</event>
<event>
 4    1  0.4880711E-008  0.6546344E+03  0.7818608E-02  0.9798122E-01
          2   -1    0    0  501    0  0.00000000000E+00  0.00000000000E+00  0.11386371924E+04  0.11386371924E+04  0.25500000000E-02 0. -1.
         -2   -1    0    0    0  501 -0.00000000000E+00 -0.00000000000E+00 -0.75703444937E+03  0.75703444938E+03  0.25500000000E-02 0.  1.
    8880022    1    1    2    0    0  0.48416087253E+02 -0.63467350805E+03 -0.48132012005E+03  0.81253633168E+03  0.15294330000E+03 0.  0.
    8880022    1    1    2    0    0 -0.48416087253E+02  0.63467350805E+03  0.86292286306E+03  0.10831353101E+04  0.15294330000E+03 0.  0.
<mgrwt>
<rscale>  0 0.65463443E+03</rscale>
<asrwt>0</asrwt>
<pdfrwt beam="1">  1        2 0.17517495E+00 0.65463443E+03</pdfrwt>
<pdfrwt beam="2">  1       -2 0.11646684E+00 0.65463443E+03</pdfrwt>
<totfact> 0.12161622E+01</totfact>
</mgrwt>
</event>
<event>
 4    1  0.4880711E-008  0.5817943E+03  0.7818608E-02  0.9943914E-01
         -2   -1    0    0    0  501 -0.00000000000E+00  0.00000000000E+00  0.71812178104E+03  0.71812178105E+03  0.25500000000E-02 0.  1.
          2   -1    0    0  501    0  0.00000000000E+00 -0.00000000000E+00 -0.27398370802E+04  0.27398370802E+04  0.25500000000E-02 0. -1.
    8880022    1    1    2    0    0 -0.10727402220E+03 -0.55098574600E+03 -0.25841009251E+04  0.26487850521E+04  0.15294330000E+03 0.  0.
    8880022    1    1    2    0    0  0.10727402220E+03  0.55098574600E+03  0.56238562594E+03  0.80917380915E+03  0.15294330000E+03 0.  0.
<mgrwt>
<rscale>  0 0.58179435E+03</rscale>
<asrwt>0</asrwt>
<pdfrwt beam="1">  1        2 0.42151339E+00 0.58179435E+03</pdfrwt>
<pdfrwt beam="2">  1       -2 0.11048028E+00 0.58179435E+03</pdfrwt>
<totfact> 0.18001731E+00</totfact>
</mgrwt>
</event>
<event>
 4    1  0.4880711E-008  0.4759268E+03  0.7818608E-02  0.1020261E+00
         -2   -1    0    0    0  501 -0.00000000000E+00  0.00000000000E+00  0.14098083520E+03  0.14098083522E+03  0.25500000000E-02 0.  1.
          2   -1    0    0  501    0  0.00000000000E+00 -0.00000000000E+00 -0.30734354081E+04  0.30734354081E+04  0.25500000000E-02 0. -1.
    8880022    1    1    2    0    0 -0.43294627559E+03 -0.12518879271E+03 -0.25765363446E+04  0.26201232603E+04  0.15294330000E+03 0.  0.
    8880022    1    1    2    0    0  0.43294627559E+03  0.12518879271E+03 -0.35591822832E+03  0.59429298299E+03  0.15294330000E+03 0.  0.
<mgrwt>
<rscale>  0 0.47592685E+03</rscale>
<asrwt>0</asrwt>
<pdfrwt beam="1">  1        2 0.47283617E+00 0.47592685E+03</pdfrwt>
<pdfrwt beam="2">  1       -2 0.21689362E-01 0.47592685E+03</pdfrwt>
<totfact> 0.32370678E+01</totfact>
</mgrwt>
</event>
<event>
 4    1  0.4880711E-008  0.2686460E+03  0.7818608E-02  0.1102057E+00
          2   -1    0    0  501    0  0.00000000000E+00  0.00000000000E+00  0.12088909449E+04  0.12088909449E+04  0.25500000000E-02 0. -1.
         -2   -1    0    0    0  501 -0.00000000000E+00 -0.00000000000E+00 -0.30760674980E+03  0.30760674981E+03  0.25500000000E-02 0.  1.
    8880022    1    1    2    0    0 -0.33868076440E+02 -0.21824747681E+03 -0.23006158063E+03  0.35369335820E+03  0.15294330000E+03 0.  1.
    8880022    1    1    2    0    0  0.33868076440E+02  0.21824747681E+03  0.11313457757E+04  0.11628043365E+04  0.15294330000E+03 0.  0.
<mgrwt>
<rscale>  0 0.26864598E+03</rscale>
<asrwt>0</asrwt>
<pdfrwt beam="1">  1        2 0.18598322E+00 0.26864598E+03</pdfrwt>
<pdfrwt beam="2">  1       -2 0.47324116E-01 0.26864598E+03</pdfrwt>
<totfact> 0.85884285E+01</totfact>
</mgrwt>
</event>
<event>
 4    1  0.4880711E-008  0.2131338E+03  0.7818608E-02  0.1139108E+00
          2   -1    0    0  501    0  0.00000000000E+00  0.00000000000E+00  0.22346934357E+04  0.22346934357E+04  0.25500000000E-02 0. -1.
         -2   -1    0    0    0  501 -0.00000000000E+00 -0.00000000000E+00 -0.25656849138E+03  0.25656849139E+03  0.25500000000E-02 0.  1.
    8880022    1    1    2    0    0  0.92194726537E+02  0.11633782304E+03  0.21843303508E+04  0.21947038732E+04  0.15294330000E+03 0.  0.
    8880022    1    1    2    0    0 -0.92194726537E+02 -0.11633782304E+03 -0.20620540645E+03  0.29655805390E+03  0.15294330000E+03 0.  1.
<mgrwt>
<rscale>  0 0.21313378E+03</rscale>
<asrwt>0</asrwt>
<pdfrwt beam="1">  1        2 0.34379901E+00 0.21313378E+03</pdfrwt>
<pdfrwt beam="2">  1       -2 0.39472073E-01 0.21313378E+03</pdfrwt>
<totfact> 0.35456982E+01</totfact>
</mgrwt>
</event>
<event>
 4    1  0.4880711E-008  0.2489316E+03  0.7818608E-02  0.1113982E+00
          2   -1    0    0  501    0  0.00000000000E+00  0.00000000000E+00  0.51077727792E+03  0.51077727793E+03  0.25500000000E-02 0. -1.
         -2   -1    0    0    0  501 -0.00000000000E+00 -0.00000000000E+00 -0.48853153643E+03  0.48853153644E+03  0.25500000000E-02 0.  1.
    8880022    1    1    2    0    0 -0.10143914113E+03  0.16818257315E+03 -0.42207093451E+03  0.49001102441E+03  0.15294330000E+03 0.  0.
    8880022    1    1    2    0    0  0.10143914113E+03 -0.16818257315E+03  0.44431667600E+03  0.50929778996E+03  0.15294330000E+03 0. -1.
<mgrwt>
<rscale>  0 0.24893158E+03</rscale>
<asrwt>0</asrwt>
<pdfrwt beam="1">  1        2 0.78581119E-01 0.24893158E+03</pdfrwt>
<pdfrwt beam="2">  1       -2 0.75158698E-01 0.24893158E+03</pdfrwt>
<totfact> 0.10074484E+02</totfact>
</mgrwt>
</event>
<event>
 4    1  0.1409558E-007  0.8263343E+03  0.7818608E-02  0.9522662E-01
          2   -1    0    0  501    0  0.00000000000E+00  0.00000000000E+00  0.13421208041E+04  0.13421208041E+04  0.25500000000E-02 0. -1.
         -2   -1    0    0    0  501 -0.00000000000E+00 -0.00000000000E+00 -0.31993910009E+04  0.31993910009E+04  0.25500000000E-02 0.  1.
    8880022    1    1    2    0    0  0.37801375364E+03 -0.71870881047E+03 -0.30110305197E+04  0.31223601964E+04  0.15294330000E+03 0.  0.
    8880022    1    1    2    0    0 -0.37801375364E+03  0.71870881047E+03  0.11537603229E+04  0.14191516085E+04  0.15294330000E+03 0.  0.
<mgrwt>
<rscale>  0 0.82633432E+03</rscale>
<asrwt>0</asrwt>
<pdfrwt beam="1">  1        2 0.20648013E+00 0.82633432E+03</pdfrwt>
<pdfrwt beam="2">  1       -2 0.49221400E+00 0.82633432E+03</pdfrwt>
<totfact> 0.30290052E-02</totfact>
</mgrwt>
</event>
<event>
 4    1  0.4880711E-008  0.5241951E+03  0.7818608E-02  0.1007650E+00
          2   -1    0    0  501    0  0.00000000000E+00  0.00000000000E+00  0.10334500027E+04  0.10334500027E+04  0.25500000000E-02 0. -1.
         -2   -1    0    0    0  501 -0.00000000000E+00 -0.00000000000E+00 -0.49337423350E+03  0.49337423350E+03  0.25500000000E-02 0.  1.
    8880022    1    1    2    0    0  0.21023817128E+03 -0.45517997150E+03  0.78841960188E+03  0.94677664566E+03  0.15294330000E+03 0.  0.
    8880022    1    1    2    0    0 -0.21023817128E+03  0.45517997150E+03 -0.24834383264E+03  0.58004759059E+03  0.15294330000E+03 0.  0.
<mgrwt>
<rscale>  0 0.52419514E+03</rscale>
<asrwt>0</asrwt>
<pdfrwt beam="1">  1        2 0.15899231E+00 0.52419514E+03</pdfrwt>
<pdfrwt beam="2">  1       -2 0.75903728E-01 0.52419514E+03</pdfrwt>
<totfact> 0.38854524E+01</totfact>
</mgrwt>
</event>
<event>
 4    1  0.4880711E-008  0.2876166E+03  0.7818608E-02  0.1091600E+00
          2   -1    0    0  501    0  0.00000000000E+00  0.00000000000E+00  0.16816575872E+03  0.16816575874E+03  0.25500000000E-02 0. -1.
         -2   -1    0    0    0  501 -0.00000000000E+00 -0.00000000000E+00 -0.73578274810E+03  0.73578274810E+03  0.25500000000E-02 0.  1.
    8880022    1    1    2    0    0  0.18780466623E+03 -0.15511629478E+03 -0.54401359663E+03  0.61536501679E+03  0.15294330000E+03 0.  1.
    8880022    1    1    2    0    0 -0.18780466623E+03  0.15511629478E+03 -0.23603392755E+02  0.28858349005E+03  0.15294330000E+03 0.  0.
<mgrwt>
<rscale>  0 0.28761660E+03</rscale>
<asrwt>0</asrwt>
<pdfrwt beam="1">  1        2 0.25871656E-01 0.28761660E+03</pdfrwt>
<pdfrwt beam="2">  1       -2 0.11319734E+00 0.28761660E+03</pdfrwt>
<totfact> 0.13293307E+02</totfact>
</mgrwt>
</event>
<event>
 4    1  0.4880711E-008  0.3703787E+03  0.7818608E-02  0.1054548E+00
         -2   -1    0    0    0  501 -0.00000000000E+00  0.00000000000E+00  0.41365580348E+03  0.41365580349E+03  0.25500000000E-02 0.  1.
          2   -1    0    0  501    0  0.00000000000E+00 -0.00000000000E+00 -0.37637361951E+03  0.37637361952E+03  0.25500000000E-02 0. -1.
    8880022    1    1    2    0    0 -0.30890992780E+03  0.13551166971E+03 -0.11755741533E+03  0.38858738404E+03  0.15294330000E+03 0.  0.
    8880022    1    1    2    0    0  0.30890992780E+03 -0.13551166971E+03  0.15483959931E+03  0.40144203896E+03  0.15294330000E+03 0.  0.
<mgrwt>
<rscale>  0 0.37037874E+03</rscale>
<asrwt>0</asrwt>
<pdfrwt beam="1">  1        2 0.57903634E-01 0.37037874E+03</pdfrwt>
<pdfrwt beam="2">  1       -2 0.63639354E-01 0.37037874E+03</pdfrwt>
<totfact> 0.19978985E+02</totfact>
</mgrwt>
</event>
<event>
 4    1  0.4880711E-008  0.8182390E+03  0.7818608E-02  0.9533986E-01
          2   -1    0    0  501    0  0.00000000000E+00  0.00000000000E+00  0.29248837206E+04  0.29248837206E+04  0.25500000000E-02 0. -1.
         -2   -1    0    0    0  501 -0.00000000000E+00 -0.00000000000E+00 -0.24769449227E+03  0.24769449228E+03  0.25500000000E-02 0.  1.
    8880022    1    1    2    0    0 -0.41470565170E+03  0.68858019088E+03  0.17755157137E+04  0.19549862300E+04  0.15294330000E+03 0.  0.
    8880022    1    1    2    0    0  0.41470565170E+03 -0.68858019088E+03  0.90167351464E+03  0.12175919829E+04  0.15294330000E+03 0.  0.
<mgrwt>
<rscale>  0 0.81823903E+03</rscale>
<asrwt>0</asrwt>
<pdfrwt beam="1">  1        2 0.44998211E+00 0.81823903E+03</pdfrwt>
<pdfrwt beam="2">  1       -2 0.38106845E-01 0.81823903E+03</pdfrwt>
<totfact> 0.13207789E+01</totfact>
</mgrwt>
</event>
<event>
 4    1  0.4880711E-008  0.2065632E+03  0.7818608E-02  0.1144317E+00
          2   -1    0    0  501    0  0.00000000000E+00  0.00000000000E+00  0.12955871204E+04  0.12955871204E+04  0.25500000000E-02 0. -1.
         -2   -1    0    0    0  501 -0.00000000000E+00 -0.00000000000E+00 -0.57600177249E+02  0.57600177305E+02  0.25500000000E-02 0.  1.
    8880022    1    1    2    0    0  0.19460546792E+01 -0.13882695665E+03  0.10617554743E+04  0.10816621706E+04  0.15294330000E+03 0.  0.
    8880022    1    1    2    0    0 -0.19460546792E+01  0.13882695665E+03  0.17623146876E+03  0.27152512705E+03  0.15294330000E+03 0.  0.
<mgrwt>
<rscale>  0 0.20656322E+03</rscale>
<asrwt>0</asrwt>
<pdfrwt beam="1">  1        2 0.19932107E+00 0.20656322E+03</pdfrwt>
<pdfrwt beam="2">  1       -2 0.88615667E-02 0.20656322E+03</pdfrwt>
<totfact> 0.14238790E+03</totfact>
</mgrwt>
</event>
<event>
 4    1  0.4880711E-008  0.1926633E+03  0.7818608E-02  0.1156081E+00
          2   -1    0    0  501    0  0.00000000000E+00  0.00000000000E+00  0.92848111721E+03  0.92848111722E+03  0.25500000000E-02 0. -1.
         -2   -1    0    0    0  501 -0.00000000000E+00 -0.00000000000E+00 -0.98719566835E+02  0.98719566868E+02  0.25500000000E-02 0.  1.
    8880022    1    1    2    0    0 -0.75385505738E+02 -0.89691230397E+02  0.81106314758E+03  0.83363215728E+03  0.15294330000E+03 0.  0.
    8880022    1    1    2    0    0  0.75385505738E+02  0.89691230397E+02  0.18698402801E+02  0.19356852680E+03  0.15294330000E+03 0.  0.
<mgrwt>
<rscale>  0 0.19266329E+03</rscale>
<asrwt>0</asrwt>
<pdfrwt beam="1">  1        2 0.14284325E+00 0.19266329E+03</pdfrwt>
<pdfrwt beam="2">  1       -2 0.15187626E-01 0.19266329E+03</pdfrwt>
<totfact> 0.98048548E+02</totfact>
</mgrwt>
</event>
<event>
 4    1  0.4880711E-008  0.6293001E+03  0.7818608E-02  0.9846415E-01
         -2   -1    0    0    0  501 -0.00000000000E+00  0.00000000000E+00  0.29498454248E+03  0.29498454249E+03  0.25500000000E-02 0.  1.
          2   -1    0    0  501    0  0.00000000000E+00 -0.00000000000E+00 -0.31801561420E+04  0.31801561420E+04  0.25500000000E-02 0. -1.
    8880022    1    1    2    0    0  0.19619828955E+02 -0.61011643754E+03 -0.12174786495E+03  0.64096895454E+03  0.15294330000E+03 0.  0.
    8880022    1    1    2    0    0 -0.19619828955E+02  0.61011643754E+03 -0.27634237346E+04  0.28341717300E+04  0.15294330000E+03 0.  0.
<mgrwt>
<rscale>  0 0.62930013E+03</rscale>
<asrwt>0</asrwt>
<pdfrwt beam="1">  1        2 0.48925477E+00 0.62930013E+03</pdfrwt>
<pdfrwt beam="2">  1       -2 0.45382239E-01 0.62930013E+03</pdfrwt>
<totfact> 0.67589577E+00</totfact>
</mgrwt>
</event>
<event>
 4    1  0.4880711E-008  0.2835402E+03  0.7818608E-02  0.1093771E+00
          2   -1    0    0  501    0  0.00000000000E+00  0.00000000000E+00  0.20538787863E+04  0.20538787863E+04  0.25500000000E-02 0. -1.
         -2   -1    0    0    0  501 -0.00000000000E+00 -0.00000000000E+00 -0.45466499639E+03  0.45466499640E+03  0.25500000000E-02 0.  1.
    8880022    1    1    2    0    0  0.18989354572E+03 -0.14471980688E+03  0.19986724422E+04  0.20186843650E+04  0.15294330000E+03 0. -1.
    8880022    1    1    2    0    0 -0.18989354572E+03  0.14471980688E+03 -0.39945865230E+03  0.48985941771E+03  0.15294330000E+03 0.  0.
<mgrwt>
<rscale>  0 0.28354018E+03</rscale>
<asrwt>0</asrwt>
<pdfrwt beam="1">  1        2 0.31598135E+00 0.28354018E+03</pdfrwt>
<pdfrwt beam="2">  1       -2 0.69948462E-01 0.28354018E+03</pdfrwt>
<totfact> 0.13454318E+01</totfact>
</mgrwt>
</event>
<event>
 4    1  0.4880711E-008  0.3157122E+03  0.7818608E-02  0.1077640E+00
          2   -1    0    0  501    0  0.00000000000E+00  0.00000000000E+00  0.70437625132E+03  0.70437625133E+03  0.25500000000E-02 0. -1.
         -2   -1    0    0    0  501 -0.00000000000E+00 -0.00000000000E+00 -0.57906270005E+03  0.57906270005E+03  0.25500000000E-02 0.  1.
    8880022    1    1    2    0    0  0.26553489759E+03 -0.75985195913E+02 -0.49516965386E+03  0.58725392374E+03  0.15294330000E+03 0.  1.
    8880022    1    1    2    0    0 -0.26553489759E+03  0.75985195913E+02  0.62048320514E+03  0.69618502764E+03  0.15294330000E+03 0.  0.
<mgrwt>
<rscale>  0 0.31571219E+03</rscale>
<asrwt>0</asrwt>
<pdfrwt beam="1">  1        2 0.10836558E+00 0.31571219E+03</pdfrwt>
<pdfrwt beam="2">  1       -2 0.89086570E-01 0.31571219E+03</pdfrwt>
<totfact> 0.46830578E+01</totfact>
</mgrwt>
</event>
<event>
 4    1  0.4880711E-008  0.4993802E+03  0.7818608E-02  0.1013941E+00
         -2   -1    0    0    0  501 -0.00000000000E+00  0.00000000000E+00  0.33237703027E+03  0.33237703028E+03  0.25500000000E-02 0.  1.
          2   -1    0    0  501    0  0.00000000000E+00 -0.00000000000E+00 -0.36067277742E+04  0.36067277742E+04  0.25500000000E-02 0. -1.
    8880022    1    1    2    0    0  0.47452143974E+03 -0.28606534837E+02  0.11558649756E+03  0.51258250267E+03  0.15294330000E+03 0.  0.
    8880022    1    1    2    0    0 -0.47452143974E+03  0.28606534837E+02 -0.33899372414E+04  0.34265223018E+04  0.15294330000E+03 0.  0.
<mgrwt>
<rscale>  0 0.49938020E+03</rscale>
<asrwt>0</asrwt>
<pdfrwt beam="1">  1        2 0.55488117E+00 0.49938020E+03</pdfrwt>
<pdfrwt beam="2">  1       -2 0.51134930E-01 0.49938020E+03</pdfrwt>
<totfact> 0.28827365E+00</totfact>
</mgrwt>
</event>
<event>
 4    1  0.4880711E-008  0.3707064E+03  0.7818608E-02  0.1054423E+00
         -2   -1    0    0    0  501 -0.00000000000E+00  0.00000000000E+00  0.24881139537E+03  0.24881139538E+03  0.25500000000E-02 0.  1.
          2   -1    0    0  501    0  0.00000000000E+00 -0.00000000000E+00 -0.97986179337E+03  0.97986179338E+03  0.25500000000E-02 0. -1.
    8880022    1    1    2    0    0 -0.27545562747E+03  0.19533505669E+03 -0.77132685210E+03  0.85578522590E+03  0.15294330000E+03 0.  0.
    8880022    1    1    2    0    0  0.27545562747E+03 -0.19533505669E+03  0.40276454092E+02  0.37288796286E+03  0.15294330000E+03 0.  1.
<mgrwt>
<rscale>  0 0.37070641E+03</rscale>
<asrwt>0</asrwt>
<pdfrwt beam="1">  1        2 0.15074797E+00 0.37070641E+03</pdfrwt>
<pdfrwt beam="2">  1       -2 0.38278677E-01 0.37070641E+03</pdfrwt>
<totfact> 0.17461093E+02</totfact>
</mgrwt>
</event>
<event>
 4    1  0.4880711E-008  0.5556540E+03  0.7818608E-02  0.1000194E+00
          2   -1    0    0  501    0  0.00000000000E+00  0.00000000000E+00  0.10923847936E+04  0.10923847936E+04  0.25500000000E-02 0. -1.
         -2   -1    0    0    0  501 -0.00000000000E+00 -0.00000000000E+00 -0.30531232337E+03  0.30531232338E+03  0.25500000000E-02 0.  1.
    8880022    1    1    2    0    0 -0.14346103117E+03 -0.51456641835E+03  0.58397778812E+03  0.80609017882E+03  0.15294330000E+03 0.  0.
    8880022    1    1    2    0    0  0.14346103117E+03  0.51456641835E+03  0.20309468210E+03  0.59160693815E+03  0.15294330000E+03 0.  0.
<mgrwt>
<rscale>  0 0.55565396E+03</rscale>
<asrwt>0</asrwt>
<pdfrwt beam="1">  1        2 0.16805920E+00 0.55565396E+03</pdfrwt>
<pdfrwt beam="2">  1       -2 0.46971127E-01 0.55565396E+03</pdfrwt>
<totfact> 0.97669198E+01</totfact>
</mgrwt>
</event>
<event>
 4    1  0.4880711E-008  0.2750741E+03  0.7818608E-02  0.1098410E+00
         -2   -1    0    0    0  501 -0.00000000000E+00  0.00000000000E+00  0.22616263186E+04  0.22616263186E+04  0.25500000000E-02 0.  1.
          2   -1    0    0  501    0  0.00000000000E+00 -0.00000000000E+00 -0.57259017276E+03  0.57259017277E+03  0.25500000000E-02 0. -1.
    8880022    1    1    2    0    0  0.16551552457E+03  0.15772986986E+03 -0.53056637607E+03  0.59763402944E+03  0.15294330000E+03 0.  0.
    8880022    1    1    2    0    0 -0.16551552457E+03 -0.15772986986E+03  0.22196025219E+04  0.22365824620E+04  0.15294330000E+03 0.  1.
<mgrwt>
<rscale>  0 0.27507409E+03</rscale>
<asrwt>0</asrwt>
<pdfrwt beam="1">  1        2 0.88090794E-01 0.27507409E+03</pdfrwt>
<pdfrwt beam="2">  1       -2 0.34794252E+00 0.27507409E+03</pdfrwt>
<totfact> 0.10223673E+00</totfact>
</mgrwt>
</event>
<event>
 4    1  0.4880711E-008  0.7160194E+03  0.7818608E-02  0.9690222E-01
         -2   -1    0    0    0  501 -0.00000000000E+00  0.00000000000E+00  0.25308402143E+03  0.25308402144E+03  0.25500000000E-02 0.  1.
          2   -1    0    0  501    0  0.00000000000E+00 -0.00000000000E+00 -0.21972063973E+04  0.21972063973E+04  0.25500000000E-02 0. -1.
    8880022    1    1    2    0    0  0.69063951925E+03 -0.11094650974E+03 -0.62981774199E+03  0.95360060545E+03  0.15294330000E+03 0.  0.
    8880022    1    1    2    0    0 -0.69063951925E+03  0.11094650974E+03 -0.13143046339E+04  0.14966898133E+04  0.15294330000E+03 0.  0.
<mgrwt>
<rscale>  0 0.71601936E+03</rscale>
<asrwt>0</asrwt>
<pdfrwt beam="1">  1        2 0.33803174E+00 0.71601936E+03</pdfrwt>
<pdfrwt beam="2">  1       -2 0.38936005E-01 0.71601936E+03</pdfrwt>
<totfact> 0.33629664E+01</totfact>
</mgrwt>
</event>
<event>
 4    1  0.4880711E-008  0.3698340E+03  0.7818608E-02  0.1054756E+00
         -2   -1    0    0    0  501 -0.00000000000E+00  0.00000000000E+00  0.10283359599E+03  0.10283359603E+03  0.25500000000E-02 0.  1.
          2   -1    0    0  501    0  0.00000000000E+00 -0.00000000000E+00 -0.28966157433E+04  0.28966157433E+04  0.25500000000E-02 0. -1.
    8880022    1    1    2    0    0 -0.32900611552E+03 -0.71697312219E+02 -0.24997904200E+04  0.25270000644E+04  0.15294330000E+03 0. -1.
    8880022    1    1    2    0    0  0.32900611552E+03  0.71697312219E+02 -0.29399172732E+03  0.47244927492E+03  0.15294330000E+03 0.  0.
<mgrwt>
<rscale>  0 0.36983399E+03</rscale>
<asrwt>0</asrwt>
<pdfrwt beam="1">  1        2 0.44563313E+00 0.36983399E+03</pdfrwt>
<pdfrwt beam="2">  1       -2 0.15820555E-01 0.36983399E+03</pdfrwt>
<totfact> 0.73045290E+01</totfact>
</mgrwt>
</event>
<event>
 4    1  0.4880711E-008  0.3177930E+03  0.7818608E-02  0.1076670E+00
          2   -1    0    0  501    0  0.00000000000E+00  0.00000000000E+00  0.66712024202E+03  0.66712024203E+03  0.25500000000E-02 0. -1.
         -2   -1    0    0    0  501 -0.00000000000E+00 -0.00000000000E+00 -0.75497424582E+03  0.75497424582E+03  0.25500000000E-02 0.  1.
    8880022    1    1    2    0    0  0.26454502582E+03 -0.87273696046E+02  0.59184720825E+03  0.67177045160E+03  0.15294330000E+03 0.  0.
    8880022    1    1    2    0    0 -0.26454502582E+03  0.87273696046E+02 -0.67970121205E+03  0.75032403625E+03  0.15294330000E+03 0.  0.
<mgrwt>
<rscale>  0 0.31779305E+03</rscale>
<asrwt>0</asrwt>
<pdfrwt beam="1">  1        2 0.10263388E+00 0.31779305E+03</pdfrwt>
<pdfrwt beam="2">  1       -2 0.11614988E+00 0.31779305E+03</pdfrwt>
<totfact> 0.26847949E+01</totfact>
</mgrwt>
</event>
<event>
 4    1  0.4880711E-008  0.5756555E+03  0.7818608E-02  0.9957241E-01
         -2   -1    0    0    0  501 -0.00000000000E+00  0.00000000000E+00  0.91500106435E+03  0.91500106435E+03  0.25500000000E-02 0.  1.
          2   -1    0    0  501    0  0.00000000000E+00 -0.00000000000E+00 -0.10523715448E+04  0.10523715448E+04  0.25500000000E-02 0. -1.
    8880022    1    1    2    0    0  0.43117536643E+03 -0.34939295716E+03 -0.86532563796E+03  0.10393111891E+04  0.15294330000E+03 0.  0.
    8880022    1    1    2    0    0 -0.43117536643E+03  0.34939295716E+03  0.72795515746E+03  0.92806142007E+03  0.15294330000E+03 0.  0.
<mgrwt>
<rscale>  0 0.57565553E+03</rscale>
<asrwt>0</asrwt>
<pdfrwt beam="1">  1        2 0.16190332E+00 0.57565553E+03</pdfrwt>
<pdfrwt beam="2">  1       -2 0.14076939E+00 0.57565553E+03</pdfrwt>
<totfact> 0.86253336E+00</totfact>
</mgrwt>
</event>
<event>
 4    1  0.4880711E-008  0.3398300E+03  0.7818608E-02  0.1066868E+00
         -2   -1    0    0    0  501 -0.00000000000E+00  0.00000000000E+00  0.10174939239E+04  0.10174939239E+04  0.25500000000E-02 0.  1.
          2   -1    0    0  501    0  0.00000000000E+00 -0.00000000000E+00 -0.21335651247E+03  0.21335651248E+03  0.25500000000E-02 0. -1.
    8880022    1    1    2    0    0  0.14806174472E+03  0.26489709945E+03  0.82309866429E+03  0.89049189649E+03  0.15294330000E+03 0.  0.
    8880022    1    1    2    0    0 -0.14806174472E+03 -0.26489709945E+03 -0.18961252868E+02  0.34035853988E+03  0.15294330000E+03 0.  0.
<mgrwt>
<rscale>  0 0.33982997E+03</rscale>
<asrwt>0</asrwt>
<pdfrwt beam="1">  1        2 0.32824079E-01 0.33982997E+03</pdfrwt>
<pdfrwt beam="2">  1       -2 0.15653752E+00 0.33982997E+03</pdfrwt>
<totfact> 0.44959209E+01</totfact>
</mgrwt>
</event>
<event>
 4    1  0.4880711E-008  0.4771774E+03  0.7818608E-02  0.1019914E+00
         -2   -1    0    0    0  501 -0.00000000000E+00  0.00000000000E+00  0.24424482981E+03  0.24424482983E+03  0.25500000000E-02 0.  1.
          2   -1    0    0  501    0  0.00000000000E+00 -0.00000000000E+00 -0.11363009357E+04  0.11363009357E+04  0.25500000000E-02 0. -1.
    8880022    1    1    2    0    0  0.44083437507E+03 -0.99858066288E+02 -0.73853697136E+03  0.87928100783E+03  0.15294330000E+03 0.  0.
    8880022    1    1    2    0    0 -0.44083437507E+03  0.99858066288E+02 -0.15351913455E+03  0.50126475773E+03  0.15294330000E+03 0.  0.
<mgrwt>
<rscale>  0 0.47717736E+03</rscale>
<asrwt>0</asrwt>
<pdfrwt beam="1">  1        2 0.17481553E+00 0.47717736E+03</pdfrwt>
<pdfrwt beam="2">  1       -2 0.37576128E-01 0.47717736E+03</pdfrwt>
<totfact> 0.14344667E+02</totfact>
</mgrwt>
</event>
<event>
 4    1  0.4880711E-008  0.4162955E+03  0.7818608E-02  0.1038279E+00
          2   -1    0    0  501    0  0.00000000000E+00  0.00000000000E+00  0.10924310688E+04  0.10924310688E+04  0.25500000000E-02 0. -1.
         -2   -1    0    0    0  501 -0.00000000000E+00 -0.00000000000E+00 -0.53764527569E+03  0.53764527569E+03  0.25500000000E-02 0.  1.
    8880022    1    1    2    0    0 -0.51224132272E+02  0.38377912719E+03 -0.40691780564E+03  0.58213751275E+03  0.15294330000E+03 0.  0.
    8880022    1    1    2    0    0  0.51224132272E+02 -0.38377912719E+03  0.96170359871E+03  0.10479388317E+04  0.15294330000E+03 0.  0.
<mgrwt>
<rscale>  0 0.41629555E+03</rscale>
<asrwt>0</asrwt>
<pdfrwt beam="1">  1        2 0.16806632E+00 0.41629555E+03</pdfrwt>
<pdfrwt beam="2">  1       -2 0.82714659E-01 0.41629555E+03</pdfrwt>
<totfact> 0.30032137E+01</totfact>
</mgrwt>
</event>
<event>
 4    1  0.4880711E-008  0.7138118E+03  0.7818608E-02  0.9693899E-01
         -2   -1    0    0    0  501 -0.00000000000E+00  0.00000000000E+00  0.23224718716E+03  0.23224718717E+03  0.25500000000E-02 0.  1.
          2   -1    0    0  501    0  0.00000000000E+00 -0.00000000000E+00 -0.24276957729E+04  0.24276957729E+04  0.25500000000E-02 0. -1.
    8880022    1    1    2    0    0  0.40847035112E+03 -0.56505540174E+03 -0.68499737999E+03  0.98931728904E+03  0.15294330000E+03 0.  0.
    8880022    1    1    2    0    0 -0.40847035112E+03  0.56505540174E+03 -0.15104512058E+04  0.16706256711E+04  0.15294330000E+03 0.  0.
<mgrwt>
<rscale>  0 0.71381180E+03</rscale>
<asrwt>0</asrwt>
<pdfrwt beam="1">  1        2 0.37349164E+00 0.71381180E+03</pdfrwt>
<pdfrwt beam="2">  1       -2 0.35730338E-01 0.71381180E+03</pdfrwt>
<totfact> 0.29554991E+01</totfact>
</mgrwt>
</event>
<event>
 4    1  0.5643881E-008  0.9081051E+03  0.7818608E-02  0.9415506E-01
          2   -1    0    0  501    0  0.00000000000E+00  0.00000000000E+00  0.22899689195E+04  0.22899689195E+04  0.25500000000E-02 0. -1.
         -2   -1    0    0    0  501 -0.00000000000E+00 -0.00000000000E+00 -0.11147536480E+04  0.11147536480E+04  0.25500000000E-02 0.  1.
    8880022    1    1    2    0    0 -0.76756899334E+03 -0.46054423835E+03 -0.81304831655E+03  0.12188939138E+04  0.15294330000E+03 0.  1.
    8880022    1    1    2    0    0  0.76756899334E+03  0.46054423835E+03  0.19882635880E+04  0.21858286537E+04  0.15294330000E+03 0.  0.
<mgrwt>
<rscale>  0 0.90810506E+03</rscale>
<asrwt>0</asrwt>
<pdfrwt beam="1">  1        2 0.35230290E+00 0.90810506E+03</pdfrwt>
<pdfrwt beam="2">  1       -2 0.17150057E+00 0.90810506E+03</pdfrwt>
<totfact> 0.97155925E-01</totfact>
</mgrwt>
</event>
<event>
 4    1  0.4880711E-008  0.7604820E+03  0.7818608E-02  0.9619048E-01
          2   -1    0    0  501    0  0.00000000000E+00  0.00000000000E+00  0.67949624654E+03  0.67949624654E+03  0.25500000000E-02 0. -1.
         -2   -1    0    0    0  501 -0.00000000000E+00 -0.00000000000E+00 -0.10646597128E+04  0.10646597128E+04  0.25500000000E-02 0.  1.
    8880022    1    1    2    0    0  0.43815082301E+03  0.60246578941E+03 -0.58314308843E+03  0.95832598093E+03  0.15294330000E+03 0.  0.
    8880022    1    1    2    0    0 -0.43815082301E+03 -0.60246578941E+03  0.19797962220E+03  0.78582997839E+03  0.15294330000E+03 0.  0.
<mgrwt>
<rscale>  0 0.76048197E+03</rscale>
<asrwt>0</asrwt>
<pdfrwt beam="1">  1        2 0.10453788E+00 0.76048197E+03</pdfrwt>
<pdfrwt beam="2">  1       -2 0.16379380E+00 0.76048197E+03</pdfrwt>
<totfact> 0.10201249E+01</totfact>
</mgrwt>
</event>
<event>
 4    1  0.4880711E-008  0.3692771E+03  0.7818608E-02  0.1054970E+00
          2   -1    0    0  501    0  0.00000000000E+00  0.00000000000E+00  0.74858894236E+03  0.74858894237E+03  0.25500000000E-02 0. -1.
         -2   -1    0    0    0  501 -0.00000000000E+00 -0.00000000000E+00 -0.69339047353E+03  0.69339047353E+03  0.25500000000E-02 0.  1.
    8880022    1    1    2    0    0  0.33134318406E+03  0.56441258147E+02 -0.59148110825E+03  0.69729152847E+03  0.15294330000E+03 0.  0.
    8880022    1    1    2    0    0 -0.33134318406E+03 -0.56441258147E+02  0.64667957709E+03  0.74468788743E+03  0.15294330000E+03 0.  0.
<mgrwt>
<rscale>  0 0.36927710E+03</rscale>
<asrwt>0</asrwt>
<pdfrwt beam="1">  1        2 0.11516753E+00 0.36927710E+03</pdfrwt>
<pdfrwt beam="2">  1       -2 0.10667546E+00 0.36927710E+03</pdfrwt>
<totfact> 0.28276461E+01</totfact>
</mgrwt>
</event>
<event>
 4    1  0.4880711E-008  0.3638087E+03  0.7818608E-02  0.1057086E+00
         -2   -1    0    0    0  501 -0.00000000000E+00  0.00000000000E+00  0.50750105709E+03  0.50750105710E+03  0.25500000000E-02 0.  1.
          2   -1    0    0  501    0  0.00000000000E+00 -0.00000000000E+00 -0.83630391465E+03  0.83630391465E+03  0.25500000000E-02 0. -1.
    8880022    1    1    2    0    0  0.10572935000E+03 -0.31270818465E+03  0.39297418819E+03  0.53552354738E+03  0.15294330000E+03 0.  0.
    8880022    1    1    2    0    0 -0.10572935000E+03  0.31270818465E+03 -0.72177704575E+03  0.80828142437E+03  0.15294330000E+03 0.  0.
<mgrwt>
<rscale>  0 0.36380868E+03</rscale>
<asrwt>0</asrwt>
<pdfrwt beam="1">  1        2 0.12866214E+00 0.36380868E+03</pdfrwt>
<pdfrwt beam="2">  1       -2 0.78077086E-01 0.36380868E+03</pdfrwt>
<totfact> 0.50191253E+01</totfact>
</mgrwt>
</event>
<event>
 4    1  0.4880711E-008  0.6105133E+03  0.7818608E-02  0.9883831E-01
          2   -1    0    0  501    0  0.00000000000E+00  0.00000000000E+00  0.18549548828E+04  0.18549548828E+04  0.25500000000E-02 0. -1.
         -2   -1    0    0    0  501 -0.00000000000E+00 -0.00000000000E+00 -0.28577475138E+03  0.28577475139E+03  0.25500000000E-02 0.  1.
    8880022    1    1    2    0    0 -0.47696855663E+03 -0.34904997232E+03  0.20138946607E+03  0.64287188245E+03  0.15294330000E+03 0.  0.
    8880022    1    1    2    0    0  0.47696855663E+03  0.34904997232E+03  0.13677906654E+04  0.14978577517E+04  0.15294330000E+03 0.  0.
<mgrwt>
<rscale>  0 0.61051334E+03</rscale>
<asrwt>0</asrwt>
<pdfrwt beam="1">  1        2 0.28537767E+00 0.61051334E+03</pdfrwt>
<pdfrwt beam="2">  1       -2 0.43965347E-01 0.61051334E+03</pdfrwt>
<totfact> 0.41341758E+01</totfact>
</mgrwt>
</event>
<event>
 4    1  0.4880711E-008  0.4330143E+03  0.7818608E-02  0.1032912E+00
         -2   -1    0    0    0  501 -0.00000000000E+00  0.00000000000E+00  0.27795660184E+03  0.27795660186E+03  0.25500000000E-02 0.  1.
          2   -1    0    0  501    0  0.00000000000E+00 -0.00000000000E+00 -0.28744840857E+04  0.28744840857E+04  0.25500000000E-02 0. -1.
    8880022    1    1    2    0    0  0.20360337622E+03  0.35022196935E+03  0.80658422896E+02  0.44046248061E+03  0.15294330000E+03 0.  0.
    8880022    1    1    2    0    0 -0.20360337622E+03 -0.35022196935E+03 -0.26771859067E+04  0.27119782069E+04  0.15294330000E+03 0.  0.
<mgrwt>
<rscale>  0 0.43301434E+03</rscale>
<asrwt>0</asrwt>
<pdfrwt beam="1">  1        2 0.44222830E+00 0.43301434E+03</pdfrwt>
<pdfrwt beam="2">  1       -2 0.42762556E-01 0.43301434E+03</pdfrwt>
<totfact> 0.12295585E+01</totfact>
</mgrwt>
</event>
<event>
 4    1  0.4880711E-008  0.4633054E+03  0.7818608E-02  0.1023827E+00
         -2   -1    0    0    0  501 -0.00000000000E+00  0.00000000000E+00  0.23849574766E+04  0.23849574767E+04  0.25500000000E-02 0.  1.
          2   -1    0    0  501    0  0.00000000000E+00 -0.00000000000E+00 -0.59313800172E+03  0.59313800172E+03  0.25500000000E-02 0. -1.
    8880022    1    1    2    0    0  0.10693013622E+03 -0.42405913346E+03  0.22673385791E+04  0.23141901582E+04  0.15294330000E+03 0.  0.
    8880022    1    1    2    0    0 -0.10693013622E+03  0.42405913346E+03 -0.47551910421E+03  0.66390532020E+03  0.15294330000E+03 0.  0.
<mgrwt>
<rscale>  0 0.46330536E+03</rscale>
<asrwt>0</asrwt>
<pdfrwt beam="1">  1        2 0.91252000E-01 0.46330536E+03</pdfrwt>
<pdfrwt beam="2">  1       -2 0.36691654E+00 0.46330536E+03</pdfrwt>
<totfact> 0.69423171E-01</totfact>
</mgrwt>
</event>
<event>
 4    1  0.4880711E-008  0.2472006E+03  0.7818608E-02  0.1115087E+00
         -2   -1    0    0    0  501 -0.00000000000E+00  0.00000000000E+00  0.35099899024E+03  0.35099899025E+03  0.25500000000E-02 0.  1.
          2   -1    0    0  501    0  0.00000000000E+00 -0.00000000000E+00 -0.18182590056E+04  0.18182590056E+04  0.25500000000E-02 0. -1.
    8880022    1    1    2    0    0 -0.61699371381E+02  0.18414582479E+03  0.29776621528E+03  0.38700499892E+03  0.15294330000E+03 0.  0.
    8880022    1    1    2    0    0  0.61699371381E+02 -0.18414582479E+03 -0.17650262307E+04  0.17822529969E+04  0.15294330000E+03 0.  0.
<mgrwt>
<rscale>  0 0.24720063E+03</rscale>
<asrwt>0</asrwt>
<pdfrwt beam="1">  1        2 0.27973215E+00 0.24720063E+03</pdfrwt>
<pdfrwt beam="2">  1       -2 0.53999846E-01 0.24720063E+03</pdfrwt>
<totfact> 0.31183755E+01</totfact>
</mgrwt>
</event>
<event>
 4    1  0.4880711E-008  0.1541496E+03  0.7818608E-02  0.1195465E+00
         -2   -1    0    0    0  501 -0.00000000000E+00  0.00000000000E+00  0.38216223973E+03  0.38216223974E+03  0.25500000000E-02 0.  1.
          2   -1    0    0  501    0  0.00000000000E+00 -0.00000000000E+00 -0.12857760972E+04  0.12857760972E+04  0.25500000000E-02 0. -1.
    8880022    1    1    2    0    0  0.16563954158E+02  0.98020368283E+01  0.36174768316E+03  0.39322192689E+03  0.15294330000E+03 0.  0.
    8880022    1    1    2    0    0 -0.16563954158E+02 -0.98020368283E+01 -0.12653615407E+04  0.12747164101E+04  0.15294330000E+03 0. -1.
<mgrwt>
<rscale>  0 0.15414959E+03</rscale>
<asrwt>0</asrwt>
<pdfrwt beam="1">  1        2 0.19781170E+00 0.15414959E+03</pdfrwt>
<pdfrwt beam="2">  1       -2 0.58794191E-01 0.15414959E+03</pdfrwt>
<totfact> 0.52209499E+01</totfact>
</mgrwt>
</event>
<event>
 4    1  0.4880711E-008  0.2074798E+03  0.7818608E-02  0.1143577E+00
         -2   -1    0    0    0  501 -0.00000000000E+00  0.00000000000E+00  0.22069758179E+02  0.22069758326E+02  0.25500000000E-02 0.  1.
          2   -1    0    0  501    0  0.00000000000E+00 -0.00000000000E+00 -0.26655117600E+04  0.26655117600E+04  0.25500000000E-02 0. -1.
    8880022    1    1    2    0    0 -0.39665813721E+02 -0.13447239176E+03 -0.62575653941E+03  0.65925647554E+03  0.15294330000E+03 0.  0.
    8880022    1    1    2    0    0  0.39665813721E+02  0.13447239176E+03 -0.20176854624E+04  0.20283250428E+04  0.15294330000E+03 0.  1.
<mgrwt>
<rscale>  0 0.20747977E+03</rscale>
<asrwt>0</asrwt>
<pdfrwt beam="1">  1        2 0.41007848E+00 0.20747977E+03</pdfrwt>
<pdfrwt beam="2">  1       -2 0.33953495E-02 0.20747977E+03</pdfrwt>
<totfact> 0.11544516E+03</totfact>
</mgrwt>
</event>
<event>
 4    1  0.4880711E-008  0.2590101E+03  0.7818608E-02  0.1107739E+00
          2   -1    0    0  501    0  0.00000000000E+00  0.00000000000E+00  0.84537964246E+03  0.84537964247E+03  0.25500000000E-02 0. -1.
         -2   -1    0    0    0  501 -0.00000000000E+00 -0.00000000000E+00 -0.12850535907E+03  0.12850535910E+03  0.25500000000E-02 0.  1.
    8880022    1    1    2    0    0 -0.20839616497E+03  0.16298217029E+02  0.65958128819E+03  0.70861394440E+03  0.15294330000E+03 0.  0.
    8880022    1    1    2    0    0  0.20839616497E+03 -0.16298217029E+02  0.57292995195E+02  0.26527105716E+03  0.15294330000E+03 0.  1.
<mgrwt>
<rscale>  0 0.25901013E+03</rscale>
<asrwt>0</asrwt>
<pdfrwt beam="1">  1        2 0.13005841E+00 0.25901013E+03</pdfrwt>
<pdfrwt beam="2">  1       -2 0.19770055E-01 0.25901013E+03</pdfrwt>
<totfact> 0.71104004E+02</totfact>
</mgrwt>
</event>
<event>
 4    1  0.4880711E-008  0.7000703E+03  0.7818608E-02  0.9717112E-01
          2   -1    0    0  501    0  0.00000000000E+00  0.00000000000E+00  0.30517064144E+04  0.30517064144E+04  0.25500000000E-02 0. -1.
         -2   -1    0    0    0  501 -0.00000000000E+00 -0.00000000000E+00 -0.17099420190E+03  0.17099420192E+03  0.25500000000E-02 0.  1.
    8880022    1    1    2    0    0 -0.68108915023E+03 -0.53144889612E+02  0.10430428144E+04  0.12561993375E+04  0.15294330000E+03 0.  0.
    8880022    1    1    2    0    0  0.68108915023E+03  0.53144889612E+02  0.18376693982E+04  0.19665012789E+04  0.15294330000E+03 0.  0.
<mgrwt>
<rscale>  0 0.70007033E+03</rscale>
<asrwt>0</asrwt>
<pdfrwt beam="1">  1        2 0.46949330E+00 0.70007033E+03</pdfrwt>
<pdfrwt beam="2">  1       -2 0.26306800E-01 0.70007033E+03</pdfrwt>
<totfact> 0.22565863E+01</totfact>
</mgrwt>
</event>
<event>
 4    1  0.4880711E-008  0.2443783E+03  0.7818608E-02  0.1116910E+00
          2   -1    0    0  501    0  0.00000000000E+00  0.00000000000E+00  0.52266270961E+03  0.52266270961E+03  0.25500000000E-02 0. -1.
         -2   -1    0    0    0  501 -0.00000000000E+00 -0.00000000000E+00 -0.14974474670E+03  0.14974474672E+03  0.25500000000E-02 0.  1.
    8880022    1    1    2    0    0 -0.15753459391E+03  0.10729387327E+03  0.22802975828E+02  0.24543991575E+03  0.15294330000E+03 0.  1.
    8880022    1    1    2    0    0  0.15753459391E+03 -0.10729387327E+03  0.35011498708E+03  0.42696754058E+03  0.15294330000E+03 0.  0.
<mgrwt>
<rscale>  0 0.24437835E+03</rscale>
<asrwt>0</asrwt>
<pdfrwt beam="1">  1        2 0.80409649E-01 0.24437835E+03</pdfrwt>
<pdfrwt beam="2">  1       -2 0.23037653E-01 0.24437835E+03</pdfrwt>
<totfact> 0.97388307E+02</totfact>
</mgrwt>
</event>
<event>
 4    1  0.4880711E-008  0.1070744E+04  0.7818608E-02  0.9234186E-01
         -2   -1    0    0    0  501 -0.00000000000E+00  0.00000000000E+00  0.50008494588E+03  0.50008494589E+03  0.25500000000E-02 0.  1.
          2   -1    0    0  501    0  0.00000000000E+00 -0.00000000000E+00 -0.30405305450E+04  0.30405305450E+04  0.25500000000E-02 0. -1.
    8880022    1    1    2    0    0 -0.33050384708E+03  0.10069100717E+04 -0.21482462542E+04  0.24003029615E+04  0.15294330000E+03 0.  0.
    8880022    1    1    2    0    0  0.33050384708E+03 -0.10069100717E+04 -0.39219934500E+03  0.11403125294E+04  0.15294330000E+03 0.  0.
<mgrwt>
<rscale>  0 0.10707438E+04</rscale>
<asrwt>0</asrwt>
<pdfrwt beam="1">  1        2 0.46777392E+00 0.10707438E+04</pdfrwt>
<pdfrwt beam="2">  1       -2 0.76936147E-01 0.10707438E+04</pdfrwt>
<totfact> 0.25064932E+00</totfact>
</mgrwt>
</event>
<event>
 4    1  0.4880711E-008  0.2855375E+03  0.7818608E-02  0.1092702E+00
          2   -1    0    0  501    0  0.00000000000E+00  0.00000000000E+00  0.18633635392E+04  0.18633635392E+04  0.25500000000E-02 0. -1.
         -2   -1    0    0    0  501 -0.00000000000E+00 -0.00000000000E+00 -0.18149259777E+03  0.18149259779E+03  0.25500000000E-02 0.  1.
    8880022    1    1    2    0    0  0.19263058048E+03  0.14502914377E+03 -0.49760340098E+02  0.28984088314E+03  0.15294330000E+03 0.  0.
    8880022    1    1    2    0    0 -0.19263058048E+03 -0.14502914377E+03  0.17316312815E+04  0.17550152538E+04  0.15294330000E+03 0.  0.
<mgrwt>
<rscale>  0 0.28553747E+03</rscale>
<asrwt>0</asrwt>
<pdfrwt beam="1">  1        2 0.28667131E+00 0.28553747E+03</pdfrwt>
<pdfrwt beam="2">  1       -2 0.27921938E-01 0.28553747E+03</pdfrwt>
<totfact> 0.10278048E+02</totfact>
</mgrwt>
</event>
<event>
 4    1  0.4880711E-008  0.6471891E+03  0.7818608E-02  0.9812068E-01
         -2   -1    0    0    0  501 -0.00000000000E+00  0.00000000000E+00  0.25545357908E+03  0.25545357909E+03  0.25500000000E-02 0.  1.
          2   -1    0    0  501    0  0.00000000000E+00 -0.00000000000E+00 -0.22475339165E+04  0.22475339165E+04  0.25500000000E-02 0. -1.
    8880022    1    1    2    0    0 -0.39675498466E+03  0.48790120436E+03 -0.16468991008E+04  0.17695000436E+04  0.15294330000E+03 0.  0.
    8880022    1    1    2    0    0  0.39675498466E+03 -0.48790120436E+03 -0.34518123657E+03  0.73348745195E+03  0.15294330000E+03 0.  0.
<mgrwt>
<rscale>  0 0.64718912E+03</rscale>
<asrwt>0</asrwt>
<pdfrwt beam="1">  1        2 0.34577444E+00 0.64718912E+03</pdfrwt>
<pdfrwt beam="2">  1       -2 0.39300552E-01 0.64718912E+03</pdfrwt>
<totfact> 0.31308893E+01</totfact>
</mgrwt>
</event>
<event>
 4    1  0.4880711E-008  0.1761865E+03  0.7818608E-02  0.1171546E+00
          2   -1    0    0  501    0  0.00000000000E+00  0.00000000000E+00  0.10445294601E+04  0.10445294601E+04  0.25500000000E-02 0. -1.
         -2   -1    0    0    0  501 -0.00000000000E+00 -0.00000000000E+00 -0.45679741102E+03  0.45679741102E+03  0.25500000000E-02 0.  1.
    8880022    1    1    2    0    0 -0.84051094995E+02  0.24195707711E+02 -0.43196845480E+03  0.46651732851E+03  0.15294330000E+03 0.  1.
    8880022    1    1    2    0    0  0.84051094995E+02 -0.24195707711E+02  0.10197005039E+04  0.10348095426E+04  0.15294330000E+03 0.  0.
<mgrwt>
<rscale>  0 0.17618647E+03</rscale>
<asrwt>0</asrwt>
<pdfrwt beam="1">  1        2 0.16069684E+00 0.17618647E+03</pdfrwt>
<pdfrwt beam="2">  1       -2 0.70276526E-01 0.17618647E+03</pdfrwt>
<totfact> 0.48753640E+01</totfact>
</mgrwt>
</event>
<event>
 4    1  0.4880711E-008  0.3002832E+03  0.7818608E-02  0.1085099E+00
          2   -1    0    0  501    0  0.00000000000E+00  0.00000000000E+00  0.16375851729E+03  0.16375851731E+03  0.25500000000E-02 0. -1.
         -2   -1    0    0    0  501 -0.00000000000E+00 -0.00000000000E+00 -0.24458941827E+04  0.24458941827E+04  0.25500000000E-02 0.  1.
    8880022    1    1    2    0    0 -0.30394098116E+02 -0.25662134949E+03 -0.22896684110E+04  0.23092750819E+04  0.15294330000E+03 0.  1.
    8880022    1    1    2    0    0  0.30394098116E+02  0.25662134949E+03  0.75327456240E+01  0.30037761815E+03  0.15294330000E+03 0.  0.
<mgrwt>
<rscale>  0 0.30028315E+03</rscale>
<asrwt>0</asrwt>
<pdfrwt beam="1">  1        2 0.25193620E-01 0.30028315E+03</pdfrwt>
<pdfrwt beam="2">  1       -2 0.37629139E+00 0.30028315E+03</pdfrwt>
<totfact> 0.26920060E+00</totfact>
</mgrwt>
</event>
<event>
 4    1  0.4880711E-008  0.4969439E+03  0.7818608E-02  0.1014580E+00
          2   -1    0    0  501    0  0.00000000000E+00  0.00000000000E+00  0.93823310316E+03  0.93823310316E+03  0.25500000000E-02 0. -1.
         -2   -1    0    0    0  501 -0.00000000000E+00 -0.00000000000E+00 -0.30058111242E+03  0.30058111243E+03  0.25500000000E-02 0.  1.
    8880022    1    1    2    0    0 -0.44072457267E+03 -0.17124075176E+03  0.10042328904E+03  0.50698918530E+03  0.15294330000E+03 0.  0.
    8880022    1    1    2    0    0  0.44072457267E+03  0.17124075176E+03  0.53722870170E+03  0.73182503029E+03  0.15294330000E+03 0.  0.
<mgrwt>
<rscale>  0 0.49694386E+03</rscale>
<asrwt>0</asrwt>
<pdfrwt beam="1">  1        2 0.14434355E+00 0.49694386E+03</pdfrwt>
<pdfrwt beam="2">  1       -2 0.46243248E-01 0.49694386E+03</pdfrwt>
<totfact> 0.12661882E+02</totfact>
</mgrwt>
</event>
<event>
 4    1  0.4880711E-008  0.9925790E+03  0.7818608E-02  0.9316722E-01
         -2   -1    0    0    0  501 -0.00000000000E+00  0.00000000000E+00  0.98762474416E+03  0.98762474417E+03  0.25500000000E-02 0.  1.
          2   -1    0    0  501    0  0.00000000000E+00 -0.00000000000E+00 -0.11382210850E+04  0.11382210850E+04  0.25500000000E-02 0. -1.
    8880022    1    1    2    0    0 -0.29147510093E+03  0.93640994576E+03 -0.44895980630E+03  0.10893933549E+04  0.15294330000E+03 0. -1.
    8880022    1    1    2    0    0  0.29147510093E+03 -0.93640994576E+03  0.29836346545E+03  0.10364524743E+04  0.15294330000E+03 0.  0.
<mgrwt>
<rscale>  0 0.99257895E+03</rscale>
<asrwt>0</asrwt>
<pdfrwt beam="1">  1        2 0.17511094E+00 0.99257895E+03</pdfrwt>
<pdfrwt beam="2">  1       -2 0.15194227E+00 0.99257895E+03</pdfrwt>
<totfact> 0.59283592E+00</totfact>
</mgrwt>
</event>
<event>
 4    1  0.4880711E-008  0.7581959E+03  0.7818608E-02  0.9622579E-01
         -2   -1    0    0    0  501 -0.00000000000E+00  0.00000000000E+00  0.14420684051E+04  0.14420684051E+04  0.25500000000E-02 0.  1.
          2   -1    0    0  501    0  0.00000000000E+00 -0.00000000000E+00 -0.71516886366E+03  0.71516886366E+03  0.25500000000E-02 0. -1.
    8880022    1    1    2    0    0  0.23542386614E+03 -0.70430464519E+03  0.10810336757E+04  0.13204146663E+04  0.15294330000E+03 0.  0.
    8880022    1    1    2    0    0 -0.23542386614E+03  0.70430464519E+03 -0.35413413422E+03  0.83682260248E+03  0.15294330000E+03 0. -1.
<mgrwt>
<rscale>  0 0.75819594E+03</rscale>
<asrwt>0</asrwt>
<pdfrwt beam="1">  1        2 0.11002598E+00 0.75819594E+03</pdfrwt>
<pdfrwt beam="2">  1       -2 0.22185667E+00 0.75819594E+03</pdfrwt>
<totfact> 0.39266273E+00</totfact>
</mgrwt>
</event>
<event>
 4    1  0.4880711E-008  0.5907903E+03  0.7818608E-02  0.9924700E-01
         -2   -1    0    0    0  501 -0.00000000000E+00  0.00000000000E+00  0.16486525881E+04  0.16486525881E+04  0.25500000000E-02 0.  1.
          2   -1    0    0  501    0  0.00000000000E+00 -0.00000000000E+00 -0.92058163352E+03  0.92058163352E+03  0.25500000000E-02 0. -1.
    8880022    1    1    2    0    0 -0.55203521519E+03 -0.14456370246E+03 -0.76323183496E+03  0.96517150279E+03  0.15294330000E+03 0.  0.
    8880022    1    1    2    0    0  0.55203521519E+03  0.14456370246E+03  0.14913027896E+04  0.16040627189E+04  0.15294330000E+03 0.  0.
<mgrwt>
<rscale>  0 0.59079031E+03</rscale>
<asrwt>0</asrwt>
<pdfrwt beam="1">  1        2 0.14162795E+00 0.59079031E+03</pdfrwt>
<pdfrwt beam="2">  1       -2 0.25363886E+00 0.59079031E+03</pdfrwt>
<totfact> 0.18469245E+00</totfact>
</mgrwt>
</event>
<event>
 4    1  0.6195346E-008  0.9671964E+03  0.7818608E-02  0.9345273E-01
          2   -1    0    0  501    0  0.00000000000E+00  0.00000000000E+00  0.24269263307E+04  0.24269263307E+04  0.25500000000E-02 0. -1.
         -2   -1    0    0    0  501 -0.00000000000E+00 -0.00000000000E+00 -0.10034987640E+04  0.10034987640E+04  0.25500000000E-02 0.  1.
    8880022    1    1    2    0    0 -0.47217922588E+03  0.83013498518E+03  0.20577892736E+04  0.22737558493E+04  0.15294330000E+03 0.  0.
    8880022    1    1    2    0    0  0.47217922588E+03 -0.83013498518E+03 -0.63436170682E+03  0.11566692453E+04  0.15294330000E+03 0.  0.
<mgrwt>
<rscale>  0 0.96719645E+03</rscale>
<asrwt>0</asrwt>
<pdfrwt beam="1">  1        2 0.37337327E+00 0.96719645E+03</pdfrwt>
<pdfrwt beam="2">  1       -2 0.15438443E+00 0.96719645E+03</pdfrwt>
<totfact> 0.10746781E+00</totfact>
</mgrwt>
</event>
<event>
 4    1  0.4880711E-008  0.9231553E+03  0.7818608E-02  0.9397090E-01
         -2   -1    0    0    0  501 -0.00000000000E+00  0.00000000000E+00  0.80971073001E+03  0.80971073001E+03  0.25500000000E-02 0.  1.
          2   -1    0    0  501    0  0.00000000000E+00 -0.00000000000E+00 -0.16462707949E+04  0.16462707949E+04  0.25500000000E-02 0. -1.
    8880022    1    1    2    0    0  0.65408181533E+03  0.63324649614E+03 -0.11557698392E+04  0.14791956328E+04  0.15294330000E+03 0.  0.
    8880022    1    1    2    0    0 -0.65408181533E+03 -0.63324649614E+03  0.31920977425E+03  0.97678589211E+03  0.15294330000E+03 0.  0.
<mgrwt>
<rscale>  0 0.92315535E+03</rscale>
<asrwt>0</asrwt>
<pdfrwt beam="1">  1        2 0.25327243E+00 0.92315535E+03</pdfrwt>
<pdfrwt beam="2">  1       -2 0.12457088E+00 0.92315535E+03</pdfrwt>
<totfact> 0.51019953E+00</totfact>
</mgrwt>
</event>
<event>
 4    1  0.4880711E-008  0.6745641E+03  0.7818608E-02  0.9761748E-01
         -2   -1    0    0    0  501 -0.00000000000E+00  0.00000000000E+00  0.30501809410E+03  0.30501809411E+03  0.25500000000E-02 0.  1.
          2   -1    0    0  501    0  0.00000000000E+00 -0.00000000000E+00 -0.25127190980E+04  0.25127190980E+04  0.25500000000E-02 0. -1.
    8880022    1    1    2    0    0  0.25892872506E+03 -0.60382193348E+03 -0.20018720140E+04  0.21124696981E+04  0.15294330000E+03 0.  0.
    8880022    1    1    2    0    0 -0.25892872506E+03  0.60382193348E+03 -0.20582898993E+03  0.70526749402E+03  0.15294330000E+03 0.  0.
<mgrwt>
<rscale>  0 0.67456406E+03</rscale>
<asrwt>0</asrwt>
<pdfrwt beam="1">  1        2 0.38657216E+00 0.67456406E+03</pdfrwt>
<pdfrwt beam="2">  1       -2 0.46925862E-01 0.67456406E+03</pdfrwt>
<totfact> 0.15625934E+01</totfact>
</mgrwt>
</event>
<event>
 4    1  0.4880711E-008  0.3960346E+03  0.7818608E-02  0.1045161E+00
          2   -1    0    0  501    0  0.00000000000E+00  0.00000000000E+00  0.55661153363E+03  0.55661153364E+03  0.25500000000E-02 0. -1.
         -2   -1    0    0    0  501 -0.00000000000E+00 -0.00000000000E+00 -0.15950556453E+04  0.15950556453E+04  0.25500000000E-02 0.  1.
    8880022    1    1    2    0    0 -0.35320021360E+03  0.93281190836E+02 -0.14954128365E+04  0.15469657320E+04  0.15294330000E+03 0.  0.
    8880022    1    1    2    0    0  0.35320021360E+03 -0.93281190836E+02  0.45696872482E+03  0.60470144694E+03  0.15294330000E+03 0.  0.
<mgrwt>
<rscale>  0 0.39603463E+03</rscale>
<asrwt>0</asrwt>
<pdfrwt beam="1">  1        2 0.85632544E-01 0.39603463E+03</pdfrwt>
<pdfrwt beam="2">  1       -2 0.24539317E+00 0.39603463E+03</pdfrwt>
<totfact> 0.40912734E+00</totfact>
</mgrwt>
</event>
<event>
 4    1  0.4880711E-008  0.3506112E+03  0.7818608E-02  0.1062364E+00
          2   -1    0    0  501    0  0.00000000000E+00  0.00000000000E+00  0.86434308481E+03  0.86434308482E+03  0.25500000000E-02 0. -1.
         -2   -1    0    0    0  501 -0.00000000000E+00 -0.00000000000E+00 -0.15430134577E+03  0.15430134579E+03  0.25500000000E-02 0.  1.
    8880022    1    1    2    0    0 -0.31540612377E+03 -0.74541435652E+01  0.49752813235E+03  0.60865629272E+03  0.15294330000E+03 0.  0.
    8880022    1    1    2    0    0  0.31540612377E+03  0.74541435652E+01  0.21251360669E+03  0.40998813789E+03  0.15294330000E+03 0.  0.
<mgrwt>
<rscale>  0 0.35061124E+03</rscale>
<asrwt>0</asrwt>
<pdfrwt beam="1">  1        2 0.13297586E+00 0.35061124E+03</pdfrwt>
<pdfrwt beam="2">  1       -2 0.23738668E-01 0.35061124E+03</pdfrwt>
<totfact> 0.49971926E+02</totfact>
</mgrwt>
</event>
<event>
 4    1  0.4880711E-008  0.3377992E+03  0.7818608E-02  0.1067737E+00
         -2   -1    0    0    0  501 -0.00000000000E+00  0.00000000000E+00  0.54742487342E+03  0.54742487342E+03  0.25500000000E-02 0.  1.
          2   -1    0    0  501    0  0.00000000000E+00 -0.00000000000E+00 -0.20708189160E+04  0.20708189160E+04  0.25500000000E-02 0. -1.
    8880022    1    1    2    0    0  0.10553886642E+03  0.28209606559E+03  0.47979061015E+03  0.58677706597E+03  0.15294330000E+03 0.  0.
    8880022    1    1    2    0    0 -0.10553886642E+03 -0.28209606559E+03 -0.20031846527E+04  0.20314667235E+04  0.15294330000E+03 0. -1.
<mgrwt>
<rscale>  0 0.33779919E+03</rscale>
<asrwt>0</asrwt>
<pdfrwt beam="1">  1        2 0.31858752E+00 0.33779919E+03</pdfrwt>
<pdfrwt beam="2">  1       -2 0.84219212E-01 0.33779919E+03</pdfrwt>
<totfact> 0.85791070E+00</totfact>
</mgrwt>
</event>
<event>
 4    1  0.4880711E-008  0.9897911E+03  0.7818608E-02  0.9319813E-01
         -2   -1    0    0    0  501 -0.00000000000E+00  0.00000000000E+00  0.73020166188E+03  0.73020166188E+03  0.25500000000E-02 0.  1.
          2   -1    0    0  501    0  0.00000000000E+00 -0.00000000000E+00 -0.20960391607E+04  0.20960391607E+04  0.25500000000E-02 0. -1.
    8880022    1    1    2    0    0  0.49681846460E+03 -0.84229812356E+03  0.16484088691E+03  0.10034235829E+04  0.15294330000E+03 0.  0.
    8880022    1    1    2    0    0 -0.49681846460E+03  0.84229812356E+03 -0.15306783857E+04  0.18228172397E+04  0.15294330000E+03 0.  0.
<mgrwt>
<rscale>  0 0.98979107E+03</rscale>
<asrwt>0</asrwt>
<pdfrwt beam="1">  1        2 0.32246756E+00 0.98979107E+03</pdfrwt>
<pdfrwt beam="2">  1       -2 0.11233872E+00 0.98979107E+03</pdfrwt>
<totfact> 0.36952283E+00</totfact>
</mgrwt>
</event>
<event>
 4    1  0.4880711E-008  0.5151489E+03  0.7818608E-02  0.1009899E+00
          2   -1    0    0  501    0  0.00000000000E+00  0.00000000000E+00  0.19424426071E+04  0.19424426071E+04  0.25500000000E-02 0. -1.
         -2   -1    0    0    0  501 -0.00000000000E+00 -0.00000000000E+00 -0.38347846559E+03  0.38347846560E+03  0.25500000000E-02 0.  1.
    8880022    1    1    2    0    0  0.20484217914E+03  0.44724310440E+03 -0.15359530440E+03  0.53755919054E+03  0.15294330000E+03 0.  0.
    8880022    1    1    2    0    0 -0.20484217914E+03 -0.44724310440E+03  0.17125594459E+04  0.17883618821E+04  0.15294330000E+03 0.  0.
<mgrwt>
<rscale>  0 0.51514888E+03</rscale>
<asrwt>0</asrwt>
<pdfrwt beam="1">  1        2 0.29883732E+00 0.51514888E+03</pdfrwt>
<pdfrwt beam="2">  1       -2 0.58996687E-01 0.51514888E+03</pdfrwt>
<totfact> 0.20724629E+01</totfact>
</mgrwt>
</event>
<event>
 4    1  0.4880711E-008  0.3769932E+03  0.7818608E-02  0.1052051E+00
         -2   -1    0    0    0  501 -0.00000000000E+00  0.00000000000E+00  0.82262067767E+03  0.82262067767E+03  0.25500000000E-02 0.  1.
          2   -1    0    0  501    0  0.00000000000E+00 -0.00000000000E+00 -0.35987406794E+03  0.35987406794E+03  0.25500000000E-02 0. -1.
    8880022    1    1    2    0    0  0.22741857358E+03  0.25886876568E+03 -0.19494693517E+03  0.42441513404E+03  0.15294330000E+03 0.  0.
    8880022    1    1    2    0    0 -0.22741857358E+03 -0.25886876568E+03  0.65769354491E+03  0.75807961157E+03  0.15294330000E+03 0.  0.
<mgrwt>
<rscale>  0 0.37699323E+03</rscale>
<asrwt>0</asrwt>
<pdfrwt beam="1">  1        2 0.55365241E-01 0.37699323E+03</pdfrwt>
<pdfrwt beam="2">  1       -2 0.12655703E+00 0.37699323E+03</pdfrwt>
<totfact> 0.43495878E+01</totfact>
</mgrwt>
</event>
<event>
 4    1  0.4880711E-008  0.7360011E+03  0.7818608E-02  0.9657572E-01
          2   -1    0    0  501    0  0.00000000000E+00  0.00000000000E+00  0.15203335954E+04  0.15203335954E+04  0.25500000000E-02 0. -1.
         -2   -1    0    0    0  501 -0.00000000000E+00 -0.00000000000E+00 -0.63396110364E+03  0.63396110364E+03  0.25500000000E-02 0.  1.
    8880022    1    1    2    0    0 -0.63657429396E+03 -0.33627235011E+03  0.11560391698E+04  0.13704466938E+04  0.15294330000E+03 0.  0.
    8880022    1    1    2    0    0  0.63657429396E+03  0.33627235011E+03 -0.26966667805E+03  0.78384800532E+03  0.15294330000E+03 0.  0.
<mgrwt>
<rscale>  0 0.73600107E+03</rscale>
<asrwt>0</asrwt>
<pdfrwt beam="1">  1        2 0.23389747E+00 0.73600107E+03</pdfrwt>
<pdfrwt beam="2">  1       -2 0.97532478E-01 0.73600107E+03</pdfrwt>
<totfact> 0.11123532E+01</totfact>
</mgrwt>
</event>
<event>
 4    1  0.4880711E-008  0.1460315E+04  0.7818608E-02  0.8911280E-01
         -2   -1    0    0    0  501 -0.00000000000E+00  0.00000000000E+00  0.19243948311E+04  0.19243948311E+04  0.25500000000E-02 0.  1.
          2   -1    0    0  501    0  0.00000000000E+00 -0.00000000000E+00 -0.12737318046E+04  0.12737318046E+04  0.25500000000E-02 0. -1.
    8880022    1    1    2    0    0  0.31756551048E+03  0.14171385473E+04 -0.25121042073E+03  0.14817651110E+04  0.15294330000E+03 0.  0.
    8880022    1    1    2    0    0 -0.31756551048E+03 -0.14171385473E+04  0.90187344719E+03  0.17163615247E+04  0.15294330000E+03 0.  0.
<mgrwt>
<rscale>  0 0.14603154E+04</rscale>
<asrwt>0</asrwt>
<pdfrwt beam="1">  1        2 0.19595874E+00 0.14603154E+04</pdfrwt>
<pdfrwt beam="2">  1       -2 0.29606074E+00 0.14603154E+04</pdfrwt>
<totfact> 0.54509758E-01</totfact>
</mgrwt>
</event>
<event>
 4    1  0.4880711E-008  0.4078342E+03  0.7818608E-02  0.1041100E+00
         -2   -1    0    0    0  501 -0.00000000000E+00  0.00000000000E+00  0.39984506037E+03  0.39984506038E+03  0.25500000000E-02 0.  1.
          2   -1    0    0  501    0  0.00000000000E+00 -0.00000000000E+00 -0.10176597785E+04  0.10176597785E+04  0.25500000000E-02 0. -1.
    8880022    1    1    2    0    0 -0.36639352022E+03  0.93235383437E+02 -0.85388027150E+03  0.94627703103E+03  0.15294330000E+03 0. -1.
    8880022    1    1    2    0    0  0.36639352022E+03 -0.93235383437E+02  0.23606555338E+03  0.47122780785E+03  0.15294330000E+03 0.  0.
<mgrwt>
<rscale>  0 0.40783416E+03</rscale>
<asrwt>0</asrwt>
<pdfrwt beam="1">  1        2 0.15656304E+00 0.40783416E+03</pdfrwt>
<pdfrwt beam="2">  1       -2 0.61514625E-01 0.40783416E+03</pdfrwt>
<totfact> 0.63577355E+01</totfact>
</mgrwt>
</event>
<event>
 4    1  0.4880711E-008  0.8812266E+03  0.7818608E-02  0.9449358E-01
         -2   -1    0    0    0  501 -0.00000000000E+00  0.00000000000E+00  0.39407087142E+03  0.39407087143E+03  0.25500000000E-02 0.  1.
          2   -1    0    0  501    0  0.00000000000E+00 -0.00000000000E+00 -0.20097936570E+04  0.20097936570E+04  0.25500000000E-02 0. -1.
    8880022    1    1    2    0    0  0.86690721862E+03  0.40503999844E+02 -0.97568450849E+03  0.13147321449E+04  0.15294330000E+03 0.  0.
    8880022    1    1    2    0    0 -0.86690721862E+03 -0.40503999844E+02 -0.64003827708E+03  0.10891323835E+04  0.15294330000E+03 0.  0.
<mgrwt>
<rscale>  0 0.88122662E+03</rscale>
<asrwt>0</asrwt>
<pdfrwt beam="1">  1        2 0.30919902E+00 0.88122662E+03</pdfrwt>
<pdfrwt beam="2">  1       -2 0.60626289E-01 0.88122662E+03</pdfrwt>
<totfact> 0.17002414E+01</totfact>
</mgrwt>
</event>
<event>
 4    1  0.4880711E-008  0.1848395E+03  0.7818608E-02  0.1163200E+00
         -2   -1    0    0    0  501 -0.00000000000E+00  0.00000000000E+00  0.51674861399E+02  0.51674861461E+02  0.25500000000E-02 0.  1.
          2   -1    0    0  501    0  0.00000000000E+00 -0.00000000000E+00 -0.25958177960E+04  0.25958177960E+04  0.25500000000E-02 0. -1.
    8880022    1    1    2    0    0 -0.20879950958E+02  0.10167598724E+03 -0.12927435102E+03  0.22556039010E+03  0.15294330000E+03 0.  0.
    8880022    1    1    2    0    0  0.20879950958E+02 -0.10167598724E+03 -0.24148685836E+04  0.24219322674E+04  0.15294330000E+03 0.  0.
<mgrwt>
<rscale>  0 0.18483948E+03</rscale>
<asrwt>0</asrwt>
<pdfrwt beam="1">  1        2 0.39935648E+00 0.18483948E+03</pdfrwt>
<pdfrwt beam="2">  1       -2 0.79499807E-02 0.18483948E+03</pdfrwt>
<totfact> 0.34826723E+02</totfact>
</mgrwt>
</event>
<event>
 4    1  0.4880711E-008  0.4910703E+03  0.7818608E-02  0.1016136E+00
          2   -1    0    0  501    0  0.00000000000E+00  0.00000000000E+00  0.86988720181E+03  0.86988720181E+03  0.25500000000E-02 0. -1.
         -2   -1    0    0    0  501 -0.00000000000E+00 -0.00000000000E+00 -0.31538988837E+03  0.31538988838E+03  0.25500000000E-02 0.  1.
    8880022    1    1    2    0    0  0.46655657979E+03  0.91275263090E+01  0.71077806275E+02  0.49618752649E+03  0.15294330000E+03 0.  0.
    8880022    1    1    2    0    0 -0.46655657979E+03 -0.91275263090E+01  0.48341950717E+03  0.68908956370E+03  0.15294330000E+03 0.  0.
<mgrwt>
<rscale>  0 0.49107027E+03</rscale>
<asrwt>0</asrwt>
<pdfrwt beam="1">  1        2 0.13382880E+00 0.49107027E+03</pdfrwt>
<pdfrwt beam="2">  1       -2 0.48521522E-01 0.49107027E+03</pdfrwt>
<totfact> 0.12770229E+02</totfact>
</mgrwt>
</event>
<event>
 4    1  0.4880711E-008  0.4411950E+03  0.7818608E-02  0.1030381E+00
         -2   -1    0    0    0  501 -0.00000000000E+00  0.00000000000E+00  0.14671191530E+04  0.14671191530E+04  0.25500000000E-02 0.  1.
          2   -1    0    0  501    0  0.00000000000E+00 -0.00000000000E+00 -0.33682851813E+03  0.33682851814E+03  0.25500000000E-02 0. -1.
    8880022    1    1    2    0    0  0.35263534309E+03 -0.21658643757E+03 -0.13706269278E+03  0.46199481047E+03  0.15294330000E+03 0.  0.
    8880022    1    1    2    0    0 -0.35263534309E+03  0.21658643757E+03  0.12673533276E+04  0.13419528607E+04  0.15294330000E+03 0.  0.
<mgrwt>
<rscale>  0 0.44119499E+03</rscale>
<asrwt>0</asrwt>
<pdfrwt beam="1">  1        2 0.51819773E-01 0.44119499E+03</pdfrwt>
<pdfrwt beam="2">  1       -2 0.22571064E+00 0.44119499E+03</pdfrwt>
<totfact> 0.93614396E+00</totfact>
</mgrwt>
</event>
<event>
 4    1  0.4880711E-008  0.5414063E+03  0.7818608E-02  0.1003503E+00
          2   -1    0    0  501    0  0.00000000000E+00  0.00000000000E+00  0.87012760770E+03  0.87012760770E+03  0.25500000000E-02 0. -1.
         -2   -1    0    0    0  501 -0.00000000000E+00 -0.00000000000E+00 -0.76507950780E+03  0.76507950781E+03  0.25500000000E-02 0.  1.
    8880022    1    1    2    0    0 -0.10567816622E+03  0.50848915196E+03  0.66419399347E+03  0.85689813073E+03  0.15294330000E+03 0.  0.
    8880022    1    1    2    0    0  0.10567816622E+03 -0.50848915196E+03 -0.55914589357E+03  0.77830898478E+03  0.15294330000E+03 0.  0.
<mgrwt>
<rscale>  0 0.54140627E+03</rscale>
<asrwt>0</asrwt>
<pdfrwt beam="1">  1        2 0.13386579E+00 0.54140627E+03</pdfrwt>
<pdfrwt beam="2">  1       -2 0.11770454E+00 0.54140627E+03</pdfrwt>
<totfact> 0.17824827E+01</totfact>
</mgrwt>
</event>
<event>
 4    1  0.4880711E-008  0.6974961E+03  0.7818608E-02  0.9721524E-01
          2   -1    0    0  501    0  0.00000000000E+00  0.00000000000E+00  0.22906071276E+04  0.22906071277E+04  0.25500000000E-02 0. -1.
         -2   -1    0    0    0  501 -0.00000000000E+00 -0.00000000000E+00 -0.76148895925E+03  0.76148895925E+03  0.25500000000E-02 0.  1.
    8880022    1    1    2    0    0 -0.47548245558E+03  0.48685270051E+03 -0.53131239542E+03  0.87680877739E+03  0.15294330000E+03 0.  0.
    8880022    1    1    2    0    0  0.47548245558E+03 -0.48685270051E+03  0.20604305638E+04  0.21752873095E+04  0.15294330000E+03 0.  0.
<mgrwt>
<rscale>  0 0.69749607E+03</rscale>
<asrwt>0</asrwt>
<pdfrwt beam="1">  1        2 0.35240109E+00 0.69749607E+03</pdfrwt>
<pdfrwt beam="2">  1       -2 0.11715215E+00 0.69749607E+03</pdfrwt>
<totfact> 0.27283838E+00</totfact>
</mgrwt>
</event>
<event>
 4    1  0.4880711E-008  0.9221897E+03  0.7818608E-02  0.9398261E-01
          2   -1    0    0  501    0  0.00000000000E+00  0.00000000000E+00  0.53778191309E+03  0.53778191310E+03  0.25500000000E-02 0. -1.
         -2   -1    0    0    0  501 -0.00000000000E+00 -0.00000000000E+00 -0.17630771435E+04  0.17630771435E+04  0.25500000000E-02 0.  1.
    8880022    1    1    2    0    0  0.48967674130E+03  0.76632819864E+03 -0.98197083409E+03  0.13471082329E+04  0.15294330000E+03 0.  0.
    8880022    1    1    2    0    0 -0.48967674130E+03 -0.76632819864E+03 -0.24332439635E+03  0.95375082378E+03  0.15294330000E+03 0.  0.
<mgrwt>
<rscale>  0 0.92218972E+03</rscale>
<asrwt>0</asrwt>
<pdfrwt beam="1">  1        2 0.82735680E-01 0.92218972E+03</pdfrwt>
<pdfrwt beam="2">  1       -2 0.27124264E+00 0.92218972E+03</pdfrwt>
<totfact> 0.27231817E+00</totfact>
</mgrwt>
</event>
<event>
 4    1  0.4880711E-008  0.5172872E+03  0.7818608E-02  0.1009363E+00
         -2   -1    0    0    0  501 -0.00000000000E+00  0.00000000000E+00  0.75937405636E+03  0.75937405636E+03  0.25500000000E-02 0.  1.
          2   -1    0    0  501    0  0.00000000000E+00 -0.00000000000E+00 -0.24356144341E+04  0.24356144341E+04  0.25500000000E-02 0. -1.
    8880022    1    1    2    0    0  0.31272537788E+03  0.38261892075E+03  0.63930127546E+03  0.82236985250E+03  0.15294330000E+03 0.  0.
    8880022    1    1    2    0    0 -0.31272537788E+03 -0.38261892075E+03 -0.23155416532E+04  0.23726186380E+04  0.15294330000E+03 0.  0.
<mgrwt>
<rscale>  0 0.51728721E+03</rscale>
<asrwt>0</asrwt>
<pdfrwt beam="1">  1        2 0.37470991E+00 0.51728721E+03</pdfrwt>
<pdfrwt beam="2">  1       -2 0.11682678E+00 0.51728721E+03</pdfrwt>
<totfact> 0.23831197E+00</totfact>
</mgrwt>
</event>
<event>
 4    1  0.4880711E-008  0.2212271E+03  0.7818608E-02  0.1132971E+00
          2   -1    0    0  501    0  0.00000000000E+00  0.00000000000E+00  0.16485336386E+04  0.16485336386E+04  0.25500000000E-02 0. -1.
         -2   -1    0    0    0  501 -0.00000000000E+00 -0.00000000000E+00 -0.68571259901E+02  0.68571259948E+02  0.25500000000E-02 0.  1.
    8880022    1    1    2    0    0  0.89379877648E+02 -0.13251801702E+03  0.14346728772E+03  0.26367461581E+03  0.15294330000E+03 0.  1.
    8880022    1    1    2    0    0 -0.89379877648E+02  0.13251801702E+03  0.14364950910E+04  0.14534302827E+04  0.15294330000E+03 0.  0.
<mgrwt>
<rscale>  0 0.22122712E+03</rscale>
<asrwt>0</asrwt>
<pdfrwt beam="1">  1        2 0.25362055E+00 0.22122712E+03</pdfrwt>
<pdfrwt beam="2">  1       -2 0.10549425E-01 0.22122712E+03</pdfrwt>
<totfact> 0.69876744E+02</totfact>
</mgrwt>
</event>
<event>
 4    1  0.4880711E-008  0.5910906E+03  0.7818608E-02  0.9924065E-01
         -2   -1    0    0    0  501 -0.00000000000E+00  0.00000000000E+00  0.44165932445E+03  0.44165932445E+03  0.25500000000E-02 0.  1.
          2   -1    0    0  501    0  0.00000000000E+00 -0.00000000000E+00 -0.11240676325E+04  0.11240676325E+04  0.25500000000E-02 0. -1.
    8880022    1    1    2    0    0  0.45038719021E+03  0.35092416015E+03  0.84888056834E+02  0.59715494010E+03  0.15294330000E+03 0.  0.
    8880022    1    1    2    0    0 -0.45038719021E+03 -0.35092416015E+03 -0.76729636493E+03  0.96857201690E+03  0.15294330000E+03 0.  0.
<mgrwt>
<rscale>  0 0.59109055E+03</rscale>
<asrwt>0</asrwt>
<pdfrwt beam="1">  1        2 0.17293348E+00 0.59109055E+03</pdfrwt>
<pdfrwt beam="2">  1       -2 0.67947589E-01 0.59109055E+03</pdfrwt>
<totfact> 0.43204231E+01</totfact>
</mgrwt>
</event>
<event>
 4    1  0.4880711E-008  0.9084635E+03  0.7818608E-02  0.9415063E-01
         -2   -1    0    0    0  501 -0.00000000000E+00  0.00000000000E+00  0.89511731047E+03  0.89511731047E+03  0.25500000000E-02 0.  1.
          2   -1    0    0  501    0  0.00000000000E+00 -0.00000000000E+00 -0.12205831130E+04  0.12205831130E+04  0.25500000000E-02 0. -1.
    8880022    1    1    2    0    0  0.68924343590E+03  0.57171471107E+03 -0.68593183376E+03  0.11383357845E+04  0.15294330000E+03 0.  0.
    8880022    1    1    2    0    0 -0.68924343590E+03 -0.57171471107E+03  0.36046603122E+03  0.97736463894E+03  0.15294330000E+03 0.  0.
<mgrwt>
<rscale>  0 0.90846347E+03</rscale>
<asrwt>0</asrwt>
<pdfrwt beam="1">  1        2 0.18778202E+00 0.90846347E+03</pdfrwt>
<pdfrwt beam="2">  1       -2 0.13771036E+00 0.90846347E+03</pdfrwt>
<totfact> 0.69116080E+00</totfact>
</mgrwt>
</event>
<event>
 4    1  0.4880711E-008  0.8284242E+03  0.7818608E-02  0.9519762E-01
         -2   -1    0    0    0  501 -0.00000000000E+00  0.00000000000E+00  0.24911350784E+03  0.24911350785E+03  0.25500000000E-02 0.  1.
          2   -1    0    0  501    0  0.00000000000E+00 -0.00000000000E+00 -0.39932397183E+04  0.39932397183E+04  0.25500000000E-02 0. -1.
    8880022    1    1    2    0    0 -0.56786788686E+03 -0.58345616915E+03 -0.30532844967E+04  0.31636739575E+04  0.15294330000E+03 0.  0.
    8880022    1    1    2    0    0  0.56786788686E+03  0.58345616915E+03 -0.69084171375E+03  0.10786792687E+04  0.15294330000E+03 0.  0.
<mgrwt>
<rscale>  0 0.82842422E+03</rscale>
<asrwt>0</asrwt>
<pdfrwt beam="1">  1        2 0.61434452E+00 0.82842422E+03</pdfrwt>
<pdfrwt beam="2">  1       -2 0.38325158E-01 0.82842422E+03</pdfrwt>
<totfact> 0.24261556E+00</totfact>
</mgrwt>
</event>
<event>
 4    1  0.4880711E-008  0.6221972E+03  0.7818608E-02  0.9860395E-01
         -2   -1    0    0    0  501 -0.00000000000E+00  0.00000000000E+00  0.10591111331E+04  0.10591111331E+04  0.25500000000E-02 0.  1.
          2   -1    0    0  501    0  0.00000000000E+00 -0.00000000000E+00 -0.40274982396E+03  0.40274982397E+03  0.25500000000E-02 0. -1.
    8880022    1    1    2    0    0  0.21935527564E+01 -0.60310277052E+03  0.55040248848E+03  0.83070591416E+03  0.15294330000E+03 0.  0.
    8880022    1    1    2    0    0 -0.21935527564E+01  0.60310277052E+03  0.10595882062E+03  0.63115504289E+03  0.15294330000E+03 0.  0.
<mgrwt>
<rscale>  0 0.62219725E+03</rscale>
<asrwt>0</asrwt>
<pdfrwt beam="1">  1        2 0.61961514E-01 0.62219725E+03</pdfrwt>
<pdfrwt beam="2">  1       -2 0.16294017E+00 0.62219725E+03</pdfrwt>
<totfact> 0.19403605E+01</totfact>
</mgrwt>
</event>
<event>
 4    1  0.4880711E-008  0.3061411E+03  0.7818608E-02  0.1082210E+00
          2   -1    0    0  501    0  0.00000000000E+00  0.00000000000E+00  0.43025601369E+04  0.43025601369E+04  0.25500000000E-02 0. -1.
         -2   -1    0    0    0  501 -0.00000000000E+00 -0.00000000000E+00 -0.83702865439E+02  0.83702865478E+02  0.25500000000E-02 0.  1.
    8880022    1    1    2    0    0  0.26383471819E+03  0.26869490265E+02  0.22313306247E+03  0.37882812014E+03  0.15294330000E+03 0.  0.
    8880022    1    1    2    0    0 -0.26383471819E+03 -0.26869490265E+02  0.39957242090E+04  0.40074348823E+04  0.15294330000E+03 0.  0.
<mgrwt>
<rscale>  0 0.30614111E+03</rscale>
<asrwt>0</asrwt>
<pdfrwt beam="1">  1        2 0.66193239E+00 0.30614111E+03</pdfrwt>
<pdfrwt beam="2">  1       -2 0.12877363E-01 0.30614111E+03</pdfrwt>
<totfact> 0.11041046E+01</totfact>
</mgrwt>
</event>
<event>
 4    1  0.4880711E-008  0.7050421E+03  0.7818608E-02  0.9708648E-01
         -2   -1    0    0    0  501 -0.00000000000E+00  0.00000000000E+00  0.88064046803E+03  0.88064046803E+03  0.25500000000E-02 0.  1.
          2   -1    0    0  501    0  0.00000000000E+00 -0.00000000000E+00 -0.93238714399E+03  0.93238714399E+03  0.25500000000E-02 0. -1.
    8880022    1    1    2    0    0  0.65428335059E+03 -0.21355554398E+03  0.54358051295E+03  0.89026069232E+03  0.15294330000E+03 0.  0.
    8880022    1    1    2    0    0 -0.65428335059E+03  0.21355554398E+03 -0.59532718891E+03  0.92276691970E+03  0.15294330000E+03 0.  0.
<mgrwt>
<rscale>  0 0.70504207E+03</rscale>
<asrwt>0</asrwt>
<pdfrwt beam="1">  1        2 0.14344418E+00 0.70504207E+03</pdfrwt>
<pdfrwt beam="2">  1       -2 0.13548315E+00 0.70504207E+03</pdfrwt>
<totfact> 0.11144089E+01</totfact>
</mgrwt>
</event>
<event>
 4    1  0.4880711E-008  0.5507919E+03  0.7818608E-02  0.1001311E+00
         -2   -1    0    0    0  501 -0.00000000000E+00  0.00000000000E+00  0.68045474612E+03  0.68045474612E+03  0.25500000000E-02 0.  1.
          2   -1    0    0  501    0  0.00000000000E+00 -0.00000000000E+00 -0.71005864471E+03  0.71005864472E+03  0.25500000000E-02 0. -1.
    8880022    1    1    2    0    0 -0.52907989600E+03  0.73872053102E+01 -0.43891578272E+03  0.70428603883E+03  0.15294330000E+03 0.  0.
    8880022    1    1    2    0    0  0.52907989600E+03 -0.73872053102E+01  0.40931188413E+03  0.68622735201E+03  0.15294330000E+03 0.  0.
<mgrwt>
<rscale>  0 0.55079194E+03</rscale>
<asrwt>0</asrwt>
<pdfrwt beam="1">  1        2 0.10923979E+00 0.55079194E+03</pdfrwt>
<pdfrwt beam="2">  1       -2 0.10468534E+00 0.55079194E+03</pdfrwt>
<totfact> 0.30795399E+01</totfact>
</mgrwt>
</event>
<event>
 4    1  0.4880711E-008  0.2770467E+03  0.7818608E-02  0.1097313E+00
         -2   -1    0    0    0  501 -0.00000000000E+00  0.00000000000E+00  0.40227914759E+03  0.40227914759E+03  0.25500000000E-02 0.  1.
          2   -1    0    0  501    0  0.00000000000E+00 -0.00000000000E+00 -0.62599683950E+03  0.62599683951E+03  0.25500000000E-02 0. -1.
    8880022    1    1    2    0    0 -0.21985300947E+03 -0.70907627410E+02  0.31682434860E+03  0.42087118965E+03  0.15294330000E+03 0.  0.
    8880022    1    1    2    0    0  0.21985300947E+03  0.70907627410E+02 -0.54054204051E+03  0.60740479746E+03  0.15294330000E+03 0.  0.
<mgrwt>
<rscale>  0 0.27704673E+03</rscale>
<asrwt>0</asrwt>
<pdfrwt beam="1">  1        2 0.96307206E-01 0.27704673E+03</pdfrwt>
<pdfrwt beam="2">  1       -2 0.61889100E-01 0.27704673E+03</pdfrwt>
<totfact> 0.12021795E+02</totfact>
</mgrwt>
</event>
<event>
 4    1  0.4880711E-008  0.3661093E+03  0.7818608E-02  0.1056191E+00
          2   -1    0    0  501    0  0.00000000000E+00  0.00000000000E+00  0.27343011789E+04  0.27343011789E+04  0.25500000000E-02 0. -1.
         -2   -1    0    0    0  501 -0.00000000000E+00 -0.00000000000E+00 -0.13930222406E+03  0.13930222408E+03  0.25500000000E-02 0.  1.
    8880022    1    1    2    0    0  0.33256338142E+03 -0.67813182079E+01  0.24541932753E+04  0.24813505746E+04  0.15294330000E+03 0. -1.
    8880022    1    1    2    0    0 -0.33256338142E+03  0.67813182079E+01  0.14080567963E+03  0.39225282838E+03  0.15294330000E+03 0.  0.
<mgrwt>
<rscale>  0 0.36610933E+03</rscale>
<asrwt>0</asrwt>
<pdfrwt beam="1">  1        2 0.42066169E+00 0.36610933E+03</pdfrwt>
<pdfrwt beam="2">  1       -2 0.21431113E-01 0.36610933E+03</pdfrwt>
<totfact> 0.54038889E+01</totfact>
</mgrwt>
</event>
<event>
 4    1  0.4880711E-008  0.4173800E+03  0.7818608E-02  0.1037922E+00
         -2   -1    0    0    0  501 -0.00000000000E+00  0.00000000000E+00  0.12880618567E+04  0.12880618567E+04  0.25500000000E-02 0.  1.
          2   -1    0    0  501    0  0.00000000000E+00 -0.00000000000E+00 -0.14248815094E+04  0.14248815094E+04  0.25500000000E-02 0. -1.
    8880022    1    1    2    0    0 -0.19509198992E+03 -0.33578787729E+03  0.12220804620E+04  0.12913894423E+04  0.15294330000E+03 0.  0.
    8880022    1    1    2    0    0  0.19509198992E+03  0.33578787729E+03 -0.13589001148E+04  0.14215539237E+04  0.15294330000E+03 0. -1.
<mgrwt>
<rscale>  0 0.41737997E+03</rscale>
<asrwt>0</asrwt>
<pdfrwt beam="1">  1        2 0.21921254E+00 0.41737997E+03</pdfrwt>
<pdfrwt beam="2">  1       -2 0.19816336E+00 0.41737997E+03</pdfrwt>
<totfact> 0.21327380E+00</totfact>
</mgrwt>
</event>
<event>
 4    1  0.4880711E-008  0.9181049E+03  0.7818608E-02  0.9403228E-01
          2   -1    0    0  501    0  0.00000000000E+00  0.00000000000E+00  0.16278099544E+04  0.16278099544E+04  0.25500000000E-02 0. -1.
         -2   -1    0    0    0  501 -0.00000000000E+00 -0.00000000000E+00 -0.68656048471E+03  0.68656048472E+03  0.25500000000E-02 0.  1.
    8880022    1    1    2    0    0 -0.54637523146E+03  0.72180262624E+03 -0.10305556747E+03  0.92387067699E+03  0.15294330000E+03 0.  0.
    8880022    1    1    2    0    0  0.54637523146E+03 -0.72180262624E+03  0.10443050371E+04  0.13904997621E+04  0.15294330000E+03 0. -1.
<mgrwt>
<rscale>  0 0.91810488E+03</rscale>
<asrwt>0</asrwt>
<pdfrwt beam="1">  1        2 0.25043230E+00 0.91810488E+03</pdfrwt>
<pdfrwt beam="2">  1       -2 0.10562469E+00 0.91810488E+03</pdfrwt>
<totfact> 0.78376349E+00</totfact>
</mgrwt>
</event>
<event>
 4    1  0.4880711E-008  0.4963272E+03  0.7818608E-02  0.1014742E+00
         -2   -1    0    0    0  501 -0.00000000000E+00  0.00000000000E+00  0.42927892984E+03  0.42927892985E+03  0.25500000000E-02 0.  1.
          2   -1    0    0  501    0  0.00000000000E+00 -0.00000000000E+00 -0.79424857512E+03  0.79424857513E+03  0.25500000000E-02 0. -1.
    8880022    1    1    2    0    0 -0.46602418097E+03 -0.75963666374E+02 -0.50474920498E+03  0.70789295010E+03  0.15294330000E+03 0.  1.
    8880022    1    1    2    0    0  0.46602418097E+03  0.75963666374E+02  0.13977955969E+03  0.51563455488E+03  0.15294330000E+03 0.  0.
<mgrwt>
<rscale>  0 0.49632718E+03</rscale>
<asrwt>0</asrwt>
<pdfrwt beam="1">  1        2 0.12219209E+00 0.49632718E+03</pdfrwt>
<pdfrwt beam="2">  1       -2 0.66042912E-01 0.49632718E+03</pdfrwt>
<totfact> 0.75968559E+01</totfact>
</mgrwt>
</event>
<event>
 4    1  0.4880711E-008  0.2856336E+03  0.7818608E-02  0.1092651E+00
         -2   -1    0    0    0  501 -0.00000000000E+00  0.00000000000E+00  0.82770720187E+03  0.82770720188E+03  0.25500000000E-02 0.  1.
          2   -1    0    0  501    0  0.00000000000E+00 -0.00000000000E+00 -0.23068656380E+03  0.23068656382E+03  0.25500000000E-02 0. -1.
    8880022    1    1    2    0    0 -0.23700162037E+03 -0.45001317294E+02  0.69899496708E+03  0.75510297551E+03  0.15294330000E+03 0.  0.
    8880022    1    1    2    0    0  0.23700162037E+03  0.45001317294E+02 -0.10197432901E+03  0.30329079018E+03  0.15294330000E+03 0.  0.
<mgrwt>
<rscale>  0 0.28563358E+03</rscale>
<asrwt>0</asrwt>
<pdfrwt beam="1">  1        2 0.35490241E-01 0.28563358E+03</pdfrwt>
<pdfrwt beam="2">  1       -2 0.12733957E+00 0.28563358E+03</pdfrwt>
<totfact> 0.70343930E+01</totfact>
</mgrwt>
</event>
<event>
 4    1  0.4880711E-008  0.1076859E+04  0.7818608E-02  0.9228045E-01
          2   -1    0    0  501    0  0.00000000000E+00  0.00000000000E+00  0.24731014575E+04  0.24731014576E+04  0.25500000000E-02 0. -1.
         -2   -1    0    0    0  501 -0.00000000000E+00 -0.00000000000E+00 -0.54355671449E+03  0.54355671450E+03  0.25500000000E-02 0.  1.
    8880022    1    1    2    0    0 -0.10148194776E+04  0.32615184756E+03  0.15237858087E+04  0.18658907909E+04  0.15294330000E+03 0.  0.
    8880022    1    1    2    0    0  0.10148194776E+04 -0.32615184756E+03  0.40575893435E+03  0.11507673812E+04  0.15294330000E+03 0.  0.
<mgrwt>
<rscale>  0 0.10768590E+04</rscale>
<asrwt>0</asrwt>
<pdfrwt beam="1">  1        2 0.38047714E+00 0.10768590E+04</pdfrwt>
<pdfrwt beam="2">  1       -2 0.83624110E-01 0.10768590E+04</pdfrwt>
<totfact> 0.45101865E+00</totfact>
</mgrwt>
</event>
<event>
 4    1  0.4880711E-008  0.7525471E+03  0.7818608E-02  0.9631363E-01
         -2   -1    0    0    0  501 -0.00000000000E+00  0.00000000000E+00  0.48742829846E+03  0.48742829846E+03  0.25500000000E-02 0.  1.
          2   -1    0    0  501    0  0.00000000000E+00 -0.00000000000E+00 -0.15006502048E+04  0.15006502048E+04  0.25500000000E-02 0. -1.
    8880022    1    1    2    0    0 -0.63077112452E+03  0.38087179394E+03 -0.34304047196E+02  0.75332858409E+03  0.15294330000E+03 0.  0.
    8880022    1    1    2    0    0  0.63077112452E+03 -0.38087179394E+03 -0.97891785919E+03  0.12347499192E+04  0.15294330000E+03 0.  0.
<mgrwt>
<rscale>  0 0.75254713E+03</rscale>
<asrwt>0</asrwt>
<pdfrwt beam="1">  1        2 0.23086926E+00 0.75254713E+03</pdfrwt>
<pdfrwt beam="2">  1       -2 0.74988970E-01 0.75254713E+03</pdfrwt>
<totfact> 0.20737506E+01</totfact>
</mgrwt>
</event>
<event>
 4    1  0.4880711E-008  0.6106125E+03  0.7818608E-02  0.9883630E-01
          2   -1    0    0  501    0  0.00000000000E+00  0.00000000000E+00  0.25504957513E+04  0.25504957513E+04  0.25500000000E-02 0. -1.
         -2   -1    0    0    0  501 -0.00000000000E+00 -0.00000000000E+00 -0.18401083160E+03  0.18401083162E+03  0.25500000000E-02 0.  1.
    8880022    1    1    2    0    0 -0.47896245735E+03  0.34648361187E+03  0.18031315059E+04  0.19037150021E+04  0.15294330000E+03 0.  0.
    8880022    1    1    2    0    0  0.47896245735E+03 -0.34648361187E+03  0.56335341384E+03  0.83079158081E+03  0.15294330000E+03 0.  0.
<mgrwt>
<rscale>  0 0.61061246E+03</rscale>
<asrwt>0</asrwt>
<pdfrwt beam="1">  1        2 0.39238392E+00 0.61061246E+03</pdfrwt>
<pdfrwt beam="2">  1       -2 0.28309362E-01 0.61061246E+03</pdfrwt>
<totfact> 0.39601659E+01</totfact>
</mgrwt>
</event>
<event>
 4    1  0.4880711E-008  0.7659330E+03  0.7818608E-02  0.9610680E-01
         -2   -1    0    0    0  501 -0.00000000000E+00  0.00000000000E+00  0.23973715993E+03  0.23973715994E+03  0.25500000000E-02 0.  1.
          2   -1    0    0  501    0  0.00000000000E+00 -0.00000000000E+00 -0.26548864053E+04  0.26548864053E+04  0.25500000000E-02 0. -1.
    8880022    1    1    2    0    0 -0.19860132737E+03 -0.72375360398E+03 -0.16125045532E+04  0.17851678782E+04  0.15294330000E+03 0.  0.
    8880022    1    1    2    0    0  0.19860132737E+03  0.72375360398E+03 -0.80264469224E+03  0.11094556870E+04  0.15294330000E+03 0.  0.
<mgrwt>
<rscale>  0 0.76593304E+03</rscale>
<asrwt>0</asrwt>
<pdfrwt beam="1">  1        2 0.40844404E+00 0.76593304E+03</pdfrwt>
<pdfrwt beam="2">  1       -2 0.36882642E-01 0.76593304E+03</pdfrwt>
<totfact> 0.20481748E+01</totfact>
</mgrwt>
</event>
<event>
 4    1  0.4880711E-008  0.2879898E+03  0.7818608E-02  0.1091403E+00
         -2   -1    0    0    0  501 -0.00000000000E+00  0.00000000000E+00  0.28667584799E+03  0.28667584800E+03  0.25500000000E-02 0.  1.
          2   -1    0    0  501    0  0.00000000000E+00 -0.00000000000E+00 -0.93313043787E+03  0.93313043787E+03  0.25500000000E-02 0. -1.
    8880022    1    1    2    0    0  0.70470439615E+02 -0.23362443504E+03 -0.82983543494E+03  0.87838770575E+03  0.15294330000E+03 0. -1.
    8880022    1    1    2    0    0 -0.70470439615E+02  0.23362443504E+03  0.18338084506E+03  0.34141858013E+03  0.15294330000E+03 0.  0.
<mgrwt>
<rscale>  0 0.28798978E+03</rscale>
<asrwt>0</asrwt>
<pdfrwt beam="1">  1        2 0.14355853E+00 0.28798978E+03</pdfrwt>
<pdfrwt beam="2">  1       -2 0.44103977E-01 0.28798978E+03</pdfrwt>
<totfact> 0.14375777E+02</totfact>
</mgrwt>
</event>
<event>
 4    1  0.4880711E-008  0.4031043E+03  0.7818608E-02  0.1042710E+00
         -2   -1    0    0    0  501 -0.00000000000E+00  0.00000000000E+00  0.26134067537E+03  0.26134067538E+03  0.25500000000E-02 0.  1.
          2   -1    0    0  501    0  0.00000000000E+00 -0.00000000000E+00 -0.70423926996E+03  0.70423926996E+03  0.25500000000E-02 0. -1.
    8880022    1    1    2    0    0 -0.35710893371E+03 -0.10758537756E+03 -0.38666510561E+03  0.55857225218E+03  0.15294330000E+03 0.  0.
    8880022    1    1    2    0    0  0.35710893371E+03  0.10758537756E+03 -0.56233488981E+02  0.40700769317E+03  0.15294330000E+03 0.  1.
<mgrwt>
<rscale>  0 0.40310428E+03</rscale>
<asrwt>0</asrwt>
<pdfrwt beam="1">  1        2 0.10834450E+00 0.40310428E+03</pdfrwt>
<pdfrwt beam="2">  1       -2 0.40206258E-01 0.40310428E+03</pdfrwt>
<totfact> 0.24493010E+02</totfact>
</mgrwt>
</event>
<event>
 4    1  0.4880711E-008  0.1003705E+04  0.7818608E-02  0.9304491E-01
          2   -1    0    0  501    0  0.00000000000E+00  0.00000000000E+00  0.11074348424E+04  0.11074348424E+04  0.25500000000E-02 0. -1.
         -2   -1    0    0    0  501 -0.00000000000E+00 -0.00000000000E+00 -0.10122834802E+04  0.10122834802E+04  0.25500000000E-02 0.  1.
    8880022    1    1    2    0    0 -0.94999595499E+03 -0.28555027789E+03  0.38498413307E+03  0.10750049821E+04  0.15294330000E+03 0.  0.
    8880022    1    1    2    0    0  0.94999595499E+03  0.28555027789E+03 -0.28983277090E+03  0.10447133405E+04  0.15294330000E+03 0.  0.
<mgrwt>
<rscale>  0 0.10037046E+04</rscale>
<asrwt>0</asrwt>
<pdfrwt beam="1">  1        2 0.17037459E+00 0.10037046E+04</pdfrwt>
<pdfrwt beam="2">  1       -2 0.15573592E+00 0.10037046E+04</pdfrwt>
<totfact> 0.57890350E+00</totfact>
</mgrwt>
</event>
<event>
 4    1  0.4880711E-008  0.3751950E+03  0.7818608E-02  0.1052724E+00
          2   -1    0    0  501    0  0.00000000000E+00  0.00000000000E+00  0.13922400252E+04  0.13922400252E+04  0.25500000000E-02 0. -1.
         -2   -1    0    0    0  501 -0.00000000000E+00 -0.00000000000E+00 -0.74973402616E+03  0.74973402616E+03  0.25500000000E-02 0.  1.
    8880022    1    1    2    0    0  0.17836227410E+03 -0.29251754364E+03  0.13174074122E+04  0.13697932534E+04  0.15294330000E+03 0.  0.
    8880022    1    1    2    0    0 -0.17836227410E+03  0.29251754364E+03 -0.67490141322E+03  0.77218079797E+03  0.15294330000E+03 0.  0.
<mgrwt>
<rscale>  0 0.37519497E+03</rscale>
<asrwt>0</asrwt>
<pdfrwt beam="1">  1        2 0.21419077E+00 0.37519497E+03</pdfrwt>
<pdfrwt beam="2">  1       -2 0.11534370E+00 0.37519497E+03</pdfrwt>
<totfact> 0.93986530E+00</totfact>
</mgrwt>
</event>
<event>
 4    1  0.4880711E-008  0.3277392E+03  0.7818608E-02  0.1072142E+00
         -2   -1    0    0    0  501 -0.00000000000E+00  0.00000000000E+00  0.79564068871E+03  0.79564068872E+03  0.25500000000E-02 0.  1.
          2   -1    0    0  501    0  0.00000000000E+00 -0.00000000000E+00 -0.62426876434E+03  0.62426876434E+03  0.25500000000E-02 0. -1.
    8880022    1    1    2    0    0  0.32637852356E+01 -0.28984599165E+03 -0.54283208799E+03  0.63409753188E+03  0.15294330000E+03 0. -1.
    8880022    1    1    2    0    0 -0.32637852356E+01  0.28984599165E+03  0.71420401237E+03  0.78581192118E+03  0.15294330000E+03 0.  0.
<mgrwt>
<rscale>  0 0.32773923E+03</rscale>
<asrwt>0</asrwt>
<pdfrwt beam="1">  1        2 0.96041349E-01 0.32773923E+03</pdfrwt>
<pdfrwt beam="2">  1       -2 0.12240626E+00 0.32773923E+03</pdfrwt>
<totfact> 0.25529040E+01</totfact>
</mgrwt>
</event>
<event>
 4    1  0.4880711E-008  0.3086222E+03  0.7818608E-02  0.1081008E+00
          2   -1    0    0  501    0  0.00000000000E+00  0.00000000000E+00  0.67398666363E+03  0.67398666364E+03  0.25500000000E-02 0. -1.
         -2   -1    0    0    0  501 -0.00000000000E+00 -0.00000000000E+00 -0.82098383654E+03  0.82098383654E+03  0.25500000000E-02 0.  1.
    8880022    1    1    2    0    0 -0.21522592770E+03  0.15979310527E+03  0.60661657327E+03  0.68061101697E+03  0.15294330000E+03 0.  0.
    8880022    1    1    2    0    0  0.21522592770E+03 -0.15979310527E+03 -0.75361374618E+03  0.81435948321E+03  0.15294330000E+03 0.  0.
<mgrwt>
<rscale>  0 0.30862224E+03</rscale>
<asrwt>0</asrwt>
<pdfrwt beam="1">  1        2 0.10369026E+00 0.30862224E+03</pdfrwt>
<pdfrwt beam="2">  1       -2 0.12630521E+00 0.30862224E+03</pdfrwt>
<totfact> 0.21640021E+01</totfact>
</mgrwt>
</event>
<event>
 4    1  0.4880711E-008  0.4397583E+03  0.7818608E-02  0.1030821E+00
         -2   -1    0    0    0  501 -0.00000000000E+00  0.00000000000E+00  0.65119538171E+02  0.65119538221E+02  0.25500000000E-02 0.  1.
          2   -1    0    0  501    0  0.00000000000E+00 -0.00000000000E+00 -0.42633995680E+04  0.42633995680E+04  0.25500000000E-02 0. -1.
    8880022    1    1    2    0    0 -0.38727409885E+03 -0.14147245550E+03 -0.90695601509E+03  0.10079466998E+04  0.15294330000E+03 0.  1.
    8880022    1    1    2    0    0  0.38727409885E+03  0.14147245550E+03 -0.32913240147E+04  0.33205724064E+04  0.15294330000E+03 0.  0.
<mgrwt>
<rscale>  0 0.43975827E+03</rscale>
<asrwt>0</asrwt>
<pdfrwt beam="1">  1        2 0.65590741E+00 0.43975827E+03</pdfrwt>
<pdfrwt beam="2">  1       -2 0.10018394E-01 0.43975827E+03</pdfrwt>
<totfact> 0.16928247E+01</totfact>
</mgrwt>
</event>
<event>
 4    1  0.4880711E-008  0.3146729E+03  0.7818608E-02  0.1078127E+00
          2   -1    0    0  501    0  0.00000000000E+00  0.00000000000E+00  0.32769548625E+03  0.32769548626E+03  0.25500000000E-02 0. -1.
         -2   -1    0    0    0  501 -0.00000000000E+00 -0.00000000000E+00 -0.20541472563E+04  0.20541472563E+04  0.25500000000E-02 0.  1.
    8880022    1    1    2    0    0  0.19874104234E+02 -0.27428530395E+03  0.23661989460E+03  0.39371059868E+03  0.15294330000E+03 0.  0.
    8880022    1    1    2    0    0 -0.19874104234E+02  0.27428530395E+03 -0.19630716646E+04  0.19881321439E+04  0.15294330000E+03 0.  1.
<mgrwt>
<rscale>  0 0.31467294E+03</rscale>
<asrwt>0</asrwt>
<pdfrwt beam="1">  1        2 0.50414691E-01 0.31467294E+03</pdfrwt>
<pdfrwt beam="2">  1       -2 0.31602265E+00 0.31467294E+03</pdfrwt>
<totfact> 0.29007435E+00</totfact>
</mgrwt>
</event>
<event>
 4    1  0.4880711E-008  0.9602702E+03  0.7818608E-02  0.9353226E-01
         -2   -1    0    0    0  501 -0.00000000000E+00  0.00000000000E+00  0.70836791743E+03  0.70836791743E+03  0.25500000000E-02 0.  1.
          2   -1    0    0  501    0  0.00000000000E+00 -0.00000000000E+00 -0.14574572997E+04  0.14574572997E+04  0.25500000000E-02 0. -1.
    8880022    1    1    2    0    0  0.72401425179E+03 -0.61198905476E+03 -0.72849972575E+03  0.12053342870E+04  0.15294330000E+03 0.  0.
    8880022    1    1    2    0    0 -0.72401425179E+03  0.61198905476E+03 -0.20589656522E+02  0.96049093016E+03  0.15294330000E+03 0.  0.
<mgrwt>
<rscale>  0 0.96027022E+03</rscale>
<asrwt>0</asrwt>
<pdfrwt beam="1">  1        2 0.22422420E+00 0.96027022E+03</pdfrwt>
<pdfrwt beam="2">  1       -2 0.10897968E+00 0.96027022E+03</pdfrwt>
<totfact> 0.90050026E+00</totfact>
</mgrwt>
</event>
<event>
 4    1  0.4880711E-008  0.5629209E+03  0.7818608E-02  0.9985467E-01
          2   -1    0    0  501    0  0.00000000000E+00  0.00000000000E+00  0.12958346201E+04  0.12958346201E+04  0.25500000000E-02 0. -1.
         -2   -1    0    0    0  501 -0.00000000000E+00 -0.00000000000E+00 -0.27136487463E+03  0.27136487464E+03  0.25500000000E-02 0.  1.
    8880022    1    1    2    0    0  0.49982489175E+03 -0.20895791813E+03  0.75861610852E+03  0.94465781482E+03  0.15294330000E+03 0.  0.
    8880022    1    1    2    0    0 -0.49982489175E+03  0.20895791813E+03  0.26585363697E+03  0.62254167995E+03  0.15294330000E+03 0.  0.
<mgrwt>
<rscale>  0 0.56292094E+03</rscale>
<asrwt>0</asrwt>
<pdfrwt beam="1">  1        2 0.19935917E+00 0.56292094E+03</pdfrwt>
<pdfrwt beam="2">  1       -2 0.41748442E-01 0.56292094E+03</pdfrwt>
<totfact> 0.93572309E+01</totfact>
</mgrwt>
</event>
<event>
 4    1  0.4880711E-008  0.5543659E+03  0.7818608E-02  0.1000488E+00
          2   -1    0    0  501    0  0.00000000000E+00  0.00000000000E+00  0.82752592838E+03  0.82752592838E+03  0.25500000000E-02 0. -1.
         -2   -1    0    0    0  501 -0.00000000000E+00 -0.00000000000E+00 -0.46803076004E+03  0.46803076005E+03  0.25500000000E-02 0.  1.
    8880022    1    1    2    0    0  0.22295728647E+03  0.48396272842E+03  0.47412573954E+03  0.72946332602E+03  0.15294330000E+03 0.  0.
    8880022    1    1    2    0    0 -0.22295728647E+03 -0.48396272842E+03 -0.11463057121E+03  0.56609336241E+03  0.15294330000E+03 0.  0.
<mgrwt>
<rscale>  0 0.55436588E+03</rscale>
<asrwt>0</asrwt>
<pdfrwt beam="1">  1        2 0.12731168E+00 0.55436588E+03</pdfrwt>
<pdfrwt beam="2">  1       -2 0.72004734E-01 0.55436588E+03</pdfrwt>
<totfact> 0.59328719E+01</totfact>
</mgrwt>
</event>
<event>
 4    1  0.4880711E-008  0.3641430E+03  0.7818608E-02  0.1056955E+00
          2   -1    0    0  501    0  0.00000000000E+00  0.00000000000E+00  0.11093289199E+04  0.11093289199E+04  0.25500000000E-02 0. -1.
         -2   -1    0    0    0  501 -0.00000000000E+00 -0.00000000000E+00 -0.60304235104E+03  0.60304235104E+03  0.25500000000E-02 0.  1.
    8880022    1    1    2    0    0 -0.13426805845E+03 -0.30196116850E+03 -0.51350646237E+03  0.62951489157E+03  0.15294330000E+03 0.  0.
    8880022    1    1    2    0    0  0.13426805845E+03  0.30196116850E+03  0.10197930313E+04  0.10828563794E+04  0.15294330000E+03 0.  0.
<mgrwt>
<rscale>  0 0.36414298E+03</rscale>
<asrwt>0</asrwt>
<pdfrwt beam="1">  1        2 0.17066599E+00 0.36414298E+03</pdfrwt>
<pdfrwt beam="2">  1       -2 0.92775746E-01 0.36414298E+03</pdfrwt>
<totfact> 0.22849358E+01</totfact>
</mgrwt>
</event>
<event>
 4    1  0.4880711E-008  0.5149853E+03  0.7818608E-02  0.1009940E+00
          2   -1    0    0  501    0  0.00000000000E+00  0.00000000000E+00  0.49594582988E+04  0.49594582989E+04  0.25500000000E-02 0. -1.
         -2   -1    0    0    0  501 -0.00000000000E+00 -0.00000000000E+00 -0.18477710515E+03  0.18477710517E+03  0.25500000000E-02 0.  1.
    8880022    1    1    2    0    0  0.15733242359E+03  0.46590200001E+03  0.45555522518E+04  0.45845682607E+04  0.15294330000E+03 0.  0.
    8880022    1    1    2    0    0 -0.15733242359E+03 -0.46590200001E+03  0.21912894192E+03  0.55966714333E+03  0.15294330000E+03 0.  0.
<mgrwt>
<rscale>  0 0.51498526E+03</rscale>
<asrwt>0</asrwt>
<pdfrwt beam="1">  1        2 0.76299358E+00 0.51498526E+03</pdfrwt>
<pdfrwt beam="2">  1       -2 0.28427247E-01 0.51498526E+03</pdfrwt>
<totfact> 0.55680335E-01</totfact>
</mgrwt>
</event>
<event>
 4    1  0.4880711E-008  0.1305940E+04  0.7818608E-02  0.9024868E-01
         -2   -1    0    0    0  501 -0.00000000000E+00  0.00000000000E+00  0.63988030960E+03  0.63988030961E+03  0.25500000000E-02 0.  1.
          2   -1    0    0  501    0  0.00000000000E+00 -0.00000000000E+00 -0.35749061862E+04  0.35749061862E+04  0.25500000000E-02 0. -1.
    8880022    1    1    2    0    0  0.58375640577E+03 -0.11581525720E+04 -0.25305224052E+04  0.28476348463E+04  0.15294330000E+03 0.  0.
    8880022    1    1    2    0    0 -0.58375640577E+03  0.11581525720E+04 -0.40450347131E+03  0.13671516495E+04  0.15294330000E+03 0.  0.
<mgrwt>
<rscale>  0 0.13059405E+04</rscale>
<asrwt>0</asrwt>
<pdfrwt beam="1">  1        2 0.54998556E+00 0.13059405E+04</pdfrwt>
<pdfrwt beam="2">  1       -2 0.98443127E-01 0.13059405E+04</pdfrwt>
<totfact> 0.60905532E-01</totfact>
</mgrwt>
</event>
<event>
 4    1  0.4880711E-008  0.4869507E+03  0.7818608E-02  0.1017242E+00
          2   -1    0    0  501    0  0.00000000000E+00  0.00000000000E+00  0.24213827311E+04  0.24213827311E+04  0.25500000000E-02 0. -1.
         -2   -1    0    0    0  501 -0.00000000000E+00 -0.00000000000E+00 -0.38265738478E+03  0.38265738478E+03  0.25500000000E-02 0.  1.
    8880022    1    1    2    0    0 -0.82631435454E+02  0.45486414992E+03 -0.19002454566E+03  0.52271438662E+03  0.15294330000E+03 0.  0.
    8880022    1    1    2    0    0  0.82631435454E+02 -0.45486414992E+03  0.22287498920E+04  0.22813257293E+04  0.15294330000E+03 0.  0.
<mgrwt>
<rscale>  0 0.48695072E+03</rscale>
<asrwt>0</asrwt>
<pdfrwt beam="1">  1        2 0.37252043E+00 0.48695072E+03</pdfrwt>
<pdfrwt beam="2">  1       -2 0.58870366E-01 0.48695072E+03</pdfrwt>
<totfact> 0.11495802E+01</totfact>
</mgrwt>
</event>
<event>
 4    1  0.4880711E-008  0.9646656E+03  0.7818608E-02  0.9348171E-01
          2   -1    0    0  501    0  0.00000000000E+00  0.00000000000E+00  0.37282148031E+04  0.37282148031E+04  0.25500000000E-02 0. -1.
         -2   -1    0    0    0  501 -0.00000000000E+00 -0.00000000000E+00 -0.83995844053E+03  0.83995844053E+03  0.25500000000E-02 0.  1.
    8880022    1    1    2    0    0  0.31109240380E+03  0.90022747815E+03 -0.47074430432E+03  0.10733964082E+04  0.15294330000E+03 0.  0.
    8880022    1    1    2    0    0 -0.31109240380E+03 -0.90022747815E+03  0.33590006669E+04  0.34947768354E+04  0.15294330000E+03 0.  0.
<mgrwt>
<rscale>  0 0.96466556E+03</rscale>
<asrwt>0</asrwt>
<pdfrwt beam="1">  1        2 0.57357150E+00 0.96466556E+03</pdfrwt>
<pdfrwt beam="2">  1       -2 0.12922438E+00 0.96466556E+03</pdfrwt>
<totfact> 0.25665525E-01</totfact>
</mgrwt>
</event>
<event>
 4    1  0.4880711E-008  0.4716765E+03  0.7818608E-02  0.1021448E+00
          2   -1    0    0  501    0  0.00000000000E+00  0.00000000000E+00  0.31310936741E+03  0.31310936742E+03  0.25500000000E-02 0. -1.
         -2   -1    0    0    0  501 -0.00000000000E+00 -0.00000000000E+00 -0.19606739970E+04  0.19606739970E+04  0.25500000000E-02 0.  1.
    8880022    1    1    2    0    0 -0.33974513366E+03 -0.28924092042E+03 -0.17315894127E+04  0.17946812009E+04  0.15294330000E+03 0.  1.
    8880022    1    1    2    0    0  0.33974513366E+03  0.28924092042E+03  0.84024783060E+02  0.47910216351E+03  0.15294330000E+03 0.  0.
<mgrwt>
<rscale>  0 0.47167650E+03</rscale>
<asrwt>0</asrwt>
<pdfrwt beam="1">  1        2 0.48170673E-01 0.47167650E+03</pdfrwt>
<pdfrwt beam="2">  1       -2 0.30164215E+00 0.47167650E+03</pdfrwt>
<totfact> 0.35499437E+00</totfact>
</mgrwt>
</event>
<event>
 4    1  0.4880711E-008  0.6574888E+03  0.7818608E-02  0.9792828E-01
          2   -1    0    0  501    0  0.00000000000E+00  0.00000000000E+00  0.21904573167E+04  0.21904573167E+04  0.25500000000E-02 0. -1.
         -2   -1    0    0    0  501 -0.00000000000E+00 -0.00000000000E+00 -0.40567300291E+03  0.40567300291E+03  0.25500000000E-02 0.  1.
    8880022    1    1    2    0    0 -0.58490840951E+03 -0.25842210373E+03 -0.37804558311E+02  0.65857472533E+03  0.15294330000E+03 0.  0.
    8880022    1    1    2    0    0  0.58490840951E+03  0.25842210373E+03  0.18225888721E+04  0.19375555943E+04  0.15294330000E+03 0.  0.
<mgrwt>
<rscale>  0 0.65748877E+03</rscale>
<asrwt>0</asrwt>
<pdfrwt beam="1">  1        2 0.33699343E+00 0.65748877E+03</pdfrwt>
<pdfrwt beam="2">  1       -2 0.62411232E-01 0.65748877E+03</pdfrwt>
<totfact> 0.13143559E+01</totfact>
</mgrwt>
</event>
<event>
 4    1  0.4880711E-008  0.2050042E+03  0.7818608E-02  0.1145584E+00
         -2   -1    0    0    0  501 -0.00000000000E+00  0.00000000000E+00  0.11288576950E+03  0.11288576953E+03  0.25500000000E-02 0.  1.
          2   -1    0    0  501    0  0.00000000000E+00 -0.00000000000E+00 -0.69092014614E+03  0.69092014615E+03  0.25500000000E-02 0. -1.
    8880022    1    1    2    0    0  0.61478769045E+02  0.12188281426E+03 -0.56194504977E+03  0.59817133952E+03  0.15294330000E+03 0.  0.
    8880022    1    1    2    0    0 -0.61478769045E+02 -0.12188281426E+03 -0.16089326877E+02  0.20563457615E+03  0.15294330000E+03 0.  0.
<mgrwt>
<rscale>  0 0.20500418E+03</rscale>
<asrwt>0</asrwt>
<pdfrwt beam="1">  1        2 0.10629540E+00 0.20500418E+03</pdfrwt>
<pdfrwt beam="2">  1       -2 0.17367042E-01 0.20500418E+03</pdfrwt>
<totfact> 0.11409024E+03</totfact>
</mgrwt>
</event>
<event>
 4    1  0.4880711E-008  0.3809669E+03  0.7818608E-02  0.1050577E+00
         -2   -1    0    0    0  501 -0.00000000000E+00  0.00000000000E+00  0.20827962878E+04  0.20827962878E+04  0.25500000000E-02 0.  1.
          2   -1    0    0  501    0  0.00000000000E+00 -0.00000000000E+00 -0.38124007493E+03  0.38124007494E+03  0.25500000000E-02 0. -1.
    8880022    1    1    2    0    0  0.14251230158E+03 -0.31848766564E+03 -0.26296889928E+03  0.46291299859E+03  0.15294330000E+03 0.  0.
    8880022    1    1    2    0    0 -0.14251230158E+03  0.31848766564E+03  0.19645251122E+04  0.20011233642E+04  0.15294330000E+03 0.  0.
<mgrwt>
<rscale>  0 0.38096693E+03</rscale>
<asrwt>0</asrwt>
<pdfrwt beam="1">  1        2 0.58652319E-01 0.38096693E+03</pdfrwt>
<pdfrwt beam="2">  1       -2 0.32043020E+00 0.38096693E+03</pdfrwt>
<totfact> 0.22626888E+00</totfact>
</mgrwt>
</event>
<event>
 4    1  0.4880711E-008  0.1273636E+04  0.7818608E-02  0.9050737E-01
          2   -1    0    0  501    0  0.00000000000E+00  0.00000000000E+00  0.41608431388E+04  0.41608431388E+04  0.25500000000E-02 0. -1.
         -2   -1    0    0    0  501 -0.00000000000E+00 -0.00000000000E+00 -0.67441760540E+03  0.67441760541E+03  0.25500000000E-02 0.  1.
    8880022    1    1    2    0    0  0.69959295229E+03  0.10532456129E+04  0.33136124232E+04  0.35499543045E+04  0.15294330000E+03 0.  0.
    8880022    1    1    2    0    0 -0.69959295229E+03 -0.10532456129E+04  0.17281311025E+03  0.12853064397E+04  0.15294330000E+03 0.  0.
<mgrwt>
<rscale>  0 0.12736358E+04</rscale>
<asrwt>0</asrwt>
<pdfrwt beam="1">  1        2 0.64012972E+00 0.12736358E+04</pdfrwt>
<pdfrwt beam="2">  1       -2 0.10375655E+00 0.12736358E+04</pdfrwt>
<totfact> 0.19112531E-01</totfact>
</mgrwt>
</event>
<event>
 4    1  0.4880711E-008  0.1520968E+04  0.7818608E-02  0.8870628E-01
          2   -1    0    0  501    0  0.00000000000E+00  0.00000000000E+00  0.16631513932E+04  0.16631513932E+04  0.25500000000E-02 0. -1.
         -2   -1    0    0    0  501 -0.00000000000E+00 -0.00000000000E+00 -0.14559721192E+04  0.14559721192E+04  0.25500000000E-02 0.  1.
    8880022    1    1    2    0    0  0.59119958865E+03  0.13929946923E+04 -0.22601397887E+03  0.15376687348E+04  0.15294330000E+03 0.  0.
    8880022    1    1    2    0    0 -0.59119958865E+03 -0.13929946923E+04  0.43319325288E+03  0.15814547776E+04  0.15294330000E+03 0.  0.
<mgrwt>
<rscale>  0 0.15209677E+04</rscale>
<asrwt>0</asrwt>
<pdfrwt beam="1">  1        2 0.25586944E+00 0.15209677E+04</pdfrwt>
<pdfrwt beam="2">  1       -2 0.22399571E+00 0.15209677E+04</pdfrwt>
<totfact> 0.89917133E-01</totfact>
</mgrwt>
</event>
<event>
 4    1  0.4880711E-008  0.8187253E+03  0.7818608E-02  0.9533302E-01
         -2   -1    0    0    0  501 -0.00000000000E+00  0.00000000000E+00  0.16956774727E+04  0.16956774727E+04  0.25500000000E-02 0.  1.
          2   -1    0    0  501    0  0.00000000000E+00 -0.00000000000E+00 -0.11665314074E+04  0.11665314074E+04  0.25500000000E-02 0. -1.
    8880022    1    1    2    0    0 -0.79163741036E+03  0.14223100588E+03  0.14282001621E+04  0.16462280536E+04  0.15294330000E+03 0.  0.
    8880022    1    1    2    0    0  0.79163741036E+03 -0.14223100588E+03 -0.89905409676E+03  0.12159808265E+04  0.15294330000E+03 0.  0.
<mgrwt>
<rscale>  0 0.81872529E+03</rscale>
<asrwt>0</asrwt>
<pdfrwt beam="1">  1        2 0.17946637E+00 0.81872529E+03</pdfrwt>
<pdfrwt beam="2">  1       -2 0.26087346E+00 0.81872529E+03</pdfrwt>
<totfact> 0.11221391E+00</totfact>
</mgrwt>
</event>
<event>
 4    1  0.4880711E-008  0.3613175E+03  0.7818608E-02  0.1058063E+00
          2   -1    0    0  501    0  0.00000000000E+00  0.00000000000E+00  0.20375748496E+04  0.20375748496E+04  0.25500000000E-02 0. -1.
         -2   -1    0    0    0  501 -0.00000000000E+00 -0.00000000000E+00 -0.17831147278E+03  0.17831147280E+03  0.25500000000E-02 0.  1.
    8880022    1    1    2    0    0 -0.15967381131E+02  0.32696132048E+03  0.42808513423E+02  0.36384458796E+03  0.15294330000E+03 0.  0.
    8880022    1    1    2    0    0  0.15967381131E+02 -0.32696132048E+03  0.18164548634E+04  0.18520417344E+04  0.15294330000E+03 0. -1.
<mgrwt>
<rscale>  0 0.36131747E+03</rscale>
<asrwt>0</asrwt>
<pdfrwt beam="1">  1        2 0.31347305E+00 0.36131747E+03</pdfrwt>
<pdfrwt beam="2">  1       -2 0.27432534E-01 0.36131747E+03</pdfrwt>
<totfact> 0.84200614E+01</totfact>
</mgrwt>
</event>
<event>
 4    1  0.4880711E-008  0.3681280E+03  0.7818608E-02  0.1055411E+00
         -2   -1    0    0    0  501 -0.00000000000E+00  0.00000000000E+00  0.12735333068E+03  0.12735333071E+03  0.25500000000E-02 0.  1.
          2   -1    0    0  501    0  0.00000000000E+00 -0.00000000000E+00 -0.14492181803E+04  0.14492181803E+04  0.25500000000E-02 0. -1.
    8880022    1    1    2    0    0  0.18671523007E+03 -0.27796402500E+03 -0.10672886705E+04  0.11289921769E+04  0.15294330000E+03 0. -1.
    8880022    1    1    2    0    0 -0.18671523007E+03  0.27796402500E+03 -0.25457617914E+03  0.44757933412E+03  0.15294330000E+03 0.  0.
<mgrwt>
<rscale>  0 0.36812801E+03</rscale>
<asrwt>0</asrwt>
<pdfrwt beam="1">  1        2 0.22295663E+00 0.36812801E+03</pdfrwt>
<pdfrwt beam="2">  1       -2 0.19592821E-01 0.36812801E+03</pdfrwt>
<totfact> 0.31421232E+02</totfact>
</mgrwt>
</event>
<event>
 4    1  0.4880711E-008  0.2293749E+03  0.7818608E-02  0.1127081E+00
         -2   -1    0    0    0  501 -0.00000000000E+00  0.00000000000E+00  0.36216262046E+03  0.36216262047E+03  0.25500000000E-02 0.  1.
          2   -1    0    0  501    0  0.00000000000E+00 -0.00000000000E+00 -0.77558203287E+03  0.77558203288E+03  0.25500000000E-02 0. -1.
    8880022    1    1    2    0    0 -0.15309595515E+03  0.76044807709E+02 -0.71954432591E+03  0.75521975227E+03  0.15294330000E+03 0. -1.
    8880022    1    1    2    0    0  0.15309595515E+03 -0.76044807709E+02  0.30612491349E+03  0.38252490107E+03  0.15294330000E+03 0.  0.
<mgrwt>
<rscale>  0 0.22937488E+03</rscale>
<asrwt>0</asrwt>
<pdfrwt beam="1">  1        2 0.11932031E+00 0.22937488E+03</pdfrwt>
<pdfrwt beam="2">  1       -2 0.55717326E-01 0.22937488E+03</pdfrwt>
<totfact> 0.11599858E+02</totfact>
</mgrwt>
</event>
<event>
 4    1  0.4880711E-008  0.9384581E+03  0.7818608E-02  0.9378744E-01
         -2   -1    0    0    0  501 -0.00000000000E+00  0.00000000000E+00  0.64409290356E+03  0.64409290356E+03  0.25500000000E-02 0.  1.
          2   -1    0    0  501    0  0.00000000000E+00 -0.00000000000E+00 -0.15800325608E+04  0.15800325608E+04  0.25500000000E-02 0. -1.
    8880022    1    1    2    0    0  0.27845943557E+03  0.88304720170E+03 -0.59972730399E+02  0.94037247891E+03  0.15294330000E+03 0.  0.
    8880022    1    1    2    0    0 -0.27845943557E+03 -0.88304720170E+03 -0.87596692682E+03  0.12837529854E+04  0.15294330000E+03 0. -1.
<mgrwt>
<rscale>  0 0.93845813E+03</rscale>
<asrwt>0</asrwt>
<pdfrwt beam="1">  1        2 0.24308193E+00 0.93845813E+03</pdfrwt>
<pdfrwt beam="2">  1       -2 0.99091216E-01 0.93845813E+03</pdfrwt>
<totfact> 0.96842608E+00</totfact>
</mgrwt>
</event>
<event>
 4    1  0.4880711E-008  0.2858231E+03  0.7818608E-02  0.1092550E+00
          2   -1    0    0  501    0  0.00000000000E+00  0.00000000000E+00  0.99405055051E+03  0.99405055052E+03  0.25500000000E-02 0. -1.
         -2   -1    0    0    0  501 -0.00000000000E+00 -0.00000000000E+00 -0.55059085649E+03  0.55059085650E+03  0.25500000000E-02 0.  1.
    8880022    1    1    2    0    0 -0.22229009917E+03  0.94288432159E+02  0.93408225232E+03  0.97683391820E+03  0.15294330000E+03 0.  0.
    8880022    1    1    2    0    0  0.22229009917E+03 -0.94288432159E+02 -0.49062255830E+03  0.56780748882E+03  0.15294330000E+03 0.  0.
<mgrwt>
<rscale>  0 0.28582311E+03</rscale>
<asrwt>0</asrwt>
<pdfrwt beam="1">  1        2 0.15293085E+00 0.28582311E+03</pdfrwt>
<pdfrwt beam="2">  1       -2 0.84706286E-01 0.28582311E+03</pdfrwt>
<totfact> 0.33604642E+01</totfact>
</mgrwt>
</event>
<event>
 4    1  0.4880711E-008  0.1026529E+04  0.7818608E-02  0.9279917E-01
         -2   -1    0    0    0  501 -0.00000000000E+00  0.00000000000E+00  0.11605724951E+04  0.11605724951E+04  0.25500000000E-02 0.  1.
          2   -1    0    0  501    0  0.00000000000E+00 -0.00000000000E+00 -0.10246814075E+04  0.10246814075E+04  0.25500000000E-02 0. -1.
    8880022    1    1    2    0    0 -0.54205530938E+03  0.85822286569E+03  0.43670129179E+03  0.11155582087E+04  0.15294330000E+03 0.  0.
    8880022    1    1    2    0    0  0.54205530938E+03 -0.85822286569E+03 -0.30081020426E+03  0.10696956939E+04  0.15294330000E+03 0.  0.
<mgrwt>
<rscale>  0 0.10265292E+04</rscale>
<asrwt>0</asrwt>
<pdfrwt beam="1">  1        2 0.15764329E+00 0.10265292E+04</pdfrwt>
<pdfrwt beam="2">  1       -2 0.17854961E+00 0.10265292E+04</pdfrwt>
<totfact> 0.44558905E+00</totfact>
</mgrwt>
</event>
<event>
 4    1  0.4880711E-008  0.1324224E+04  0.7818608E-02  0.9010573E-01
         -2   -1    0    0    0  501 -0.00000000000E+00  0.00000000000E+00  0.61047350009E+03  0.61047350009E+03  0.25500000000E-02 0.  1.
          2   -1    0    0  501    0  0.00000000000E+00 -0.00000000000E+00 -0.37353133596E+04  0.37353133596E+04  0.25500000000E-02 0. -1.
    8880022    1    1    2    0    0  0.12273774429E+04  0.47299258819E+03 -0.51808459121E+03  0.14219636678E+04  0.15294330000E+03 0.  0.
    8880022    1    1    2    0    0 -0.12273774429E+04 -0.47299258819E+03 -0.26067552683E+04  0.29238231920E+04  0.15294330000E+03 0.  0.
<mgrwt>
<rscale>  0 0.13242239E+04</rscale>
<asrwt>0</asrwt>
<pdfrwt beam="1">  1        2 0.57466358E+00 0.13242239E+04</pdfrwt>
<pdfrwt beam="2">  1       -2 0.93919002E-01 0.13242239E+04</pdfrwt>
<totfact> 0.52021832E-01</totfact>
</mgrwt>
</event>
<event>
 4    1  0.4880711E-008  0.8642513E+03  0.7818608E-02  0.9471406E-01
         -2   -1    0    0    0  501 -0.00000000000E+00  0.00000000000E+00  0.52386404717E+03  0.52386404717E+03  0.25500000000E-02 0.  1.
          2   -1    0    0  501    0  0.00000000000E+00 -0.00000000000E+00 -0.20652837011E+04  0.20652837011E+04  0.25500000000E-02 0. -1.
    8880022    1    1    2    0    0 -0.57743132800E+03 -0.62458921849E+03 -0.14910680647E+04  0.17234309551E+04  0.15294330000E+03 0.  0.
    8880022    1    1    2    0    0  0.57743132800E+03  0.62458921849E+03 -0.50351589205E+02  0.86571679316E+03  0.15294330000E+03 0.  0.
<mgrwt>
<rscale>  0 0.86425128E+03</rscale>
<asrwt>0</asrwt>
<pdfrwt beam="1">  1        2 0.31773595E+00 0.86425128E+03</pdfrwt>
<pdfrwt beam="2">  1       -2 0.80594470E-01 0.86425128E+03</pdfrwt>
<totfact> 0.85204240E+00</totfact>
</mgrwt>
</event>
<event>
 4    1  0.4880711E-008  0.3450183E+03  0.7818608E-02  0.1064678E+00
         -2   -1    0    0    0  501 -0.00000000000E+00  0.00000000000E+00  0.47022489048E+03  0.47022489049E+03  0.25500000000E-02 0.  1.
          2   -1    0    0  501    0  0.00000000000E+00 -0.00000000000E+00 -0.57305081355E+03  0.57305081356E+03  0.25500000000E-02 0. -1.
    8880022    1    1    2    0    0 -0.26060575677E+03  0.16652516833E+03 -0.44115737104E+03  0.56005131120E+03  0.15294330000E+03 0.  0.
    8880022    1    1    2    0    0  0.26060575677E+03 -0.16652516833E+03  0.33833144796E+03  0.48322439284E+03  0.15294330000E+03 0.  0.
<mgrwt>
<rscale>  0 0.34501833E+03</rscale>
<asrwt>0</asrwt>
<pdfrwt beam="1">  1        2 0.88161663E-01 0.34501833E+03</pdfrwt>
<pdfrwt beam="2">  1       -2 0.72342291E-01 0.34501833E+03</pdfrwt>
<totfact> 0.94765757E+01</totfact>
</mgrwt>
</event>
<event>
 4    1  0.6646725E-008  0.6369437E+03  0.7818608E-02  0.9831592E-01
         -2   -1    0    0    0  501 -0.00000000000E+00  0.00000000000E+00  0.11165382603E+04  0.11165382603E+04  0.25500000000E-02 0.  1.
          2   -1    0    0  501    0  0.00000000000E+00 -0.00000000000E+00 -0.20375988518E+04  0.20375988518E+04  0.25500000000E-02 0. -1.
    8880022    1    1    2    0    0 -0.33806176862E+02  0.61738380219E+03 -0.18900853151E+04  0.19945224412E+04  0.15294330000E+03 0.  0.
    8880022    1    1    2    0    0  0.33806176862E+02 -0.61738380219E+03  0.96902472372E+03  0.11596146709E+04  0.15294330000E+03 0.  0.
<mgrwt>
<rscale>  0 0.63694369E+03</rscale>
<asrwt>0</asrwt>
<pdfrwt beam="1">  1        2 0.31347675E+00 0.63694369E+03</pdfrwt>
<pdfrwt beam="2">  1       -2 0.17177512E+00 0.63694369E+03</pdfrwt>
<totfact> 0.14057638E+00</totfact>
</mgrwt>
</event>
<event>
 4    1  0.4880711E-008  0.5156846E+03  0.7818608E-02  0.1009764E+00
         -2   -1    0    0    0  501 -0.00000000000E+00  0.00000000000E+00  0.12417767905E+03  0.12417767907E+03  0.25500000000E-02 0.  1.
          2   -1    0    0  501    0  0.00000000000E+00 -0.00000000000E+00 -0.28535643524E+04  0.28535643524E+04  0.25500000000E-02 0. -1.
    8880022    1    1    2    0    0  0.48822442874E+03 -0.64621103435E+02 -0.62096776898E+03  0.80717507578E+03  0.15294330000E+03 0.  0.
    8880022    1    1    2    0    0 -0.48822442874E+03  0.64621103435E+02 -0.21084189044E+04  0.21705669557E+04  0.15294330000E+03 0.  0.
<mgrwt>
<rscale>  0 0.51568463E+03</rscale>
<asrwt>0</asrwt>
<pdfrwt beam="1">  1        2 0.43900985E+00 0.51568463E+03</pdfrwt>
<pdfrwt beam="2">  1       -2 0.19104260E-01 0.51568463E+03</pdfrwt>
<totfact> 0.54226998E+01</totfact>
</mgrwt>
</event>
<event>
 4    1  0.4880711E-008  0.1042938E+04  0.7818608E-02  0.9262665E-01
          2   -1    0    0  501    0  0.00000000000E+00  0.00000000000E+00  0.22753351509E+04  0.22753351509E+04  0.25500000000E-02 0. -1.
         -2   -1    0    0    0  501 -0.00000000000E+00 -0.00000000000E+00 -0.71078917535E+03  0.71078917535E+03  0.25500000000E-02 0.  1.
    8880022    1    1    2    0    0  0.10316625240E+04 -0.90022344890E+00  0.16366387755E+04  0.19406974284E+04  0.15294330000E+03 0.  0.
    8880022    1    1    2    0    0 -0.10316625240E+04  0.90022344890E+00 -0.72092800023E+02  0.10454268978E+04  0.15294330000E+03 0.  0.
<mgrwt>
<rscale>  0 0.10429382E+04</rscale>
<asrwt>0</asrwt>
<pdfrwt beam="1">  1        2 0.35005156E+00 0.10429382E+04</pdfrwt>
<pdfrwt beam="2">  1       -2 0.10935218E+00 0.10429382E+04</pdfrwt>
<totfact> 0.31148710E+00</totfact>
</mgrwt>
</event>
<event>
 4    1  0.4880711E-008  0.4357094E+03  0.7818608E-02  0.1032071E+00
          2   -1    0    0  501    0  0.00000000000E+00  0.00000000000E+00  0.26617396266E+04  0.26617396266E+04  0.25500000000E-02 0. -1.
         -2   -1    0    0    0  501 -0.00000000000E+00 -0.00000000000E+00 -0.33007619238E+03  0.33007619239E+03  0.25500000000E-02 0.  1.
    8880022    1    1    2    0    0  0.93571745470E+02  0.39710879812E+03 -0.15863419261E+03  0.46368904362E+03  0.15294330000E+03 0.  0.
    8880022    1    1    2    0    0 -0.93571745470E+02 -0.39710879812E+03  0.24902976268E+04  0.25281267753E+04  0.15294330000E+03 0.  0.
<mgrwt>
<rscale>  0 0.43570945E+03</rscale>
<asrwt>0</asrwt>
<pdfrwt beam="1">  1        2 0.40949840E+00 0.43570945E+03</pdfrwt>
<pdfrwt beam="2">  1       -2 0.50780953E-01 0.43570945E+03</pdfrwt>
<totfact> 0.11584725E+01</totfact>
</mgrwt>
</event>
<event>
 4    1  0.4880711E-008  0.4386188E+03  0.7818608E-02  0.1031171E+00
         -2   -1    0    0    0  501 -0.00000000000E+00  0.00000000000E+00  0.30569755910E+03  0.30569755911E+03  0.25500000000E-02 0.  1.
          2   -1    0    0  501    0  0.00000000000E+00 -0.00000000000E+00 -0.22518445816E+04  0.22518445816E+04  0.25500000000E-02 0. -1.
    8880022    1    1    2    0    0  0.35671811399E+03  0.20432084549E+03  0.11239467605E+03  0.45279027923E+03  0.15294330000E+03 0.  0.
    8880022    1    1    2    0    0 -0.35671811399E+03 -0.20432084549E+03 -0.20585416986E+04  0.21047518615E+04  0.15294330000E+03 0.  0.
<mgrwt>
<rscale>  0 0.43861883E+03</rscale>
<asrwt>0</asrwt>
<pdfrwt beam="1">  1        2 0.34643762E+00 0.43861883E+03</pdfrwt>
<pdfrwt beam="2">  1       -2 0.47030395E-01 0.43861883E+03</pdfrwt>
<totfact> 0.22805356E+01</totfact>
</mgrwt>
</event>
<event>
 4    1  0.4880711E-008  0.6163402E+03  0.7818608E-02  0.9872074E-01
         -2   -1    0    0    0  501 -0.00000000000E+00  0.00000000000E+00  0.36377772042E+03  0.36377772043E+03  0.25500000000E-02 0.  1.
          2   -1    0    0  501    0  0.00000000000E+00 -0.00000000000E+00 -0.15334448730E+04  0.15334448730E+04  0.25500000000E-02 0. -1.
    8880022    1    1    2    0    0  0.57318324157E+03 -0.16716622115E+03 -0.11206237432E+04  0.12789342441E+04  0.15294330000E+03 0. -1.
    8880022    1    1    2    0    0 -0.57318324157E+03  0.16716622115E+03 -0.49043409398E+02  0.61828834934E+03  0.15294330000E+03 0.  0.
<mgrwt>
<rscale>  0 0.61634019E+03</rscale>
<asrwt>0</asrwt>
<pdfrwt beam="1">  1        2 0.23591459E+00 0.61634019E+03</pdfrwt>
<pdfrwt beam="2">  1       -2 0.55965804E-01 0.61634019E+03</pdfrwt>
<totfact> 0.37904563E+01</totfact>
</mgrwt>
</event>
<event>
 4    1  0.4880711E-008  0.3047544E+03  0.7818608E-02  0.1082888E+00
          2   -1    0    0  501    0  0.00000000000E+00  0.00000000000E+00  0.69483018862E+03  0.69483018862E+03  0.25500000000E-02 0. -1.
         -2   -1    0    0    0  501 -0.00000000000E+00 -0.00000000000E+00 -0.52560350538E+03  0.52560350539E+03  0.25500000000E-02 0.  1.
    8880022    1    1    2    0    0  0.11747620885E+03 -0.23597236130E+03 -0.44232937078E+03  0.53715038882E+03  0.15294330000E+03 0.  0.
    8880022    1    1    2    0    0 -0.11747620885E+03  0.23597236130E+03  0.61155605401E+03  0.68328330519E+03  0.15294330000E+03 0. -1.
<mgrwt>
<rscale>  0 0.30475444E+03</rscale>
<asrwt>0</asrwt>
<pdfrwt beam="1">  1        2 0.10689695E+00 0.30475444E+03</pdfrwt>
<pdfrwt beam="2">  1       -2 0.80862078E-01 0.30475444E+03</pdfrwt>
<totfact> 0.59311529E+01</totfact>
</mgrwt>
</event>
<event>
 4    1  0.4880711E-008  0.3492525E+03  0.7818608E-02  0.1062922E+00
         -2   -1    0    0    0  501 -0.00000000000E+00  0.00000000000E+00  0.30844460519E+03  0.30844460520E+03  0.25500000000E-02 0.  1.
          2   -1    0    0  501    0  0.00000000000E+00 -0.00000000000E+00 -0.76994101577E+03  0.76994101577E+03  0.25500000000E-02 0. -1.
    8880022    1    1    2    0    0 -0.29676985523E+03  0.10253427804E+03  0.14528889211E+03  0.37826728689E+03  0.15294330000E+03 0.  0.
    8880022    1    1    2    0    0  0.29676985523E+03 -0.10253427804E+03 -0.60678530269E+03  0.70011833408E+03  0.15294330000E+03 0.  0.
<mgrwt>
<rscale>  0 0.34925246E+03</rscale>
<asrwt>0</asrwt>
<pdfrwt beam="1">  1        2 0.11845246E+00 0.34925246E+03</pdfrwt>
<pdfrwt beam="2">  1       -2 0.47453016E-01 0.34925246E+03</pdfrwt>
<totfact> 0.15902256E+02</totfact>
</mgrwt>
</event>
<event>
 4    1  0.4880711E-008  0.5468661E+03  0.7818608E-02  0.1002222E+00
          2   -1    0    0  501    0  0.00000000000E+00  0.00000000000E+00  0.17373916320E+04  0.17373916320E+04  0.25500000000E-02 0. -1.
         -2   -1    0    0    0  501 -0.00000000000E+00 -0.00000000000E+00 -0.39632282175E+03  0.39632282176E+03  0.25500000000E-02 0.  1.
    8880022    1    1    2    0    0 -0.21215903424E+03  0.48027013263E+03  0.14729320894E+04  0.15711751809E+04  0.15294330000E+03 0.  0.
    8880022    1    1    2    0    0  0.21215903424E+03 -0.48027013263E+03 -0.13186327914E+03  0.56253927285E+03  0.15294330000E+03 0.  0.
<mgrwt>
<rscale>  0 0.54686608E+03</rscale>
<asrwt>0</asrwt>
<pdfrwt beam="1">  1        2 0.26729102E+00 0.54686608E+03</pdfrwt>
<pdfrwt beam="2">  1       -2 0.60972742E-01 0.54686608E+03</pdfrwt>
<totfact> 0.24793442E+01</totfact>
</mgrwt>
</event>
<event>
 4    1  0.4880711E-008  0.4910483E+03  0.7818608E-02  0.1016142E+00
          2   -1    0    0  501    0  0.00000000000E+00  0.00000000000E+00  0.16577655897E+04  0.16577655897E+04  0.25500000000E-02 0. -1.
         -2   -1    0    0    0  501 -0.00000000000E+00 -0.00000000000E+00 -0.45265325044E+03  0.45265325045E+03  0.25500000000E-02 0.  1.
    8880022    1    1    2    0    0 -0.45920665971E+03  0.82861758249E+02  0.14718487647E+04  0.15516015167E+04  0.15294330000E+03 0.  0.
    8880022    1    1    2    0    0  0.45920665971E+03 -0.82861758249E+02 -0.26673642549E+03  0.55881732346E+03  0.15294330000E+03 0.  0.
<mgrwt>
<rscale>  0 0.49104835E+03</rscale>
<asrwt>0</asrwt>
<pdfrwt beam="1">  1        2 0.25504086E+00 0.49104835E+03</pdfrwt>
<pdfrwt beam="2">  1       -2 0.69638961E-01 0.49104835E+03</pdfrwt>
<totfact> 0.20820441E+01</totfact>
</mgrwt>
</event>
<event>
 4    1  0.4880711E-008  0.3023782E+03  0.7818608E-02  0.1084058E+00
          2   -1    0    0  501    0  0.00000000000E+00  0.00000000000E+00  0.20188828608E+04  0.20188828608E+04  0.25500000000E-02 0. -1.
         -2   -1    0    0    0  501 -0.00000000000E+00 -0.00000000000E+00 -0.16733283500E+03  0.16733283502E+03  0.25500000000E-02 0.  1.
    8880022    1    1    2    0    0 -0.16597257395E+03 -0.20123125945E+03 -0.77606108261E+01  0.30247775981E+03  0.15294330000E+03 0.  0.
    8880022    1    1    2    0    0  0.16597257395E+03  0.20123125945E+03  0.18593106367E+04  0.18837379360E+04  0.15294330000E+03 0.  0.
<mgrwt>
<rscale>  0 0.30237819E+03</rscale>
<asrwt>0</asrwt>
<pdfrwt beam="1">  1        2 0.31059738E+00 0.30237819E+03</pdfrwt>
<pdfrwt beam="2">  1       -2 0.25743512E-01 0.30237819E+03</pdfrwt>
<totfact> 0.97990088E+01</totfact>
</mgrwt>
</event>
<event>
 4    1  0.4880711E-008  0.2548392E+03  0.7818608E-02  0.1110284E+00
         -2   -1    0    0    0  501 -0.00000000000E+00  0.00000000000E+00  0.23246029508E+03  0.23246029509E+03  0.25500000000E-02 0.  1.
          2   -1    0    0  501    0  0.00000000000E+00 -0.00000000000E+00 -0.10380323205E+04  0.10380323205E+04  0.25500000000E-02 0. -1.
    8880022    1    1    2    0    0 -0.35912966742E+02  0.20065294762E+03  0.14028956259E+03  0.29090232202E+03  0.15294330000E+03 0.  1.
    8880022    1    1    2    0    0  0.35912966742E+02 -0.20065294762E+03 -0.94586158806E+03  0.97959029362E+03  0.15294330000E+03 0.  0.
<mgrwt>
<rscale>  0 0.25483916E+03</rscale>
<asrwt>0</asrwt>
<pdfrwt beam="1">  1        2 0.15969728E+00 0.25483916E+03</pdfrwt>
<pdfrwt beam="2">  1       -2 0.35763123E-01 0.25483916E+03</pdfrwt>
<totfact> 0.18593951E+02</totfact>
</mgrwt>
</event>
<event>
 4    1  0.4880711E-008  0.1757423E+03  0.7818608E-02  0.1171988E+00
          2   -1    0    0  501    0  0.00000000000E+00  0.00000000000E+00  0.30558328293E+03  0.30558328294E+03  0.25500000000E-02 0. -1.
         -2   -1    0    0    0  501 -0.00000000000E+00 -0.00000000000E+00 -0.32465287185E+03  0.32465287186E+03  0.25500000000E-02 0.  1.
    8880022    1    1    2    0    0  0.80050953741E+02  0.32947908857E+02  0.25197185397E+03  0.30720544933E+03  0.15294330000E+03 0.  0.
    8880022    1    1    2    0    0 -0.80050953741E+02 -0.32947908857E+02 -0.27104144289E+03  0.32303070547E+03  0.15294330000E+03 0.  1.
<mgrwt>
<rscale>  0 0.17574235E+03</rscale>
<asrwt>0</asrwt>
<pdfrwt beam="1">  1        2 0.47012813E-01 0.17574235E+03</pdfrwt>
<pdfrwt beam="2">  1       -2 0.49946596E-01 0.17574235E+03</pdfrwt>
<totfact> 0.41506754E+02</totfact>
</mgrwt>
</event>
<event>
 4    1  0.4880711E-008  0.7472716E+03  0.7818608E-02  0.9639641E-01
         -2   -1    0    0    0  501 -0.00000000000E+00  0.00000000000E+00  0.61151993722E+03  0.61151993723E+03  0.25500000000E-02 0.  1.
          2   -1    0    0  501    0  0.00000000000E+00 -0.00000000000E+00 -0.12058397058E+04  0.12058397058E+04  0.25500000000E-02 0. -1.
    8880022    1    1    2    0    0 -0.44426964615E+03 -0.58107454995E+03 -0.74483535495E+03  0.10550803335E+04  0.15294330000E+03 0.  0.
    8880022    1    1    2    0    0  0.44426964615E+03  0.58107454995E+03  0.15051558633E+03  0.76227930959E+03  0.15294330000E+03 0.  0.
<mgrwt>
<rscale>  0 0.74727157E+03</rscale>
<asrwt>0</asrwt>
<pdfrwt beam="1">  1        2 0.18551380E+00 0.74727157E+03</pdfrwt>
<pdfrwt beam="2">  1       -2 0.94079990E-01 0.74727157E+03</pdfrwt>
<totfact> 0.18265361E+01</totfact>
</mgrwt>
</event>
<event>
 4    1  0.4880711E-008  0.5918231E+03  0.7818608E-02  0.9922517E-01
          2   -1    0    0  501    0  0.00000000000E+00  0.00000000000E+00  0.13971888796E+04  0.13971888796E+04  0.25500000000E-02 0. -1.
         -2   -1    0    0    0  501 -0.00000000000E+00 -0.00000000000E+00 -0.64345307018E+03  0.64345307018E+03  0.25500000000E-02 0.  1.
    8880022    1    1    2    0    0 -0.44577588589E+03  0.35797597168E+03  0.11740294611E+04  0.13147622467E+04  0.15294330000E+03 0. -1.
    8880022    1    1    2    0    0  0.44577588589E+03 -0.35797597168E+03 -0.42029365167E+03  0.72587970311E+03  0.15294330000E+03 0.  0.
<mgrwt>
<rscale>  0 0.59182311E+03</rscale>
<asrwt>0</asrwt>
<pdfrwt beam="1">  1        2 0.21495214E+00 0.59182311E+03</pdfrwt>
<pdfrwt beam="2">  1       -2 0.98992780E-01 0.59182311E+03</pdfrwt>
<totfact> 0.12855891E+01</totfact>
</mgrwt>
</event>
<event>
 4    1  0.4880711E-008  0.3703560E+03  0.7818608E-02  0.1054557E+00
          2   -1    0    0  501    0  0.00000000000E+00  0.00000000000E+00  0.25396062917E+04  0.25396062917E+04  0.25500000000E-02 0. -1.
         -2   -1    0    0    0  501 -0.00000000000E+00 -0.00000000000E+00 -0.13539020936E+03  0.13539020938E+03  0.25500000000E-02 0.  1.
    8880022    1    1    2    0    0  0.33125847317E+03 -0.63558708054E+02  0.16515372939E+03  0.40551114998E+03  0.15294330000E+03 0.  1.
    8880022    1    1    2    0    0 -0.33125847317E+03  0.63558708054E+02  0.22390623529E+04  0.22694853511E+04  0.15294330000E+03 0.  0.
<mgrwt>
<rscale>  0 0.37035596E+03</rscale>
<asrwt>0</asrwt>
<pdfrwt beam="1">  1        2 0.39070862E+00 0.37035596E+03</pdfrwt>
<pdfrwt beam="2">  1       -2 0.20829265E-01 0.37035596E+03</pdfrwt>
<totfact> 0.73042219E+01</totfact>
</mgrwt>
</event>
<event>
 4    1  0.4880711E-008  0.2074330E+03  0.7818608E-02  0.1143615E+00
          2   -1    0    0  501    0  0.00000000000E+00  0.00000000000E+00  0.14782463541E+03  0.14782463544E+03  0.25500000000E-02 0. -1.
         -2   -1    0    0    0  501 -0.00000000000E+00 -0.00000000000E+00 -0.76215079088E+03  0.76215079088E+03  0.25500000000E-02 0.  1.
    8880022    1    1    2    0    0 -0.53320959037E+02 -0.12959043217E+03  0.50540559134E+02  0.21350130190E+03  0.15294330000E+03 0.  0.
    8880022    1    1    2    0    0  0.53320959037E+02  0.12959043217E+03 -0.66486671460E+03  0.69647412441E+03  0.15294330000E+03 0.  1.
<mgrwt>
<rscale>  0 0.20743302E+03</rscale>
<asrwt>0</asrwt>
<pdfrwt beam="1">  1        2 0.22742252E-01 0.20743302E+03</pdfrwt>
<pdfrwt beam="2">  1       -2 0.11725397E+00 0.20743302E+03</pdfrwt>
<totfact> 0.14190877E+02</totfact>
</mgrwt>
</event>
<event>
 4    1  0.4880711E-008  0.1680129E+03  0.7818608E-02  0.1179936E+00
          2   -1    0    0  501    0  0.00000000000E+00  0.00000000000E+00  0.71937604256E+03  0.71937604256E+03  0.25500000000E-02 0. -1.
         -2   -1    0    0    0  501 -0.00000000000E+00 -0.00000000000E+00 -0.26192229354E+03  0.26192229356E+03  0.25500000000E-02 0.  1.
    8880022    1    1    2    0    0  0.27130881055E+02  0.64035973281E+02 -0.22367837915E+03  0.27975053332E+03  0.15294330000E+03 0.  1.
    8880022    1    1    2    0    0 -0.27130881055E+02 -0.64035973281E+02  0.68113212816E+03  0.70154780280E+03  0.15294330000E+03 0.  0.
<mgrwt>
<rscale>  0 0.16801293E+03</rscale>
<asrwt>0</asrwt>
<pdfrwt beam="1">  1        2 0.11067324E+00 0.16801293E+03</pdfrwt>
<pdfrwt beam="2">  1       -2 0.40295738E-01 0.16801293E+03</pdfrwt>
<totfact> 0.24362245E+02</totfact>
</mgrwt>
</event>
<event>
 4    1  0.4880711E-008  0.8082903E+03  0.7818608E-02  0.9548094E-01
          2   -1    0    0  501    0  0.00000000000E+00  0.00000000000E+00  0.34594385155E+04  0.34594385155E+04  0.25500000000E-02 0. -1.
         -2   -1    0    0    0  501 -0.00000000000E+00 -0.00000000000E+00 -0.30267698197E+03  0.30267698198E+03  0.25500000000E-02 0.  1.
    8880022    1    1    2    0    0  0.35576822435E+03 -0.70948605671E+03  0.27319004626E+04  0.28489670557E+04  0.15294330000E+03 0.  0.
    8880022    1    1    2    0    0 -0.35576822435E+03  0.70948605671E+03  0.42486107099E+03  0.91314844181E+03  0.15294330000E+03 0.  0.
<mgrwt>
<rscale>  0 0.80829026E+03</rscale>
<asrwt>0</asrwt>
<pdfrwt beam="1">  1        2 0.53222133E+00 0.80829026E+03</pdfrwt>
<pdfrwt beam="2">  1       -2 0.46565688E-01 0.80829026E+03</pdfrwt>
<totfact> 0.40618807E+00</totfact>
</mgrwt>
</event>
<event>
 4    1  0.4880711E-008  0.1594582E+03  0.7818608E-02  0.1189310E+00
          2   -1    0    0  501    0  0.00000000000E+00  0.00000000000E+00  0.11014384784E+04  0.11014384784E+04  0.25500000000E-02 0. -1.
         -2   -1    0    0    0  501 -0.00000000000E+00 -0.00000000000E+00 -0.12383422243E+03  0.12383422246E+03  0.25500000000E-02 0.  1.
    8880022    1    1    2    0    0 -0.38433243254E+02 -0.23625294891E+02 -0.63787657605E+02  0.17174337549E+03  0.15294330000E+03 0.  1.
    8880022    1    1    2    0    0  0.38433243254E+02  0.23625294891E+02  0.10413919136E+04  0.10535293254E+04  0.15294330000E+03 0.  0.
<mgrwt>
<rscale>  0 0.15945821E+03</rscale>
<asrwt>0</asrwt>
<pdfrwt beam="1">  1        2 0.16945208E+00 0.15945821E+03</pdfrwt>
<pdfrwt beam="2">  1       -2 0.19051418E-01 0.15945821E+03</pdfrwt>
<totfact> 0.53020842E+02</totfact>
</mgrwt>
</event>
<event>
 4    1  0.4880711E-008  0.1091082E+04  0.7818608E-02  0.9213928E-01
          2   -1    0    0  501    0  0.00000000000E+00  0.00000000000E+00  0.27007596683E+04  0.27007596683E+04  0.25500000000E-02 0. -1.
         -2   -1    0    0    0  501 -0.00000000000E+00 -0.00000000000E+00 -0.90780384204E+03  0.90780384205E+03  0.25500000000E-02 0.  1.
    8880022    1    1    2    0    0 -0.10528999767E+04  0.24180622175E+03  0.21905978646E+04  0.24472799732E+04  0.15294330000E+03 0.  0.
    8880022    1    1    2    0    0  0.10528999767E+04 -0.24180622175E+03 -0.39764203836E+03  0.11612835371E+04  0.15294330000E+03 0.  0.
<mgrwt>
<rscale>  0 0.10910822E+04</rscale>
<asrwt>0</asrwt>
<pdfrwt beam="1">  1        2 0.41550149E+00 0.10910822E+04</pdfrwt>
<pdfrwt beam="2">  1       -2 0.13966213E+00 0.10910822E+04</pdfrwt>
<totfact> 0.95507824E-01</totfact>
</mgrwt>
</event>
<event>
 4    1  0.4880711E-008  0.5482991E+03  0.7818608E-02  0.1001888E+00
          2   -1    0    0  501    0  0.00000000000E+00  0.00000000000E+00  0.22293310386E+04  0.22293310386E+04  0.25500000000E-02 0. -1.
         -2   -1    0    0    0  501 -0.00000000000E+00 -0.00000000000E+00 -0.49932309524E+03  0.49932309525E+03  0.25500000000E-02 0.  1.
    8880022    1    1    2    0    0  0.16171914081E+03  0.50108596954E+03 -0.30062046617E+03  0.62530356394E+03  0.15294330000E+03 0.  0.
    8880022    1    1    2    0    0 -0.16171914081E+03 -0.50108596954E+03  0.20306284095E+04  0.21033505699E+04  0.15294330000E+03 0.  0.
<mgrwt>
<rscale>  0 0.54829908E+03</rscale>
<asrwt>0</asrwt>
<pdfrwt beam="1">  1        2 0.34297401E+00 0.54829908E+03</pdfrwt>
<pdfrwt beam="2">  1       -2 0.76818937E-01 0.54829908E+03</pdfrwt>
<totfact> 0.81474321E+00</totfact>
</mgrwt>
</event>
<event>
 4    1  0.4880711E-008  0.5651456E+03  0.7818608E-02  0.9980479E-01
         -2   -1    0    0    0  501 -0.00000000000E+00  0.00000000000E+00  0.52882193354E+03  0.52882193355E+03  0.25500000000E-02 0.  1.
          2   -1    0    0  501    0  0.00000000000E+00 -0.00000000000E+00 -0.11090213534E+04  0.11090213534E+04  0.25500000000E-02 0. -1.
    8880022    1    1    2    0    0  0.53173714926E+03  0.11512403396E+03 -0.84274006724E+03  0.10146922750E+04  0.15294330000E+03 0.  0.
    8880022    1    1    2    0    0 -0.53173714926E+03 -0.11512403396E+03  0.26254064738E+03  0.62315101191E+03  0.15294330000E+03 0.  0.
<mgrwt>
<rscale>  0 0.56514564E+03</rscale>
<asrwt>0</asrwt>
<pdfrwt beam="1">  1        2 0.17061867E+00 0.56514564E+03</pdfrwt>
<pdfrwt beam="2">  1       -2 0.81357221E-01 0.56514564E+03</pdfrwt>
<totfact> 0.29759356E+01</totfact>
</mgrwt>
</event>
<event>
 4    1  0.4880711E-008  0.6752010E+03  0.7818608E-02  0.9760607E-01
         -2   -1    0    0    0  501 -0.00000000000E+00  0.00000000000E+00  0.69211027313E+03  0.69211027314E+03  0.25500000000E-02 0.  1.
          2   -1    0    0  501    0  0.00000000000E+00 -0.00000000000E+00 -0.10015737623E+04  0.10015737623E+04  0.25500000000E-02 0. -1.
    8880022    1    1    2    0    0 -0.65499407516E+03  0.59055508117E+02 -0.65021038470E+03  0.93737398562E+03  0.15294330000E+03 0.  0.
    8880022    1    1    2    0    0  0.65499407516E+03 -0.59055508117E+02  0.34074689558E+03  0.75631004978E+03  0.15294330000E+03 0.  0.
<mgrwt>
<rscale>  0 0.67520104E+03</rscale>
<asrwt>0</asrwt>
<pdfrwt beam="1">  1        2 0.15408827E+00 0.67520104E+03</pdfrwt>
<pdfrwt beam="2">  1       -2 0.10647850E+00 0.67520104E+03</pdfrwt>
<totfact> 0.18312224E+01</totfact>
</mgrwt>
</event>
<event>
 4    1  0.4880711E-008  0.4804050E+03  0.7818608E-02  0.1019024E+00
          2   -1    0    0  501    0  0.00000000000E+00  0.00000000000E+00  0.20471801732E+04  0.20471801732E+04  0.25500000000E-02 0. -1.
         -2   -1    0    0    0  501 -0.00000000000E+00 -0.00000000000E+00 -0.47975809914E+03  0.47975809915E+03  0.25500000000E-02 0.  1.
    8880022    1    1    2    0    0  0.33952670832E+03 -0.30351102078E+03  0.18888073854E+04  0.19489438980E+04  0.15294330000E+03 0.  0.
    8880022    1    1    2    0    0 -0.33952670832E+03  0.30351102078E+03 -0.32138531135E+03  0.57799437434E+03  0.15294330000E+03 0.  0.
<mgrwt>
<rscale>  0 0.48040501E+03</rscale>
<asrwt>0</asrwt>
<pdfrwt beam="1">  1        2 0.31495079E+00 0.48040501E+03</pdfrwt>
<pdfrwt beam="2">  1       -2 0.73808939E-01 0.48040501E+03</pdfrwt>
<totfact> 0.11350371E+01</totfact>
</mgrwt>
</event>
<event>
 4    1  0.4880711E-008  0.4648328E+03  0.7818608E-02  0.1023389E+00
         -2   -1    0    0    0  501 -0.00000000000E+00  0.00000000000E+00  0.36941451994E+03  0.36941451995E+03  0.25500000000E-02 0.  1.
          2   -1    0    0  501    0  0.00000000000E+00 -0.00000000000E+00 -0.16243788389E+04  0.16243788390E+04  0.25500000000E-02 0. -1.
    8880022    1    1    2    0    0  0.43886671742E+03 -0.85968001419E+01 -0.14249531231E+04  0.14988532139E+04  0.15294330000E+03 0.  0.
    8880022    1    1    2    0    0 -0.43886671742E+03  0.85968001419E+01  0.16998880410E+03  0.49494014503E+03  0.15294330000E+03 0.  0.
<mgrwt>
<rscale>  0 0.46483282E+03</rscale>
<asrwt>0</asrwt>
<pdfrwt beam="1">  1        2 0.24990443E+00 0.46483282E+03</pdfrwt>
<pdfrwt beam="2">  1       -2 0.56833004E-01 0.46483282E+03</pdfrwt>
<totfact> 0.33558692E+01</totfact>
</mgrwt>
</event>
<event>
 4    1  0.4880711E-008  0.3050117E+03  0.7818608E-02  0.1082762E+00
         -2   -1    0    0    0  501 -0.00000000000E+00  0.00000000000E+00  0.59780343982E+03  0.59780343983E+03  0.25500000000E-02 0.  1.
          2   -1    0    0  501    0  0.00000000000E+00 -0.00000000000E+00 -0.45930364518E+03  0.45930364518E+03  0.25500000000E-02 0. -1.
    8880022    1    1    2    0    0 -0.69076278919E+02 -0.25469379063E+03  0.49903110513E+03  0.58486251051E+03  0.15294330000E+03 0.  0.
    8880022    1    1    2    0    0  0.69076278919E+02  0.25469379063E+03 -0.36053131048E+03  0.47224457450E+03  0.15294330000E+03 0.  0.
<mgrwt>
<rscale>  0 0.30501166E+03</rscale>
<asrwt>0</asrwt>
<pdfrwt beam="1">  1        2 0.70662099E-01 0.30501166E+03</pdfrwt>
<pdfrwt beam="2">  1       -2 0.91969760E-01 0.30501166E+03</pdfrwt>
<totfact> 0.71741975E+01</totfact>
</mgrwt>
</event>
<event>
 4    1  0.4880711E-008  0.2745394E+03  0.7818608E-02  0.1098709E+00
         -2   -1    0    0    0  501 -0.00000000000E+00  0.00000000000E+00  0.86281962061E+03  0.86281962061E+03  0.25500000000E-02 0.  1.
          2   -1    0    0  501    0  0.00000000000E+00 -0.00000000000E+00 -0.33490571879E+03  0.33490571880E+03  0.25500000000E-02 0. -1.
    8880022    1    1    2    0    0 -0.21600929050E+03  0.72939762134E+02  0.77882718406E+03  0.82579880003E+03  0.15294330000E+03 0.  0.
    8880022    1    1    2    0    0  0.21600929050E+03 -0.72939762134E+02 -0.25091328224E+03  0.37192653939E+03  0.15294330000E+03 0. -1.
<mgrwt>
<rscale>  0 0.27453939E+03</rscale>
<asrwt>0</asrwt>
<pdfrwt beam="1">  1        2 0.51523957E-01 0.27453939E+03</pdfrwt>
<pdfrwt beam="2">  1       -2 0.13274148E+00 0.27453939E+03</pdfrwt>
<totfact> 0.42385311E+01</totfact>
</mgrwt>
</event>
<event>
 4    1  0.4880711E-008  0.4127143E+03  0.7818608E-02  0.1039464E+00
          2   -1    0    0  501    0  0.00000000000E+00  0.00000000000E+00  0.34451844304E+04  0.34451844304E+04  0.25500000000E-02 0. -1.
         -2   -1    0    0    0  501 -0.00000000000E+00 -0.00000000000E+00 -0.62208068319E+02  0.62208068372E+02  0.25500000000E-02 0.  1.
    8880022    1    1    2    0    0  0.16450123027E+03  0.34623800434E+03  0.89701711020E+03  0.98740708900E+03  0.15294330000E+03 0.  1.
    8880022    1    1    2    0    0 -0.16450123027E+03 -0.34623800434E+03  0.24859592519E+04  0.25199854098E+04  0.15294330000E+03 0.  0.
<mgrwt>
<rscale>  0 0.41271426E+03</rscale>
<asrwt>0</asrwt>
<pdfrwt beam="1">  1        2 0.53002840E+00 0.41271426E+03</pdfrwt>
<pdfrwt beam="2">  1       -2 0.95704716E-02 0.41271426E+03</pdfrwt>
<totfact> 0.75006140E+01</totfact>
</mgrwt>
</event>
<event>
 4    1  0.4880711E-008  0.4093808E+03  0.7818608E-02  0.1040579E+00
         -2   -1    0    0    0  501 -0.00000000000E+00  0.00000000000E+00  0.16784358937E+03  0.16784358939E+03  0.25500000000E-02 0.  1.
          2   -1    0    0  501    0  0.00000000000E+00 -0.00000000000E+00 -0.21012089184E+04  0.21012089184E+04  0.25500000000E-02 0. -1.
    8880022    1    1    2    0    0  0.25224057574E+03  0.28385860420E+03 -0.17885645064E+04  0.18348176100E+04  0.15294330000E+03 0. -1.
    8880022    1    1    2    0    0 -0.25224057574E+03 -0.28385860420E+03 -0.14480082260E+03  0.43423489780E+03  0.15294330000E+03 0.  0.
<mgrwt>
<rscale>  0 0.40938084E+03</rscale>
<asrwt>0</asrwt>
<pdfrwt beam="1">  1        2 0.32326289E+00 0.40938084E+03</pdfrwt>
<pdfrwt beam="2">  1       -2 0.25822092E-01 0.40938084E+03</pdfrwt>
<totfact> 0.85895233E+01</totfact>
</mgrwt>
</event>
<event>
 4    1  0.4880711E-008  0.1104421E+04  0.7818608E-02  0.9200894E-01
         -2   -1    0    0    0  501 -0.00000000000E+00  0.00000000000E+00  0.57040185226E+03  0.57040185227E+03  0.25500000000E-02 0.  1.
          2   -1    0    0  501    0  0.00000000000E+00 -0.00000000000E+00 -0.33884600292E+04  0.33884600292E+04  0.25500000000E-02 0. -1.
    8880022    1    1    2    0    0 -0.92066965457E+03  0.59052634362E+03 -0.26113076992E+04  0.28352554608E+04  0.15294330000E+03 0.  0.
    8880022    1    1    2    0    0  0.92066965457E+03 -0.59052634362E+03 -0.20675047771E+03  0.11236064206E+04  0.15294330000E+03 0.  0.
<mgrwt>
<rscale>  0 0.11044209E+04</rscale>
<asrwt>0</asrwt>
<pdfrwt beam="1">  1        2 0.52130153E+00 0.11044209E+04</pdfrwt>
<pdfrwt beam="2">  1       -2 0.87754134E-01 0.11044209E+04</pdfrwt>
<totfact> 0.11026144E+00</totfact>
</mgrwt>
</event>
<event>
 4    1  0.4880711E-008  0.6032882E+03  0.7818608E-02  0.9898607E-01
          2   -1    0    0  501    0  0.00000000000E+00  0.00000000000E+00  0.13843790268E+04  0.13843790268E+04  0.25500000000E-02 0. -1.
         -2   -1    0    0    0  501 -0.00000000000E+00 -0.00000000000E+00 -0.59423757704E+03  0.59423757705E+03  0.25500000000E-02 0.  1.
    8880022    1    1    2    0    0  0.57211250307E+03 -0.11511854838E+03  0.11338000389E+04  0.12843127257E+04  0.15294330000E+03 0.  0.
    8880022    1    1    2    0    0 -0.57211250307E+03  0.11511854838E+03 -0.34365858907E+03  0.69430387815E+03  0.15294330000E+03 0.  0.
<mgrwt>
<rscale>  0 0.60328820E+03</rscale>
<asrwt>0</asrwt>
<pdfrwt beam="1">  1        2 0.21298139E+00 0.60328820E+03</pdfrwt>
<pdfrwt beam="2">  1       -2 0.91421166E-01 0.60328820E+03</pdfrwt>
<totfact> 0.15704639E+01</totfact>
</mgrwt>
</event>
<event>
 4    1  0.4880711E-008  0.3751446E+03  0.7818608E-02  0.1052743E+00
         -2   -1    0    0    0  501 -0.00000000000E+00  0.00000000000E+00  0.14827740318E+03  0.14827740320E+03  0.25500000000E-02 0.  1.
          2   -1    0    0  501    0  0.00000000000E+00 -0.00000000000E+00 -0.13543454765E+04  0.13543454765E+04  0.25500000000E-02 0. -1.
    8880022    1    1    2    0    0  0.30829435125E+03  0.14931990803E+03 -0.19207169273E+03  0.42145584598E+03  0.15294330000E+03 0.  1.
    8880022    1    1    2    0    0 -0.30829435125E+03 -0.14931990803E+03 -0.10139963806E+04  0.10811670338E+04  0.15294330000E+03 0.  0.
<mgrwt>
<rscale>  0 0.37514463E+03</rscale>
<asrwt>0</asrwt>
<pdfrwt beam="1">  1        2 0.20836083E+00 0.37514463E+03</pdfrwt>
<pdfrwt beam="2">  1       -2 0.22811909E-01 0.37514463E+03</pdfrwt>
<totfact> 0.27170817E+02</totfact>
</mgrwt>
</event>
<event>
 4    1  0.4880711E-008  0.3910343E+03  0.7818608E-02  0.1046929E+00
          2   -1    0    0  501    0  0.00000000000E+00  0.00000000000E+00  0.50241130202E+03  0.50241130202E+03  0.25500000000E-02 0. -1.
         -2   -1    0    0    0  501 -0.00000000000E+00 -0.00000000000E+00 -0.68331373339E+03  0.68331373340E+03  0.25500000000E-02 0.  1.
    8880022    1    1    2    0    0 -0.60552772230E+02 -0.35475276263E+03 -0.53196468800E+03  0.66022287381E+03  0.15294330000E+03 0.  1.
    8880022    1    1    2    0    0  0.60552772230E+02  0.35475276263E+03  0.35106225662E+03  0.52550216161E+03  0.15294330000E+03 0.  0.
<mgrwt>
<rscale>  0 0.39103429E+03</rscale>
<asrwt>0</asrwt>
<pdfrwt beam="1">  1        2 0.77294046E-01 0.39103429E+03</pdfrwt>
<pdfrwt beam="2">  1       -2 0.10512519E+00 0.39103429E+03</pdfrwt>
<totfact> 0.46946991E+01</totfact>
</mgrwt>
</event>
<event>
 4    1  0.4880711E-008  0.5205850E+03  0.7818608E-02  0.1008541E+00
         -2   -1    0    0    0  501 -0.00000000000E+00  0.00000000000E+00  0.13634304721E+04  0.13634304721E+04  0.25500000000E-02 0.  1.
          2   -1    0    0  501    0  0.00000000000E+00 -0.00000000000E+00 -0.60588702258E+03  0.60588702258E+03  0.25500000000E-02 0. -1.
    8880022    1    1    2    0    0  0.23569037292E+03 -0.43825465811E+03 -0.42836977228E+03  0.67417313211E+03  0.15294330000E+03 0.  0.
    8880022    1    1    2    0    0 -0.23569037292E+03  0.43825465811E+03  0.11859132218E+04  0.12951443626E+04  0.15294330000E+03 0.  1.
<mgrwt>
<rscale>  0 0.52058501E+03</rscale>
<asrwt>0</asrwt>
<pdfrwt beam="1">  1        2 0.93213389E-01 0.52058501E+03</pdfrwt>
<pdfrwt beam="2">  1       -2 0.20975853E+00 0.52058501E+03</pdfrwt>
<totfact> 0.59550726E+00</totfact>
</mgrwt>
</event>
<event>
 4    1  0.4880711E-008  0.4823147E+03  0.7818608E-02  0.1018501E+00
          2   -1    0    0  501    0  0.00000000000E+00  0.00000000000E+00  0.30321586525E+04  0.30321586525E+04  0.25500000000E-02 0. -1.
         -2   -1    0    0    0  501 -0.00000000000E+00 -0.00000000000E+00 -0.26552319963E+03  0.26552319964E+03  0.25500000000E-02 0.  1.
    8880022    1    1    2    0    0  0.16884969382E+03  0.42511834566E+03  0.27736931914E+04  0.28153155063E+04  0.15294330000E+03 0.  0.
    8880022    1    1    2    0    0 -0.16884969382E+03 -0.42511834566E+03 -0.70577385319E+01  0.48236634585E+03  0.15294330000E+03 0.  1.
<mgrwt>
<rscale>  0 0.48231471E+03</rscale>
<asrwt>0</asrwt>
<pdfrwt beam="1">  1        2 0.46648597E+00 0.48231471E+03</pdfrwt>
<pdfrwt beam="2">  1       -2 0.40849721E-01 0.48231471E+03</pdfrwt>
<totfact> 0.10662288E+01</totfact>
</mgrwt>
</event>
<event>
 4    1  0.4880711E-008  0.4679279E+03  0.7818608E-02  0.1022507E+00
         -2   -1    0    0    0  501 -0.00000000000E+00  0.00000000000E+00  0.34417013449E+03  0.34417013450E+03  0.25500000000E-02 0.  1.
          2   -1    0    0  501    0  0.00000000000E+00 -0.00000000000E+00 -0.96392269911E+03  0.96392269912E+03  0.25500000000E-02 0. -1.
    8880022    1    1    2    0    0 -0.84624714571E+02  0.43405475362E+03 -0.69124882362E+03  0.83473436531E+03  0.15294330000E+03 0.  0.
    8880022    1    1    2    0    0  0.84624714571E+02 -0.43405475362E+03  0.71496258991E+02  0.47335846831E+03  0.15294330000E+03 0.  0.
<mgrwt>
<rscale>  0 0.46792791E+03</rscale>
<asrwt>0</asrwt>
<pdfrwt beam="1">  1        2 0.14829580E+00 0.46792791E+03</pdfrwt>
<pdfrwt beam="2">  1       -2 0.52949252E-01 0.46792791E+03</pdfrwt>
<totfact> 0.93034976E+01</totfact>
</mgrwt>
</event>
<event>
 4    1  0.4880711E-008  0.4838824E+03  0.7818608E-02  0.1018074E+00
         -2   -1    0    0    0  501 -0.00000000000E+00  0.00000000000E+00  0.48014117057E+03  0.48014117058E+03  0.25500000000E-02 0.  1.
          2   -1    0    0  501    0  0.00000000000E+00 -0.00000000000E+00 -0.61205807835E+03  0.61205807836E+03  0.25500000000E-02 0. -1.
    8880022    1    1    2    0    0 -0.27933392211E+03  0.36431175298E+03 -0.31216245648E+03  0.57583638792E+03  0.15294330000E+03 0.  0.
    8880022    1    1    2    0    0  0.27933392211E+03 -0.36431175298E+03  0.18024554870E+03  0.51636286102E+03  0.15294330000E+03 0.  0.
<mgrwt>
<rscale>  0 0.48388237E+03</rscale>
<asrwt>0</asrwt>
<pdfrwt beam="1">  1        2 0.94162781E-01 0.48388237E+03</pdfrwt>
<pdfrwt beam="2">  1       -2 0.73867872E-01 0.48388237E+03</pdfrwt>
<totfact> 0.82550767E+01</totfact>
</mgrwt>
</event>
<event>
 4    1  0.4880711E-008  0.5765206E+03  0.7818608E-02  0.9955352E-01
          2   -1    0    0  501    0  0.00000000000E+00  0.00000000000E+00  0.21195510530E+04  0.21195510530E+04  0.25500000000E-02 0. -1.
         -2   -1    0    0    0  501 -0.00000000000E+00 -0.00000000000E+00 -0.31158046713E+03  0.31158046714E+03  0.25500000000E-02 0.  1.
    8880022    1    1    2    0    0  0.49538993840E+03  0.25213727468E+03  0.47280353640E+02  0.57845611866E+03  0.15294330000E+03 0.  0.
    8880022    1    1    2    0    0 -0.49538993840E+03 -0.25213727468E+03  0.17606902323E+04  0.18526754015E+04  0.15294330000E+03 0.  0.
<mgrwt>
<rscale>  0 0.57652064E+03</rscale>
<asrwt>0</asrwt>
<pdfrwt beam="1">  1        2 0.32608478E+00 0.57652064E+03</pdfrwt>
<pdfrwt beam="2">  1       -2 0.47935456E-01 0.57652064E+03</pdfrwt>
<totfact> 0.25152503E+01</totfact>
</mgrwt>
</event>
<event>
 4    1  0.4880711E-008  0.5835896E+03  0.7818608E-02  0.9940050E-01
          2   -1    0    0  501    0  0.00000000000E+00  0.00000000000E+00  0.13089346426E+04  0.13089346426E+04  0.25500000000E-02 0. -1.
         -2   -1    0    0    0  501 -0.00000000000E+00 -0.00000000000E+00 -0.78319516923E+03  0.78319516924E+03  0.25500000000E-02 0.  1.
    8880022    1    1    2    0    0 -0.31402229194E+03 -0.46752020864E+03  0.11176903913E+04  0.12608761276E+04  0.15294330000E+03 0.  0.
    8880022    1    1    2    0    0  0.31402229194E+03  0.46752020864E+03 -0.59195091793E+03  0.83125368424E+03  0.15294330000E+03 0.  0.
<mgrwt>
<rscale>  0 0.58358958E+03</rscale>
<asrwt>0</asrwt>
<pdfrwt beam="1">  1        2 0.20137456E+00 0.58358958E+03</pdfrwt>
<pdfrwt beam="2">  1       -2 0.12049157E+00 0.58358958E+03</pdfrwt>
<totfact> 0.89930984E+00</totfact>
</mgrwt>
</event>
<event>
 4    1  0.4880711E-008  0.6063504E+03  0.7818608E-02  0.9892318E-01
          2   -1    0    0  501    0  0.00000000000E+00  0.00000000000E+00  0.35901768169E+04  0.35901768169E+04  0.25500000000E-02 0. -1.
         -2   -1    0    0    0  501 -0.00000000000E+00 -0.00000000000E+00 -0.43934067179E+03  0.43934067179E+03  0.25500000000E-02 0.  1.
    8880022    1    1    2    0    0  0.56030290504E+03  0.17415456841E+03 -0.18897063344E+03  0.63511472382E+03  0.15294330000E+03 0.  0.
    8880022    1    1    2    0    0 -0.56030290504E+03 -0.17415456841E+03  0.33398067785E+04  0.33944027648E+04  0.15294330000E+03 0.  0.
<mgrwt>
<rscale>  0 0.60635040E+03</rscale>
<asrwt>0</asrwt>
<pdfrwt beam="1">  1        2 0.55233490E+00 0.60635040E+03</pdfrwt>
<pdfrwt beam="2">  1       -2 0.67590872E-01 0.60635040E+03</pdfrwt>
<totfact> 0.15954513E+00</totfact>
</mgrwt>
</event>
<event>
 4    1  0.4880711E-008  0.9974491E+03  0.7818608E-02  0.9311347E-01
          2   -1    0    0  501    0  0.00000000000E+00  0.00000000000E+00  0.14933601449E+04  0.14933601449E+04  0.25500000000E-02 0. -1.
         -2   -1    0    0    0  501 -0.00000000000E+00 -0.00000000000E+00 -0.92035760335E+03  0.92035760335E+03  0.25500000000E-02 0.  1.
    8880022    1    1    2    0    0 -0.69237972338E+03 -0.70151499001E+03  0.92068291761E+03  0.13574099051E+04  0.15294330000E+03 0.  0.
    8880022    1    1    2    0    0  0.69237972338E+03  0.70151499001E+03 -0.34768037610E+03  0.10563078432E+04  0.15294330000E+03 0.  0.
<mgrwt>
<rscale>  0 0.99744905E+03</rscale>
<asrwt>0</asrwt>
<pdfrwt beam="1">  1        2 0.22974771E+00 0.99744905E+03</pdfrwt>
<pdfrwt beam="2">  1       -2 0.14159348E+00 0.99744905E+03</pdfrwt>
<totfact> 0.44346898E+00</totfact>
</mgrwt>
</event>
<event>
 4    1  0.4880711E-008  0.2108545E+03  0.7818608E-02  0.1140891E+00
         -2   -1    0    0    0  501 -0.00000000000E+00  0.00000000000E+00  0.49825822205E+02  0.49825822270E+02  0.25500000000E-02 0.  1.
          2   -1    0    0  501    0  0.00000000000E+00 -0.00000000000E+00 -0.27479277380E+04  0.27479277380E+04  0.25500000000E-02 0. -1.
    8880022    1    1    2    0    0 -0.14105027583E+03 -0.34245958127E+02 -0.24985858196E+04  0.25074669922E+04  0.15294330000E+03 0.  0.
    8880022    1    1    2    0    0  0.14105027583E+03  0.34245958127E+02 -0.19951609621E+03  0.29028656811E+03  0.15294330000E+03 0.  0.
<mgrwt>
<rscale>  0 0.21085450E+03</rscale>
<asrwt>0</asrwt>
<pdfrwt beam="1">  1        2 0.42275799E+00 0.21085450E+03</pdfrwt>
<pdfrwt beam="2">  1       -2 0.76655133E-02 0.21085450E+03</pdfrwt>
<totfact> 0.30075087E+02</totfact>
</mgrwt>
</event>
<event>
 4    1  0.4880711E-008  0.3363216E+03  0.7818608E-02  0.1068373E+00
          2   -1    0    0  501    0  0.00000000000E+00  0.00000000000E+00  0.35452641457E+04  0.35452641457E+04  0.25500000000E-02 0. -1.
         -2   -1    0    0    0  501 -0.00000000000E+00 -0.00000000000E+00 -0.23008421597E+03  0.23008421598E+03  0.25500000000E-02 0.  1.
    8880022    1    1    2    0    0  0.13530684716E+03  0.26723142689E+03  0.34095028081E+04  0.34260504418E+04  0.15294330000E+03 0. -1.
    8880022    1    1    2    0    0 -0.13530684716E+03 -0.26723142689E+03 -0.94322878395E+02  0.34929791985E+03  0.15294330000E+03 0.  0.
<mgrwt>
<rscale>  0 0.33632162E+03</rscale>
<asrwt>0</asrwt>
<pdfrwt beam="1">  1        2 0.54542523E+00 0.33632162E+03</pdfrwt>
<pdfrwt beam="2">  1       -2 0.35397573E-01 0.33632162E+03</pdfrwt>
<totfact> 0.69596614E+00</totfact>
</mgrwt>
</event>
<event>
 4    1  0.4880711E-008  0.9628600E+03  0.7818608E-02  0.9350244E-01
          2   -1    0    0  501    0  0.00000000000E+00  0.00000000000E+00  0.22904860855E+04  0.22904860855E+04  0.25500000000E-02 0. -1.
         -2   -1    0    0    0  501 -0.00000000000E+00 -0.00000000000E+00 -0.49067611821E+03  0.49067611822E+03  0.25500000000E-02 0.  1.
    8880022    1    1    2    0    0 -0.49833713739E+03  0.80954794918E+03  0.14817852910E+04  0.17671409356E+04  0.15294330000E+03 0.  0.
    8880022    1    1    2    0    0  0.49833713739E+03 -0.80954794918E+03  0.31802467628E+03  0.10140212681E+04  0.15294330000E+03 0.  0.
<mgrwt>
<rscale>  0 0.96286003E+03</rscale>
<asrwt>0</asrwt>
<pdfrwt beam="1">  1        2 0.35238247E+00 0.96286003E+03</pdfrwt>
<pdfrwt beam="2">  1       -2 0.75488634E-01 0.96286003E+03</pdfrwt>
<totfact> 0.73085981E+00</totfact>
</mgrwt>
</event>
<event>
 4    1  0.4880711E-008  0.4894158E+03  0.7818608E-02  0.1016579E+00
         -2   -1    0    0    0  501 -0.00000000000E+00  0.00000000000E+00  0.28729037233E+03  0.28729037234E+03  0.25500000000E-02 0.  1.
          2   -1    0    0  501    0  0.00000000000E+00 -0.00000000000E+00 -0.24234426288E+04  0.24234426288E+04  0.25500000000E-02 0. -1.
    8880022    1    1    2    0    0  0.39358297355E+03 -0.24744411085E+03 -0.21658103855E+04  0.22204194252E+04  0.15294330000E+03 0.  0.
    8880022    1    1    2    0    0 -0.39358297355E+03  0.24744411085E+03  0.29658129039E+02  0.49031357588E+03  0.15294330000E+03 0.  0.
<mgrwt>
<rscale>  0 0.48941577E+03</rscale>
<asrwt>0</asrwt>
<pdfrwt beam="1">  1        2 0.37283731E+00 0.48941577E+03</pdfrwt>
<pdfrwt beam="2">  1       -2 0.44198521E-01 0.48941577E+03</pdfrwt>
<totfact> 0.20509615E+01</totfact>
</mgrwt>
</event>
<event>
 4    1  0.4880711E-008  0.7076994E+03  0.7818608E-02  0.9704155E-01
          2   -1    0    0  501    0  0.00000000000E+00  0.00000000000E+00  0.16853181120E+04  0.16853181120E+04  0.25500000000E-02 0. -1.
         -2   -1    0    0    0  501 -0.00000000000E+00 -0.00000000000E+00 -0.60707480063E+03  0.60707480063E+03  0.25500000000E-02 0.  1.
    8880022    1    1    2    0    0  0.62308573814E+03 -0.29868192010E+03  0.13580519866E+04  0.15313861622E+04  0.15294330000E+03 0.  0.
    8880022    1    1    2    0    0 -0.62308573814E+03  0.29868192010E+03 -0.27980867522E+03  0.76100675044E+03  0.15294330000E+03 0.  0.
<mgrwt>
<rscale>  0 0.70769936E+03</rscale>
<asrwt>0</asrwt>
<pdfrwt beam="1">  1        2 0.25927971E+00 0.70769936E+03</pdfrwt>
<pdfrwt beam="2">  1       -2 0.93396123E-01 0.70769936E+03</pdfrwt>
<totfact> 0.10027488E+01</totfact>
</mgrwt>
</event>
<event>
 4    1  0.4880711E-008  0.1046769E+04  0.7818608E-02  0.9258686E-01
         -2   -1    0    0    0  501 -0.00000000000E+00  0.00000000000E+00  0.13116117435E+04  0.13116117436E+04  0.25500000000E-02 0.  1.
          2   -1    0    0  501    0  0.00000000000E+00 -0.00000000000E+00 -0.12622394107E+04  0.12622394107E+04  0.25500000000E-02 0. -1.
    8880022    1    1    2    0    0 -0.38388288497E+03 -0.96175277007E+03 -0.72367737917E+03  0.12725702583E+04  0.15294330000E+03 0.  0.
    8880022    1    1    2    0    0  0.38388288497E+03  0.96175277007E+03  0.77304971199E+03  0.13012808960E+04  0.15294330000E+03 0.  0.
<mgrwt>
<rscale>  0 0.10467694E+04</rscale>
<asrwt>0</asrwt>
<pdfrwt beam="1">  1        2 0.19419068E+00 0.10467694E+04</pdfrwt>
<pdfrwt beam="2">  1       -2 0.20178642E+00 0.10467694E+04</pdfrwt>
<totfact> 0.22227597E+00</totfact>
</mgrwt>
</event>
<event>
 4    1  0.4880711E-008  0.2562951E+03  0.7818608E-02  0.1109390E+00
          2   -1    0    0  501    0  0.00000000000E+00  0.00000000000E+00  0.18819310496E+03  0.18819310498E+03  0.25500000000E-02 0. -1.
         -2   -1    0    0    0  501 -0.00000000000E+00 -0.00000000000E+00 -0.49696025006E+03  0.49696025006E+03  0.25500000000E-02 0.  1.
    8880022    1    1    2    0    0  0.20180253828E+03 -0.39639228414E+02 -0.34128332208E+03  0.42680380953E+03  0.15294330000E+03 0.  1.
    8880022    1    1    2    0    0 -0.20180253828E+03  0.39639228414E+02  0.32516176977E+02  0.25834954551E+03  0.15294330000E+03 0. -1.
<mgrwt>
<rscale>  0 0.25629511E+03</rscale>
<asrwt>0</asrwt>
<pdfrwt beam="1">  1        2 0.28952786E-01 0.25629511E+03</pdfrwt>
<pdfrwt beam="2">  1       -2 0.76455422E-01 0.25629511E+03</pdfrwt>
<totfact> 0.28865289E+02</totfact>
</mgrwt>
</event>
<event>
 4    1  0.4880711E-008  0.6757432E+03  0.7818608E-02  0.9759638E-01
          2   -1    0    0  501    0  0.00000000000E+00  0.00000000000E+00  0.23412956406E+04  0.23412956406E+04  0.25500000000E-02 0. -1.
         -2   -1    0    0    0  501 -0.00000000000E+00 -0.00000000000E+00 -0.44256271205E+03  0.44256271206E+03  0.25500000000E-02 0.  1.
    8880022    1    1    2    0    0 -0.20962148270E+03  0.62393594534E+03 -0.91616883831E+02  0.68192560908E+03  0.15294330000E+03 0.  0.
    8880022    1    1    2    0    0  0.20962148270E+03 -0.62393594534E+03  0.19903498124E+04  0.21019327436E+04  0.15294330000E+03 0.  0.
<mgrwt>
<rscale>  0 0.67574321E+03</rscale>
<asrwt>0</asrwt>
<pdfrwt beam="1">  1        2 0.36019933E+00 0.67574321E+03</pdfrwt>
<pdfrwt beam="2">  1       -2 0.68086571E-01 0.67574321E+03</pdfrwt>
<totfact> 0.89727362E+00</totfact>
</mgrwt>
</event>
<event>
 4    1  0.4880711E-008  0.5084595E+03  0.7818608E-02  0.1011594E+00
         -2   -1    0    0    0  501 -0.00000000000E+00  0.00000000000E+00  0.45514628183E+03  0.45514628184E+03  0.25500000000E-02 0.  1.
          2   -1    0    0  501    0  0.00000000000E+00 -0.00000000000E+00 -0.95191300096E+03  0.95191300096E+03  0.25500000000E-02 0. -1.
    8880022    1    1    2    0    0  0.71595588583E+02  0.47959724112E+03  0.19839304628E+03  0.54579382172E+03  0.15294330000E+03 0.  0.
    8880022    1    1    2    0    0 -0.71595588583E+02 -0.47959724112E+03 -0.69515976541E+03  0.86126546109E+03  0.15294330000E+03 0.  0.
<mgrwt>
<rscale>  0 0.50845953E+03</rscale>
<asrwt>0</asrwt>
<pdfrwt beam="1">  1        2 0.14644815E+00 0.50845953E+03</pdfrwt>
<pdfrwt beam="2">  1       -2 0.70022505E-01 0.50845953E+03</pdfrwt>
<totfact> 0.52313861E+01</totfact>
</mgrwt>
</event>
<event>
 4    1  0.4880711E-008  0.3121032E+03  0.7818608E-02  0.1079342E+00
          2   -1    0    0  501    0  0.00000000000E+00  0.00000000000E+00  0.12397160705E+04  0.12397160705E+04  0.25500000000E-02 0. -1.
         -2   -1    0    0    0  501 -0.00000000000E+00 -0.00000000000E+00 -0.18862306301E+03  0.18862306303E+03  0.25500000000E-02 0.  1.
    8880022    1    1    2    0    0 -0.30894391187E+02 -0.27030031811E+03 -0.19958607299E+02  0.31274066637E+03  0.15294330000E+03 0. -1.
    8880022    1    1    2    0    0  0.30894391187E+02  0.27030031811E+03  0.10710516147E+04  0.11155984671E+04  0.15294330000E+03 0.  0.
<mgrwt>
<rscale>  0 0.31210315E+03</rscale>
<asrwt>0</asrwt>
<pdfrwt beam="1">  1        2 0.19072555E+00 0.31210315E+03</pdfrwt>
<pdfrwt beam="2">  1       -2 0.29018933E-01 0.31210315E+03</pdfrwt>
<totfact> 0.20669933E+02</totfact>
</mgrwt>
</event>
<event>
 4    1  0.4880711E-008  0.5607098E+03  0.7818608E-02  0.9990450E-01
         -2   -1    0    0    0  501 -0.00000000000E+00  0.00000000000E+00  0.24102657540E+03  0.24102657541E+03  0.25500000000E-02 0.  1.
          2   -1    0    0  501    0  0.00000000000E+00 -0.00000000000E+00 -0.28097416122E+04  0.28097416122E+04  0.25500000000E-02 0. -1.
    8880022    1    1    2    0    0 -0.40259921208E+03 -0.35905113040E+03 -0.16784576519E+03  0.58529282733E+03  0.15294330000E+03 0.  1.
    8880022    1    1    2    0    0  0.40259921208E+03  0.35905113040E+03 -0.24008692716E+04  0.24654753603E+04  0.15294330000E+03 0.  0.
<mgrwt>
<rscale>  0 0.56070981E+03</rscale>
<asrwt>0</asrwt>
<pdfrwt beam="1">  1        2 0.43226792E+00 0.56070981E+03</pdfrwt>
<pdfrwt beam="2">  1       -2 0.37081014E-01 0.56070981E+03</pdfrwt>
<totfact> 0.17103109E+01</totfact>
</mgrwt>
</event>
<event>
 4    1  0.4880711E-008  0.3975772E+03  0.7818608E-02  0.1044622E+00
         -2   -1    0    0    0  501 -0.00000000000E+00  0.00000000000E+00  0.62817297898E+02  0.62817297949E+02  0.25500000000E-02 0.  1.
          2   -1    0    0  501    0  0.00000000000E+00 -0.00000000000E+00 -0.28487732018E+04  0.28487732018E+04  0.25500000000E-02 0. -1.
    8880022    1    1    2    0    0  0.68947261720E+01  0.36691749863E+03 -0.89564784410E+03  0.97992484493E+03  0.15294330000E+03 0.  0.
    8880022    1    1    2    0    0 -0.68947261720E+01 -0.36691749863E+03 -0.18903080598E+04  0.19316656548E+04  0.15294330000E+03 0.  0.
<mgrwt>
<rscale>  0 0.39757721E+03</rscale>
<asrwt>0</asrwt>
<pdfrwt beam="1">  1        2 0.43827270E+00 0.39757721E+03</pdfrwt>
<pdfrwt beam="2">  1       -2 0.96642019E-02 0.39757721E+03</pdfrwt>
<totfact> 0.17361526E+02</totfact>
</mgrwt>
</event>
<event>
 4    1  0.4880711E-008  0.7848190E+03  0.7818608E-02  0.9582255E-01
         -2   -1    0    0    0  501 -0.00000000000E+00  0.00000000000E+00  0.60704635791E+03  0.60704635792E+03  0.25500000000E-02 0.  1.
          2   -1    0    0  501    0  0.00000000000E+00 -0.00000000000E+00 -0.12400848838E+04  0.12400848838E+04  0.25500000000E-02 0. -1.
    8880022    1    1    2    0    0 -0.15630389047E+03  0.75373621050E+03  0.77257996672E+02  0.78861247280E+03  0.15294330000E+03 0.  0.
    8880022    1    1    2    0    0  0.15630389047E+03 -0.75373621050E+03 -0.71029652258E+03  0.10585187689E+04  0.15294330000E+03 0.  0.
<mgrwt>
<rscale>  0 0.78481898E+03</rscale>
<asrwt>0</asrwt>
<pdfrwt beam="1">  1        2 0.19078229E+00 0.78481898E+03</pdfrwt>
<pdfrwt beam="2">  1       -2 0.93391747E-01 0.78481898E+03</pdfrwt>
<totfact> 0.17663609E+01</totfact>
</mgrwt>
</event>
<event>
 4    1  0.4880711E-008  0.6337113E+03  0.7818608E-02  0.9837833E-01
          2   -1    0    0  501    0  0.00000000000E+00  0.00000000000E+00  0.22718695043E+04  0.22718695043E+04  0.25500000000E-02 0. -1.
         -2   -1    0    0    0  501 -0.00000000000E+00 -0.00000000000E+00 -0.20078062743E+03  0.20078062745E+03  0.25500000000E-02 0.  1.
    8880022    1    1    2    0    0  0.60379806690E+03  0.11673146670E+03  0.60797478359E+03  0.87819321986E+03  0.15294330000E+03 0.  0.
    8880022    1    1    2    0    0 -0.60379806690E+03 -0.11673146670E+03  0.14631140933E+04  0.15944569119E+04  0.15294330000E+03 0.  0.
<mgrwt>
<rscale>  0 0.63371129E+03</rscale>
<asrwt>0</asrwt>
<pdfrwt beam="1">  1        2 0.34951842E+00 0.63371129E+03</pdfrwt>
<pdfrwt beam="2">  1       -2 0.30889324E-01 0.63371129E+03</pdfrwt>
<totfact> 0.48056213E+01</totfact>
</mgrwt>
</event>
<event>
 4    1  0.4880711E-008  0.5976116E+03  0.7818608E-02  0.9910374E-01
         -2   -1    0    0    0  501 -0.00000000000E+00  0.00000000000E+00  0.36271740813E+03  0.36271740814E+03  0.25500000000E-02 0.  1.
          2   -1    0    0  501    0  0.00000000000E+00 -0.00000000000E+00 -0.21840083412E+04  0.21840083412E+04  0.25500000000E-02 0. -1.
    8880022    1    1    2    0    0  0.56393926645E+03 -0.12538112556E+03  0.32990680606E+02  0.59852147907E+03  0.15294330000E+03 0.  0.
    8880022    1    1    2    0    0 -0.56393926645E+03  0.12538112556E+03 -0.18542816136E+04  0.19482042702E+04  0.15294330000E+03 0.  0.
<mgrwt>
<rscale>  0 0.59761156E+03</rscale>
<asrwt>0</asrwt>
<pdfrwt beam="1">  1        2 0.33600128E+00 0.59761156E+03</pdfrwt>
<pdfrwt beam="2">  1       -2 0.55802679E-01 0.59761156E+03</pdfrwt>
<totfact> 0.16942082E+01</totfact>
</mgrwt>
</event>
<event>
 4    1  0.4880711E-008  0.6931031E+03  0.7818608E-02  0.9729100E-01
         -2   -1    0    0    0  501 -0.00000000000E+00  0.00000000000E+00  0.31328461050E+03  0.31328461051E+03  0.25500000000E-02 0.  1.
          2   -1    0    0  501    0  0.00000000000E+00 -0.00000000000E+00 -0.22164697944E+04  0.22164697944E+04  0.25500000000E-02 0. -1.
    8880022    1    1    2    0    0 -0.30807261656E+03 -0.60174037329E+03 -0.24941214224E+03  0.73661270938E+03  0.15294330000E+03 0.  0.
    8880022    1    1    2    0    0  0.30807261656E+03  0.60174037329E+03 -0.16537730416E+04  0.17931416955E+04  0.15294330000E+03 0.  0.
<mgrwt>
<rscale>  0 0.69310307E+03</rscale>
<asrwt>0</asrwt>
<pdfrwt beam="1">  1        2 0.34099534E+00 0.69310307E+03</pdfrwt>
<pdfrwt beam="2">  1       -2 0.48197634E-01 0.69310307E+03</pdfrwt>
<totfact> 0.21591969E+01</totfact>
</mgrwt>
</event>
<event>
 4    1  0.4880711E-008  0.2936628E+03  0.7818608E-02  0.1088452E+00
         -2   -1    0    0    0  501 -0.00000000000E+00  0.00000000000E+00  0.51904194426E+03  0.51904194426E+03  0.25500000000E-02 0.  1.
          2   -1    0    0  501    0  0.00000000000E+00 -0.00000000000E+00 -0.40917432449E+03  0.40917432449E+03  0.25500000000E-02 0. -1.
    8880022    1    1    2    0    0 -0.17872682522E+02 -0.25005350229E+03 -0.30274363244E+03  0.42177191322E+03  0.15294330000E+03 0.  0.
    8880022    1    1    2    0    0  0.17872682522E+02  0.25005350229E+03  0.41261125221E+03  0.50644435553E+03  0.15294330000E+03 0.  0.
<mgrwt>
<rscale>  0 0.29366280E+03</rscale>
<asrwt>0</asrwt>
<pdfrwt beam="1">  1        2 0.62949896E-01 0.29366280E+03</pdfrwt>
<pdfrwt beam="2">  1       -2 0.79852606E-01 0.29366280E+03</pdfrwt>
<totfact> 0.11219895E+02</totfact>
</mgrwt>
</event>
<event>
 4    1  0.4880711E-008  0.1918150E+03  0.7818608E-02  0.1156834E+00
         -2   -1    0    0    0  501 -0.00000000000E+00  0.00000000000E+00  0.34062753431E+03  0.34062753432E+03  0.25500000000E-02 0.  1.
          2   -1    0    0  501    0  0.00000000000E+00 -0.00000000000E+00 -0.22549403751E+04  0.22549403751E+04  0.25500000000E-02 0. -1.
    8880022    1    1    2    0    0 -0.85359508077E+02 -0.78199083637E+02 -0.22234759659E+04  0.22317343853E+04  0.15294330000E+03 0.  0.
    8880022    1    1    2    0    0  0.85359508077E+02  0.78199083637E+02  0.30916312517E+03  0.36383352413E+03  0.15294330000E+03 0.  1.
<mgrwt>
<rscale>  0 0.19181500E+03</rscale>
<asrwt>0</asrwt>
<pdfrwt beam="1">  1        2 0.34691389E+00 0.19181500E+03</pdfrwt>
<pdfrwt beam="2">  1       -2 0.52404237E-01 0.19181500E+03</pdfrwt>
<totfact> 0.20112108E+01</totfact>
</mgrwt>
</event>
<event>
 4    1  0.4880711E-008  0.2297103E+03  0.7818608E-02  0.1126844E+00
          2   -1    0    0  501    0  0.00000000000E+00  0.00000000000E+00  0.97843379899E+03  0.97843379899E+03  0.25500000000E-02 0. -1.
         -2   -1    0    0    0  501 -0.00000000000E+00 -0.00000000000E+00 -0.11941805997E+03  0.11941805999E+03  0.25500000000E-02 0.  1.
    8880022    1    1    2    0    0 -0.16230958698E+03 -0.55052511889E+02  0.83600748945E+03  0.86699213176E+03  0.15294330000E+03 0. -1.
    8880022    1    1    2    0    0  0.16230958698E+03  0.55052511889E+02  0.23008249569E+02  0.23085972723E+03  0.15294330000E+03 0.  0.
<mgrwt>
<rscale>  0 0.22971033E+03</rscale>
<asrwt>0</asrwt>
<pdfrwt beam="1">  1        2 0.15052828E+00 0.22971033E+03</pdfrwt>
<pdfrwt beam="2">  1       -2 0.18372008E-01 0.22971033E+03</pdfrwt>
<totfact> 0.66285130E+02</totfact>
</mgrwt>
</event>
<event>
 4    1  0.4880711E-008  0.3712051E+03  0.7818608E-02  0.1054233E+00
         -2   -1    0    0    0  501 -0.00000000000E+00  0.00000000000E+00  0.17910935343E+04  0.17910935343E+04  0.25500000000E-02 0.  1.
          2   -1    0    0  501    0  0.00000000000E+00 -0.00000000000E+00 -0.27526039512E+03  0.27526039513E+03  0.25500000000E-02 0. -1.
    8880022    1    1    2    0    0  0.28322332015E+03  0.18489485551E+03 -0.11907376881E+03  0.38983557060E+03  0.15294330000E+03 0.  0.
    8880022    1    1    2    0    0 -0.28322332015E+03 -0.18489485551E+03  0.16349069080E+04  0.16765183589E+04  0.15294330000E+03 0.  0.
<mgrwt>
<rscale>  0 0.37120508E+03</rscale>
<asrwt>0</asrwt>
<pdfrwt beam="1">  1        2 0.42347751E-01 0.37120508E+03</pdfrwt>
<pdfrwt beam="2">  1       -2 0.27555286E+00 0.37120508E+03</pdfrwt>
<totfact> 0.59723518E+00</totfact>
</mgrwt>
</event>
<event>
 4    1  0.4880711E-008  0.8505224E+03  0.7818608E-02  0.9489636E-01
          2   -1    0    0  501    0  0.00000000000E+00  0.00000000000E+00  0.12372757544E+04  0.12372757544E+04  0.25500000000E-02 0. -1.
         -2   -1    0    0    0  501 -0.00000000000E+00 -0.00000000000E+00 -0.16487783295E+04  0.16487783295E+04  0.25500000000E-02 0.  1.
    8880022    1    1    2    0    0 -0.16664325897E+03  0.81989434781E+03  0.95352738590E+03  0.12777334800E+04  0.15294330000E+03 0.  0.
    8880022    1    1    2    0    0  0.16664325897E+03 -0.81989434781E+03 -0.13650299611E+04  0.16083206039E+04  0.15294330000E+03 0.  0.
<mgrwt>
<rscale>  0 0.85052241E+03</rscale>
<asrwt>0</asrwt>
<pdfrwt beam="1">  1        2 0.19035012E+00 0.85052241E+03</pdfrwt>
<pdfrwt beam="2">  1       -2 0.25365820E+00 0.85052241E+03</pdfrwt>
<totfact> 0.11203085E+00</totfact>
</mgrwt>
</event>
<event>
 4    1  0.4880711E-008  0.1024840E+04  0.7818608E-02  0.9281713E-01
         -2   -1    0    0    0  501 -0.00000000000E+00  0.00000000000E+00  0.88340930525E+03  0.88340930525E+03  0.25500000000E-02 0.  1.
          2   -1    0    0  501    0  0.00000000000E+00 -0.00000000000E+00 -0.13444208453E+04  0.13444208453E+04  0.25500000000E-02 0. -1.
    8880022    1    1    2    0    0  0.10128737383E+04 -0.31494344069E+02  0.14833847559E+03  0.10355197052E+04  0.15294330000E+03 0.  0.
    8880022    1    1    2    0    0 -0.10128737383E+04  0.31494344069E+02 -0.60935001562E+03  0.11923104453E+04  0.15294330000E+03 0.  0.
<mgrwt>
<rscale>  0 0.10248399E+04</rscale>
<asrwt>0</asrwt>
<pdfrwt beam="1">  1        2 0.20683398E+00 0.10248399E+04</pdfrwt>
<pdfrwt beam="2">  1       -2 0.13590912E+00 0.10248399E+04</pdfrwt>
<totfact> 0.59787817E+00</totfact>
</mgrwt>
</event>
<event>
 4    1  0.4880711E-008  0.1168238E+04  0.7818608E-02  0.9141121E-01
          2   -1    0    0  501    0  0.00000000000E+00  0.00000000000E+00  0.24629460855E+04  0.24629460855E+04  0.25500000000E-02 0. -1.
         -2   -1    0    0    0  501 -0.00000000000E+00 -0.00000000000E+00 -0.88789945253E+03  0.88789945254E+03  0.25500000000E-02 0.  1.
    8880022    1    1    2    0    0  0.11580174691E+04  0.19615596239E+02 -0.23970937380E+03  0.11925776567E+04  0.15294330000E+03 0.  0.
    8880022    1    1    2    0    0 -0.11580174691E+04 -0.19615596239E+02  0.18147560067E+04  0.21582678813E+04  0.15294330000E+03 0.  0.
<mgrwt>
<rscale>  0 0.11682384E+04</rscale>
<asrwt>0</asrwt>
<pdfrwt beam="1">  1        2 0.37891478E+00 0.11682384E+04</pdfrwt>
<pdfrwt beam="2">  1       -2 0.13659992E+00 0.11682384E+04</pdfrwt>
<totfact> 0.13753913E+00</totfact>
</mgrwt>
</event>
<event>
 4    1  0.4880711E-008  0.4859479E+03  0.7818608E-02  0.1017513E+00
          2   -1    0    0  501    0  0.00000000000E+00  0.00000000000E+00  0.11637407545E+04  0.11637407545E+04  0.25500000000E-02 0. -1.
         -2   -1    0    0    0  501 -0.00000000000E+00 -0.00000000000E+00 -0.40146742308E+03  0.40146742309E+03  0.25500000000E-02 0.  1.
    8880022    1    1    2    0    0 -0.45292861189E+03 -0.87231539258E+02  0.93150061631E+03  0.10506372924E+04  0.15294330000E+03 0.  0.
    8880022    1    1    2    0    0  0.45292861189E+03  0.87231539258E+02 -0.16922728492E+03  0.51457088519E+03  0.15294330000E+03 0.  1.
<mgrwt>
<rscale>  0 0.48594786E+03</rscale>
<asrwt>0</asrwt>
<pdfrwt beam="1">  1        2 0.17903704E+00 0.48594786E+03</pdfrwt>
<pdfrwt beam="2">  1       -2 0.61764219E-01 0.48594786E+03</pdfrwt>
<totfact> 0.50864866E+01</totfact>
</mgrwt>
</event>
<event>
 4    1  0.4880711E-008  0.6995674E+03  0.7818608E-02  0.9717972E-01
         -2   -1    0    0    0  501 -0.00000000000E+00  0.00000000000E+00  0.16626104938E+03  0.16626104940E+03  0.25500000000E-02 0.  1.
          2   -1    0    0  501    0  0.00000000000E+00 -0.00000000000E+00 -0.36704792606E+04  0.36704792606E+04  0.25500000000E-02 0. -1.
    8880022    1    1    2    0    0  0.68097092991E+03 -0.47764533150E+02 -0.89837457351E+03  0.11386269738E+04  0.15294330000E+03 0.  0.
    8880022    1    1    2    0    0 -0.68097092991E+03  0.47764533150E+02 -0.26058436377E+04  0.26981133363E+04  0.15294330000E+03 0.  0.
<mgrwt>
<rscale>  0 0.69956737E+03</rscale>
<asrwt>0</asrwt>
<pdfrwt beam="1">  1        2 0.56468906E+00 0.69956737E+03</pdfrwt>
<pdfrwt beam="2">  1       -2 0.25578626E-01 0.69956737E+03</pdfrwt>
<totfact> 0.92665927E+00</totfact>
</mgrwt>
</event>
<event>
 4    1  0.4880711E-008  0.6386041E+03  0.7818608E-02  0.9828401E-01
          2   -1    0    0  501    0  0.00000000000E+00  0.00000000000E+00  0.90208175439E+03  0.90208175439E+03  0.25500000000E-02 0. -1.
         -2   -1    0    0    0  501 -0.00000000000E+00 -0.00000000000E+00 -0.85412637071E+03  0.85412637071E+03  0.25500000000E-02 0.  1.
    8880022    1    1    2    0    0  0.52742871794E+03  0.32594856906E+03  0.62642873862E+03  0.89455471591E+03  0.15294330000E+03 0.  0.
    8880022    1    1    2    0    0 -0.52742871794E+03 -0.32594856906E+03 -0.57847335494E+03  0.86165340919E+03  0.15294330000E+03 0.  0.
<mgrwt>
<rscale>  0 0.63860408E+03</rscale>
<asrwt>0</asrwt>
<pdfrwt beam="1">  1        2 0.13878181E+00 0.63860408E+03</pdfrwt>
<pdfrwt beam="2">  1       -2 0.13140406E+00 0.63860408E+03</pdfrwt>
<totfact> 0.12721421E+01</totfact>
</mgrwt>
</event>
<event>
 4    1  0.4880711E-008  0.3061883E+03  0.7818608E-02  0.1082187E+00
          2   -1    0    0  501    0  0.00000000000E+00  0.00000000000E+00  0.14868048611E+04  0.14868048611E+04  0.25500000000E-02 0. -1.
         -2   -1    0    0    0  501 -0.00000000000E+00 -0.00000000000E+00 -0.68047320655E+02  0.68047320703E+02  0.25500000000E-02 0.  1.
    8880022    1    1    2    0    0  0.21504638967E+03 -0.15528906420E+03  0.91994124214E+03  0.96955824228E+03  0.15294330000E+03 0.  0.
    8880022    1    1    2    0    0 -0.21504638967E+03  0.15528906420E+03  0.49881629831E+03  0.58529393953E+03  0.15294330000E+03 0.  0.
<mgrwt>
<rscale>  0 0.30618833E+03</rscale>
<asrwt>0</asrwt>
<pdfrwt beam="1">  1        2 0.22873920E+00 0.30618833E+03</pdfrwt>
<pdfrwt beam="2">  1       -2 0.10468819E-01 0.30618833E+03</pdfrwt>
<totfact> 0.85431010E+02</totfact>
</mgrwt>
</event>
<event>
 4    1  0.4880711E-008  0.2332761E+03  0.7818608E-02  0.1124355E+00
          2   -1    0    0  501    0  0.00000000000E+00  0.00000000000E+00  0.13335313539E+04  0.13335313539E+04  0.25500000000E-02 0. -1.
         -2   -1    0    0    0  501 -0.00000000000E+00 -0.00000000000E+00 -0.23241090042E+03  0.23241090043E+03  0.25500000000E-02 0.  1.
    8880022    1    1    2    0    0  0.15988886333E+03 -0.73902946309E+02 -0.16035757673E+03  0.28307649058E+03  0.15294330000E+03 0.  0.
    8880022    1    1    2    0    0 -0.15988886333E+03  0.73902946309E+02  0.12614780302E+04  0.12828657638E+04  0.15294330000E+03 0.  0.
<mgrwt>
<rscale>  0 0.23327612E+03</rscale>
<asrwt>0</asrwt>
<pdfrwt beam="1">  1        2 0.20515867E+00 0.23327612E+03</pdfrwt>
<pdfrwt beam="2">  1       -2 0.35755523E-01 0.23327612E+03</pdfrwt>
<totfact> 0.12663782E+02</totfact>
</mgrwt>
</event>
<event>
 4    1  0.4880711E-008  0.9937668E+03  0.7818608E-02  0.9315408E-01
          2   -1    0    0  501    0  0.00000000000E+00  0.00000000000E+00  0.99669793302E+03  0.99669793303E+03  0.25500000000E-02 0. -1.
         -2   -1    0    0    0  501 -0.00000000000E+00 -0.00000000000E+00 -0.10965225226E+04  0.10965225226E+04  0.25500000000E-02 0.  1.
    8880022    1    1    2    0    0  0.23228662053E+03 -0.95405649234E+03 -0.37482660494E+03  0.10621052215E+04  0.15294330000E+03 0.  0.
    8880022    1    1    2    0    0 -0.23228662053E+03  0.95405649234E+03  0.27500201537E+03  0.10311152342E+04  0.15294330000E+03 0.  0.
<mgrwt>
<rscale>  0 0.99376683E+03</rscale>
<asrwt>0</asrwt>
<pdfrwt beam="1">  1        2 0.15333814E+00 0.99376683E+03</pdfrwt>
<pdfrwt beam="2">  1       -2 0.16869577E+00 0.99376683E+03</pdfrwt>
<totfact> 0.54664792E+00</totfact>
</mgrwt>
</event>
<event>
 4    1  0.4880711E-008  0.7549614E+03  0.7818608E-02  0.9627599E-01
          2   -1    0    0  501    0  0.00000000000E+00  0.00000000000E+00  0.16284386032E+04  0.16284386032E+04  0.25500000000E-02 0. -1.
         -2   -1    0    0    0  501 -0.00000000000E+00 -0.00000000000E+00 -0.55083432019E+03  0.55083432020E+03  0.25500000000E-02 0.  1.
    8880022    1    1    2    0    0  0.50195509432E+03 -0.54278553111E+03  0.11967346387E+04  0.14149701403E+04  0.15294330000E+03 0.  0.
    8880022    1    1    2    0    0 -0.50195509432E+03  0.54278553111E+03 -0.11913035574E+03  0.76430278304E+03  0.15294330000E+03 0.  0.
<mgrwt>
<rscale>  0 0.75496139E+03</rscale>
<asrwt>0</asrwt>
<pdfrwt beam="1">  1        2 0.25052901E+00 0.75496139E+03</pdfrwt>
<pdfrwt beam="2">  1       -2 0.84743743E-01 0.75496139E+03</pdfrwt>
<totfact> 0.13384682E+01</totfact>
</mgrwt>
</event>
<event>
 4    1  0.4880711E-008  0.5605638E+03  0.7818608E-02  0.9990780E-01
          2   -1    0    0  501    0  0.00000000000E+00  0.00000000000E+00  0.18478972175E+04  0.18478972175E+04  0.25500000000E-02 0. -1.
         -2   -1    0    0    0  501 -0.00000000000E+00 -0.00000000000E+00 -0.27088716351E+03  0.27088716352E+03  0.25500000000E-02 0.  1.
    8880022    1    1    2    0    0  0.32014910200E+03 -0.43398691826E+03  0.14214191108E+03  0.57830447745E+03  0.15294330000E+03 0.  1.
    8880022    1    1    2    0    0 -0.32014910200E+03  0.43398691826E+03  0.14348681429E+04  0.15404799036E+04  0.15294330000E+03 0.  0.
<mgrwt>
<rscale>  0 0.56056377E+03</rscale>
<asrwt>0</asrwt>
<pdfrwt beam="1">  1        2 0.28429187E+00 0.56056377E+03</pdfrwt>
<pdfrwt beam="2">  1       -2 0.41674950E-01 0.56056377E+03</pdfrwt>
<totfact> 0.46692515E+01</totfact>
</mgrwt>
</event>
<event>
 4    1  0.4880711E-008  0.3415400E+03  0.7818608E-02  0.1066142E+00
          2   -1    0    0  501    0  0.00000000000E+00  0.00000000000E+00  0.81320346837E+03  0.81320346838E+03  0.25500000000E-02 0. -1.
         -2   -1    0    0    0  501 -0.00000000000E+00 -0.00000000000E+00 -0.59065460334E+03  0.59065460335E+03  0.25500000000E-02 0.  1.
    8880022    1    1    2    0    0  0.20977122388E+03  0.22193234166E+03  0.72205076984E+03  0.79875333983E+03  0.15294330000E+03 0.  0.
    8880022    1    1    2    0    0 -0.20977122388E+03 -0.22193234166E+03 -0.49950190481E+03  0.60510473190E+03  0.15294330000E+03 0.  0.
<mgrwt>
<rscale>  0 0.34154002E+03</rscale>
<asrwt>0</asrwt>
<pdfrwt beam="1">  1        2 0.12510823E+00 0.34154002E+03</pdfrwt>
<pdfrwt beam="2">  1       -2 0.90869939E-01 0.34154002E+03</pdfrwt>
<totfact> 0.37162792E+01</totfact>
</mgrwt>
</event>
<event>
 4    1  0.4880711E-008  0.6696252E+03  0.7818608E-02  0.9770635E-01
         -2   -1    0    0    0  501 -0.00000000000E+00  0.00000000000E+00  0.17153288887E+03  0.17153288889E+03  0.25500000000E-02 0.  1.
          2   -1    0    0  501    0  0.00000000000E+00 -0.00000000000E+00 -0.26463602910E+04  0.26463602910E+04  0.25500000000E-02 0. -1.
    8880022    1    1    2    0    0 -0.54638340128E+03  0.35562825030E+03 -0.13930630370E+04  0.15456463217E+04  0.15294330000E+03 0.  0.
    8880022    1    1    2    0    0  0.54638340128E+03 -0.35562825030E+03 -0.10817643652E+04  0.12722468583E+04  0.15294330000E+03 0.  0.
<mgrwt>
<rscale>  0 0.66962521E+03</rscale>
<asrwt>0</asrwt>
<pdfrwt beam="1">  1        2 0.40713232E+00 0.66962521E+03</pdfrwt>
<pdfrwt beam="2">  1       -2 0.26389677E-01 0.66962521E+03</pdfrwt>
<totfact> 0.39294823E+01</totfact>
</mgrwt>
</event>
<event>
 4    1  0.4880711E-008  0.2633949E+03  0.7818608E-02  0.1105120E+00
         -2   -1    0    0    0  501 -0.00000000000E+00  0.00000000000E+00  0.11762668809E+03  0.11762668812E+03  0.25500000000E-02 0.  1.
          2   -1    0    0  501    0  0.00000000000E+00 -0.00000000000E+00 -0.10895526481E+04  0.10895526481E+04  0.25500000000E-02 0. -1.
    8880022    1    1    2    0    0 -0.26803923464E+02  0.21275992677E+03 -0.77180035886E+02  0.27446975736E+03  0.15294330000E+03 0.  1.
    8880022    1    1    2    0    0  0.26803923464E+02 -0.21275992677E+03 -0.89474592412E+03  0.93270957886E+03  0.15294330000E+03 0.  0.
<mgrwt>
<rscale>  0 0.26339493E+03</rscale>
<asrwt>0</asrwt>
<pdfrwt beam="1">  1        2 0.16762348E+00 0.26339493E+03</pdfrwt>
<pdfrwt beam="2">  1       -2 0.18096414E-01 0.26339493E+03</pdfrwt>
<totfact> 0.58116952E+02</totfact>
</mgrwt>
</event>
<event>
 4    1  0.4880711E-008  0.3299718E+03  0.7818608E-02  0.1071149E+00
          2   -1    0    0  501    0  0.00000000000E+00  0.00000000000E+00  0.10708678142E+04  0.10708678142E+04  0.25500000000E-02 0. -1.
         -2   -1    0    0    0  501 -0.00000000000E+00 -0.00000000000E+00 -0.11787812025E+03  0.11787812028E+03  0.25500000000E-02 0.  1.
    8880022    1    1    2    0    0  0.13854568030E+03  0.25747784376E+03  0.69685361851E+03  0.77102941851E+03  0.15294330000E+03 0.  0.
    8880022    1    1    2    0    0 -0.13854568030E+03 -0.25747784376E+03  0.25613607543E+03  0.41771651597E+03  0.15294330000E+03 0.  0.
<mgrwt>
<rscale>  0 0.32997181E+03</rscale>
<asrwt>0</asrwt>
<pdfrwt beam="1">  1        2 0.16474889E+00 0.32997181E+03</pdfrwt>
<pdfrwt beam="2">  1       -2 0.18135096E-01 0.32997181E+03</pdfrwt>
<totfact> 0.59098409E+02</totfact>
</mgrwt>
</event>
<event>
 4    1  0.4880711E-008  0.4648489E+03  0.7818608E-02  0.1023384E+00
         -2   -1    0    0    0  501 -0.00000000000E+00  0.00000000000E+00  0.71598572793E+03  0.71598572794E+03  0.25500000000E-02 0.  1.
          2   -1    0    0  501    0  0.00000000000E+00 -0.00000000000E+00 -0.88840481292E+03  0.88840481292E+03  0.25500000000E-02 0. -1.
    8880022    1    1    2    0    0 -0.10912950698E+03  0.42518651249E+03  0.56564015318E+03  0.73214292020E+03  0.15294330000E+03 0.  0.
    8880022    1    1    2    0    0  0.10912950698E+03 -0.42518651249E+03 -0.73805923816E+03  0.87224762066E+03  0.15294330000E+03 0.  0.
<mgrwt>
<rscale>  0 0.46484887E+03</rscale>
<asrwt>0</asrwt>
<pdfrwt beam="1">  1        2 0.13667766E+00 0.46484887E+03</pdfrwt>
<pdfrwt beam="2">  1       -2 0.11015165E+00 0.46484887E+03</pdfrwt>
<totfact> 0.20585571E+01</totfact>
</mgrwt>
</event>
<event>
 4    1  0.4880711E-008  0.1806713E+03  0.7818608E-02  0.1167155E+00
         -2   -1    0    0    0  501 -0.00000000000E+00  0.00000000000E+00  0.12402715111E+03  0.12402715113E+03  0.25500000000E-02 0.  1.
          2   -1    0    0  501    0  0.00000000000E+00 -0.00000000000E+00 -0.27515941846E+03  0.27515941847E+03  0.25500000000E-02 0. -1.
    8880022    1    1    2    0    0  0.95724028968E+02 -0.93467533139E+01 -0.11720301629E+03  0.21535703277E+03  0.15294330000E+03 0.  0.
    8880022    1    1    2    0    0 -0.95724028968E+02  0.93467533139E+01 -0.33929251057E+02  0.18382953683E+03  0.15294330000E+03 0. -1.
<mgrwt>
<rscale>  0 0.18067126E+03</rscale>
<asrwt>0</asrwt>
<pdfrwt beam="1">  1        2 0.42332218E-01 0.18067126E+03</pdfrwt>
<pdfrwt beam="2">  1       -2 0.19081100E-01 0.18067126E+03</pdfrwt>
<totfact> 0.26882604E+03</totfact>
</mgrwt>
</event>
<event>
 4    1  0.4880711E-008  0.4174203E+03  0.7818608E-02  0.1037909E+00
         -2   -1    0    0    0  501 -0.00000000000E+00  0.00000000000E+00  0.10005148867E+03  0.10005148870E+03  0.25500000000E-02 0.  1.
          2   -1    0    0  501    0  0.00000000000E+00 -0.00000000000E+00 -0.32712137472E+04  0.32712137472E+04  0.25500000000E-02 0. -1.
    8880022    1    1    2    0    0  0.34589875100E+03  0.17664110820E+03 -0.27382738013E+04  0.27699066936E+04  0.15294330000E+03 0.  0.
    8880022    1    1    2    0    0 -0.34589875100E+03 -0.17664110820E+03 -0.43288845724E+03  0.60135854237E+03  0.15294330000E+03 0.  1.
<mgrwt>
<rscale>  0 0.41742027E+03</rscale>
<asrwt>0</asrwt>
<pdfrwt beam="1">  1        2 0.50326357E+00 0.41742027E+03</pdfrwt>
<pdfrwt beam="2">  1       -2 0.15392539E-01 0.41742027E+03</pdfrwt>
<totfact> 0.44571344E+01</totfact>
</mgrwt>
</event>
<event>
 4    1  0.4880711E-008  0.3544941E+03  0.7818608E-02  0.1060785E+00
         -2   -1    0    0    0  501 -0.00000000000E+00  0.00000000000E+00  0.46461168056E+03  0.46461168056E+03  0.25500000000E-02 0.  1.
          2   -1    0    0  501    0  0.00000000000E+00 -0.00000000000E+00 -0.19574483988E+04  0.19574483988E+04  0.25500000000E-02 0. -1.
    8880022    1    1    2    0    0 -0.26221353064E+03 -0.18308053645E+03  0.37783400406E+03  0.51809710105E+03  0.15294330000E+03 0.  0.
    8880022    1    1    2    0    0  0.26221353064E+03  0.18308053645E+03 -0.18706707223E+04  0.19039629783E+04  0.15294330000E+03 0.  0.
<mgrwt>
<rscale>  0 0.35449411E+03</rscale>
<asrwt>0</asrwt>
<pdfrwt beam="1">  1        2 0.30114590E+00 0.35449411E+03</pdfrwt>
<pdfrwt beam="2">  1       -2 0.71478721E-01 0.35449411E+03</pdfrwt>
<totfact> 0.14077029E+01</totfact>
</mgrwt>
</event>
<event>
 4    1  0.4880711E-008  0.9498124E+03  0.7818608E-02  0.9365370E-01
          2   -1    0    0  501    0  0.00000000000E+00  0.00000000000E+00  0.27753946647E+04  0.27753946647E+04  0.25500000000E-02 0. -1.
         -2   -1    0    0    0  501 -0.00000000000E+00 -0.00000000000E+00 -0.46392354200E+03  0.46392354201E+03  0.25500000000E-02 0.  1.
    8880022    1    1    2    0    0  0.64429346047E+03 -0.68090962111E+03  0.26958142392E+03  0.98732860410E+03  0.15294330000E+03 0.  0.
    8880022    1    1    2    0    0 -0.64429346047E+03  0.68090962111E+03  0.20418896988E+04  0.22519896026E+04  0.15294330000E+03 0.  0.
<mgrwt>
<rscale>  0 0.94981242E+03</rscale>
<asrwt>0</asrwt>
<pdfrwt beam="1">  1        2 0.42698380E+00 0.94981242E+03</pdfrwt>
<pdfrwt beam="2">  1       -2 0.71372852E-01 0.94981242E+03</pdfrwt>
<totfact> 0.43654798E+00</totfact>
</mgrwt>
</event>
<event>
 4    1  0.4880711E-008  0.5676825E+03  0.7818608E-02  0.9974820E-01
         -2   -1    0    0    0  501 -0.00000000000E+00  0.00000000000E+00  0.16249732085E+03  0.16249732087E+03  0.25500000000E-02 0.  1.
          2   -1    0    0  501    0  0.00000000000E+00 -0.00000000000E+00 -0.35832813502E+04  0.35832813502E+04  0.25500000000E-02 0. -1.
    8880022    1    1    2    0    0 -0.34243983697E+03  0.42615334882E+03 -0.29619292988E+04  0.30158396082E+04  0.15294330000E+03 0.  0.
    8880022    1    1    2    0    0  0.34243983697E+03 -0.42615334882E+03 -0.45885473053E+03  0.72993906280E+03  0.15294330000E+03 0.  0.
<mgrwt>
<rscale>  0 0.56768246E+03</rscale>
<asrwt>0</asrwt>
<pdfrwt beam="1">  1        2 0.55127400E+00 0.56768246E+03</pdfrwt>
<pdfrwt beam="2">  1       -2 0.24999590E-01 0.56768246E+03</pdfrwt>
<totfact> 0.11466307E+01</totfact>
</mgrwt>
</event>
<event>
 4    1  0.4880711E-008  0.5595124E+03  0.7818608E-02  0.9993159E-01
          2   -1    0    0  501    0  0.00000000000E+00  0.00000000000E+00  0.28406085433E+04  0.28406085433E+04  0.25500000000E-02 0. -1.
         -2   -1    0    0    0  501 -0.00000000000E+00 -0.00000000000E+00 -0.35436898267E+03  0.35436898268E+03  0.25500000000E-02 0.  1.
    8880022    1    1    2    0    0  0.38760961661E+03  0.37339155470E+03 -0.82897673948E+02  0.56562014229E+03  0.15294330000E+03 0.  0.
    8880022    1    1    2    0    0 -0.38760961661E+03 -0.37339155470E+03  0.25691372346E+04  0.26293573837E+04  0.15294330000E+03 0.  0.
<mgrwt>
<rscale>  0 0.55951240E+03</rscale>
<asrwt>0</asrwt>
<pdfrwt beam="1">  1        2 0.43701671E+00 0.55951240E+03</pdfrwt>
<pdfrwt beam="2">  1       -2 0.54518304E-01 0.55951240E+03</pdfrwt>
<totfact> 0.76315092E+00</totfact>
</mgrwt>
</event>
<event>
 4    1  0.4880711E-008  0.1855497E+03  0.7818608E-02  0.1162538E+00
          2   -1    0    0  501    0  0.00000000000E+00  0.00000000000E+00  0.15144565458E+04  0.15144565458E+04  0.25500000000E-02 0. -1.
         -2   -1    0    0    0  501 -0.00000000000E+00 -0.00000000000E+00 -0.57893374652E+02  0.57893374708E+02  0.25500000000E-02 0.  1.
    8880022    1    1    2    0    0  0.26133638025E+02  0.10175503852E+03  0.13409552438E+04  0.13537317585E+04  0.15294330000E+03 0. -1.
    8880022    1    1    2    0    0 -0.26133638025E+02 -0.10175503852E+03  0.11560792730E+03  0.21861816203E+03  0.15294330000E+03 0.  0.
<mgrwt>
<rscale>  0 0.18554975E+03</rscale>
<asrwt>0</asrwt>
<pdfrwt beam="1">  1        2 0.23299331E+00 0.18554975E+03</pdfrwt>
<pdfrwt beam="2">  1       -2 0.89066730E-02 0.18554975E+03</pdfrwt>
<totfact> 0.10789182E+03</totfact>
</mgrwt>
</event>
<event>
 4    1  0.4880711E-008  0.2880635E+03  0.7818608E-02  0.1091365E+00
         -2   -1    0    0    0  501 -0.00000000000E+00  0.00000000000E+00  0.11190791389E+03  0.11190791392E+03  0.25500000000E-02 0.  1.
          2   -1    0    0  501    0  0.00000000000E+00 -0.00000000000E+00 -0.13201152315E+04  0.13201152315E+04  0.25500000000E-02 0. -1.
    8880022    1    1    2    0    0 -0.24398778835E+03 -0.76725756077E+01 -0.10781340878E+04  0.11159541539E+04  0.15294330000E+03 0. -1.
    8880022    1    1    2    0    0  0.24398778835E+03  0.76725756077E+01 -0.13007322981E+03  0.31606899153E+03  0.15294330000E+03 0.  1.
<mgrwt>
<rscale>  0 0.28806347E+03</rscale>
<asrwt>0</asrwt>
<pdfrwt beam="1">  1        2 0.20309464E+00 0.28806347E+03</pdfrwt>
<pdfrwt beam="2">  1       -2 0.17216603E-01 0.28806347E+03</pdfrwt>
<totfact> 0.46583737E+02</totfact>
</mgrwt>
</event>
<event>
 4    1  0.4880711E-008  0.6959997E+03  0.7818608E-02  0.9724098E-01
         -2   -1    0    0    0  501 -0.00000000000E+00  0.00000000000E+00  0.27957335738E+03  0.27957335739E+03  0.25500000000E-02 0.  1.
          2   -1    0    0  501    0  0.00000000000E+00 -0.00000000000E+00 -0.17429488877E+04  0.17429488877E+04  0.25500000000E-02 0. -1.
    8880022    1    1    2    0    0 -0.63113503015E+03  0.25038472668E+03 -0.65412600148E+03  0.95514209229E+03  0.15294330000E+03 0.  0.
    8880022    1    1    2    0    0  0.63113503015E+03 -0.25038472668E+03 -0.80924952885E+03  0.10673801528E+04  0.15294330000E+03 0.  0.
<mgrwt>
<rscale>  0 0.69599971E+03</rscale>
<asrwt>0</asrwt>
<pdfrwt beam="1">  1        2 0.26814598E+00 0.69599971E+03</pdfrwt>
<pdfrwt beam="2">  1       -2 0.43011287E-01 0.69599971E+03</pdfrwt>
<totfact> 0.49096391E+01</totfact>
</mgrwt>
</event>
<event>
 4    1  0.4880711E-008  0.5437738E+03  0.7818608E-02  0.1002945E+00
          2   -1    0    0  501    0  0.00000000000E+00  0.00000000000E+00  0.13821038273E+04  0.13821038273E+04  0.25500000000E-02 0. -1.
         -2   -1    0    0    0  501 -0.00000000000E+00 -0.00000000000E+00 -0.63534332733E+03  0.63534332734E+03  0.25500000000E-02 0.  1.
    8880022    1    1    2    0    0  0.34221470379E+03  0.39393825842E+03 -0.44813558784E+03  0.70463849813E+03  0.15294330000E+03 0.  0.
    8880022    1    1    2    0    0 -0.34221470379E+03 -0.39393825842E+03  0.11948960878E+04  0.13128086565E+04  0.15294330000E+03 0.  0.
<mgrwt>
<rscale>  0 0.54377377E+03</rscale>
<asrwt>0</asrwt>
<pdfrwt beam="1">  1        2 0.21263136E+00 0.54377377E+03</pdfrwt>
<pdfrwt beam="2">  1       -2 0.97745128E-01 0.54377377E+03</pdfrwt>
<totfact> 0.13615715E+01</totfact>
</mgrwt>
</event>
<event>
 4    1  0.4880711E-008  0.9342057E+03  0.7818608E-02  0.9383805E-01
         -2   -1    0    0    0  501 -0.00000000000E+00  0.00000000000E+00  0.95960558106E+03  0.95960558107E+03  0.25500000000E-02 0.  1.
          2   -1    0    0  501    0  0.00000000000E+00 -0.00000000000E+00 -0.27172471383E+04  0.27172471383E+04  0.25500000000E-02 0. -1.
    8880022    1    1    2    0    0 -0.80398938059E+03  0.45049943922E+03 -0.23783437829E+04  0.25552415681E+04  0.15294330000E+03 0.  0.
    8880022    1    1    2    0    0  0.80398938059E+03 -0.45049943922E+03  0.62070222560E+03  0.11216111513E+04  0.15294330000E+03 0.  0.
<mgrwt>
<rscale>  0 0.93420572E+03</rscale>
<asrwt>0</asrwt>
<pdfrwt beam="1">  1        2 0.41803802E+00 0.93420572E+03</pdfrwt>
<pdfrwt beam="2">  1       -2 0.14763163E+00 0.93420572E+03</pdfrwt>
<totfact> 0.82796669E-01</totfact>
</mgrwt>
</event>
<event>
 4    1  0.4880711E-008  0.1135057E+04  0.7818608E-02  0.9171681E-01
          2   -1    0    0  501    0  0.00000000000E+00  0.00000000000E+00  0.12861922011E+04  0.12861922011E+04  0.25500000000E-02 0. -1.
         -2   -1    0    0    0  501 -0.00000000000E+00 -0.00000000000E+00 -0.25525630627E+04  0.25525630627E+04  0.25500000000E-02 0.  1.
    8880022    1    1    2    0    0  0.16399086081E+03 -0.11126853676E+04  0.86291819133E+03  0.14258264928E+04  0.15294330000E+03 0.  0.
    8880022    1    1    2    0    0 -0.16399086081E+03  0.11126853676E+04 -0.21292890529E+04  0.24129287709E+04  0.15294330000E+03 0.  0.
<mgrwt>
<rscale>  0 0.11350566E+04</rscale>
<asrwt>0</asrwt>
<pdfrwt beam="1">  1        2 0.19787572E+00 0.11350566E+04</pdfrwt>
<pdfrwt beam="2">  1       -2 0.39270201E+00 0.11350566E+04</pdfrwt>
<totfact> 0.13860394E-01</totfact>
</mgrwt>
</event>
<event>
 4    1  0.4880711E-008  0.2473705E+03  0.7818608E-02  0.1114978E+00
         -2   -1    0    0    0  501 -0.00000000000E+00  0.00000000000E+00  0.21116442410E+03  0.21116442412E+03  0.25500000000E-02 0.  1.
          2   -1    0    0  501    0  0.00000000000E+00 -0.00000000000E+00 -0.77488655206E+03  0.77488655206E+03  0.25500000000E-02 0. -1.
    8880022    1    1    2    0    0  0.14389140009E+03  0.13075082173E+03  0.10823079808E+03  0.27001124249E+03  0.15294330000E+03 0.  0.
    8880022    1    1    2    0    0 -0.14389140009E+03 -0.13075082173E+03 -0.67195292604E+03  0.71603973369E+03  0.15294330000E+03 0.  0.
<mgrwt>
<rscale>  0 0.24737050E+03</rscale>
<asrwt>0</asrwt>
<pdfrwt beam="1">  1        2 0.11921331E+00 0.24737050E+03</pdfrwt>
<pdfrwt beam="2">  1       -2 0.32486835E-01 0.24737050E+03</pdfrwt>
<totfact> 0.32950631E+02</totfact>
</mgrwt>
</event>
<event>
 4    1  0.5303252E-008  0.1278053E+04  0.7818608E-02  0.9047153E-01
         -2   -1    0    0    0  501 -0.00000000000E+00  0.00000000000E+00  0.17876538164E+04  0.17876538164E+04  0.25500000000E-02 0.  1.
          2   -1    0    0  501    0  0.00000000000E+00 -0.00000000000E+00 -0.24800078555E+04  0.24800078555E+04  0.25500000000E-02 0. -1.
    8880022    1    1    2    0    0 -0.10632294268E+04 -0.69251059962E+03  0.13496006471E+04  0.18587203405E+04  0.15294330000E+03 0.  0.
    8880022    1    1    2    0    0  0.10632294268E+04  0.69251059962E+03 -0.20419546862E+04  0.24089413314E+04  0.15294330000E+03 0.  0.
<mgrwt>
<rscale>  0 0.12780530E+04</rscale>
<asrwt>0</asrwt>
<pdfrwt beam="1">  1        2 0.38153967E+00 0.12780530E+04</pdfrwt>
<pdfrwt beam="2">  1       -2 0.27502367E+00 0.12780530E+04</pdfrwt>
<totfact> 0.15613895E-01</totfact>
</mgrwt>
</event>
<event>
 4    1  0.4880711E-008  0.9489974E+03  0.7818608E-02  0.9366323E-01
          2   -1    0    0  501    0  0.00000000000E+00  0.00000000000E+00  0.11937136040E+04  0.11937136041E+04  0.25500000000E-02 0. -1.
         -2   -1    0    0    0  501 -0.00000000000E+00 -0.00000000000E+00 -0.14160020472E+04  0.14160020472E+04  0.25500000000E-02 0.  1.
    8880022    1    1    2    0    0 -0.89806936183E+03  0.26584921995E+03  0.78075049187E+03  0.12288886727E+04  0.15294330000E+03 0.  0.
    8880022    1    1    2    0    0  0.89806936183E+03 -0.26584921995E+03 -0.10030389350E+04  0.13808269785E+04  0.15294330000E+03 0.  0.
<mgrwt>
<rscale>  0 0.94899739E+03</rscale>
<asrwt>0</asrwt>
<pdfrwt beam="1">  1        2 0.18364825E+00 0.94899739E+03</pdfrwt>
<pdfrwt beam="2">  1       -2 0.21784647E+00 0.94899739E+03</pdfrwt>
<totfact> 0.19488644E+00</totfact>
</mgrwt>
</event>
<event>
 4    1  0.4880711E-008  0.5021776E+03  0.7818608E-02  0.1013212E+00
         -2   -1    0    0    0  501 -0.00000000000E+00  0.00000000000E+00  0.11028514074E+03  0.11028514077E+03  0.25500000000E-02 0.  1.
          2   -1    0    0  501    0  0.00000000000E+00 -0.00000000000E+00 -0.32654325201E+04  0.32654325201E+04  0.25500000000E-02 0. -1.
    8880022    1    1    2    0    0 -0.38186721331E+03  0.28804185779E+03 -0.25016572559E+04  0.25515625329E+04  0.15294330000E+03 0.  0.
    8880022    1    1    2    0    0  0.38186721331E+03 -0.28804185779E+03 -0.65349012348E+03  0.82415512796E+03  0.15294330000E+03 0.  0.
<mgrwt>
<rscale>  0 0.50217759E+03</rscale>
<asrwt>0</asrwt>
<pdfrwt beam="1">  1        2 0.50237416E+00 0.50217759E+03</pdfrwt>
<pdfrwt beam="2">  1       -2 0.16966947E-01 0.50217759E+03</pdfrwt>
<totfact> 0.37293608E+01</totfact>
</mgrwt>
</event>
<event>
 4    1  0.4880711E-008  0.8185495E+03  0.7818608E-02  0.9533549E-01
         -2   -1    0    0    0  501 -0.00000000000E+00  0.00000000000E+00  0.19508497328E+04  0.19508497328E+04  0.25500000000E-02 0.  1.
          2   -1    0    0  501    0  0.00000000000E+00 -0.00000000000E+00 -0.45349248573E+03  0.45349248574E+03  0.25500000000E-02 0. -1.
    8880022    1    1    2    0    0 -0.59714615806E+03 -0.53856116926E+03  0.13408636336E+04  0.15709674102E+04  0.15294330000E+03 0.  1.
    8880022    1    1    2    0    0  0.59714615806E+03  0.53856116926E+03  0.15649361355E+03  0.83337480836E+03  0.15294330000E+03 0. -1.
<mgrwt>
<rscale>  0 0.81854952E+03</rscale>
<asrwt>0</asrwt>
<pdfrwt beam="1">  1        2 0.69768077E-01 0.81854952E+03</pdfrwt>
<pdfrwt beam="2">  1       -2 0.30013072E+00 0.81854952E+03</pdfrwt>
<totfact> 0.22544019E+00</totfact>
</mgrwt>
</event>
<event>
 4    1  0.5051057E-008  0.9355010E+03  0.7818608E-02  0.9382260E-01
          2   -1    0    0  501    0  0.00000000000E+00  0.00000000000E+00  0.16104805995E+04  0.16104805995E+04  0.25500000000E-02 0. -1.
         -2   -1    0    0    0  501 -0.00000000000E+00 -0.00000000000E+00 -0.13229668903E+04  0.13229668903E+04  0.25500000000E-02 0.  1.
    8880022    1    1    2    0    0 -0.79451344245E+03  0.46959438007E+03  0.12696465912E+04  0.15770747007E+04  0.15294330000E+03 0.  0.
    8880022    1    1    2    0    0  0.79451344245E+03 -0.46959438007E+03 -0.98213288199E+03  0.13563727891E+04  0.15294330000E+03 0.  0.
<mgrwt>
<rscale>  0 0.93550101E+03</rscale>
<asrwt>0</asrwt>
<pdfrwt beam="1">  1        2 0.24776625E+00 0.93550101E+03</pdfrwt>
<pdfrwt beam="2">  1       -2 0.20353337E+00 0.93550101E+03</pdfrwt>
<totfact> 0.13927745E+00</totfact>
</mgrwt>
</event>
<event>
 4    1  0.4880711E-008  0.1595889E+03  0.7818608E-02  0.1189162E+00
          2   -1    0    0  501    0  0.00000000000E+00  0.00000000000E+00  0.18621176181E+03  0.18621176183E+03  0.25500000000E-02 0. -1.
         -2   -1    0    0    0  501 -0.00000000000E+00 -0.00000000000E+00 -0.28742629773E+03  0.28742629775E+03  0.25500000000E-02 0.  1.
    8880022    1    1    2    0    0 -0.19116798341E+02  0.41370425477E+02  0.12084515614E+03  0.20018034084E+03  0.15294330000E+03 0.  0.
    8880022    1    1    2    0    0  0.19116798341E+02 -0.41370425477E+02 -0.22205969206E+03  0.27345771873E+03  0.15294330000E+03 0.  1.
<mgrwt>
<rscale>  0 0.15958890E+03</rscale>
<asrwt>0</asrwt>
<pdfrwt beam="1">  1        2 0.28647963E-01 0.15958890E+03</pdfrwt>
<pdfrwt beam="2">  1       -2 0.44219430E-01 0.15958890E+03</pdfrwt>
<totfact> 0.89743159E+02</totfact>
</mgrwt>
</event>
<event>
 4    1  0.4880711E-008  0.3969802E+03  0.7818608E-02  0.1044830E+00
          2   -1    0    0  501    0  0.00000000000E+00  0.00000000000E+00  0.43168744385E+03  0.43168744386E+03  0.25500000000E-02 0. -1.
         -2   -1    0    0    0  501 -0.00000000000E+00 -0.00000000000E+00 -0.47981135535E+03  0.47981135536E+03  0.25500000000E-02 0.  1.
    8880022    1    1    2    0    0  0.50774778166E+02 -0.36279959947E+03 -0.24693797705E+03  0.46751646495E+03  0.15294330000E+03 0.  0.
    8880022    1    1    2    0    0 -0.50774778166E+02  0.36279959947E+03  0.19881406555E+03  0.44398233427E+03  0.15294330000E+03 0.  0.
<mgrwt>
<rscale>  0 0.39698020E+03</rscale>
<asrwt>0</asrwt>
<pdfrwt beam="1">  1        2 0.66413453E-01 0.39698020E+03</pdfrwt>
<pdfrwt beam="2">  1       -2 0.73817131E-01 0.39698020E+03</pdfrwt>
<totfact> 0.12451963E+02</totfact>
</mgrwt>
</event>
<event>
 4    1  0.4880711E-008  0.9620679E+03  0.7818608E-02  0.9351155E-01
          2   -1    0    0  501    0  0.00000000000E+00  0.00000000000E+00  0.15968022671E+04  0.15968022671E+04  0.25500000000E-02 0. -1.
         -2   -1    0    0    0  501 -0.00000000000E+00 -0.00000000000E+00 -0.87732611556E+03  0.87732611556E+03  0.25500000000E-02 0.  1.
    8880022    1    1    2    0    0 -0.93667714583E+03  0.15754014800E+03 -0.36085335964E+03  0.10275163132E+04  0.15294330000E+03 0.  0.
    8880022    1    1    2    0    0  0.93667714583E+03 -0.15754014800E+03  0.10803295112E+04  0.14466120695E+04  0.15294330000E+03 0.  0.
<mgrwt>
<rscale>  0 0.96206789E+03</rscale>
<asrwt>0</asrwt>
<pdfrwt beam="1">  1        2 0.24566189E+00 0.96206789E+03</pdfrwt>
<pdfrwt beam="2">  1       -2 0.13497325E+00 0.96206789E+03</pdfrwt>
<totfact> 0.44128190E+00</totfact>
</mgrwt>
</event>
<event>
 4    1  0.4880711E-008  0.1924590E+04  0.7818608E-02  0.8642712E-01
         -2   -1    0    0    0  501 -0.00000000000E+00  0.00000000000E+00  0.19561596943E+04  0.19561596943E+04  0.25500000000E-02 0.  1.
          2   -1    0    0  501    0  0.00000000000E+00 -0.00000000000E+00 -0.22552044428E+04  0.22552044428E+04  0.25500000000E-02 0. -1.
    8880022    1    1    2    0    0  0.16623646927E+04 -0.95770518507E+03  0.69373217904E+03  0.20458034075E+04  0.15294330000E+03 0.  0.
    8880022    1    1    2    0    0 -0.16623646927E+04  0.95770518507E+03 -0.99277692749E+03  0.21655607296E+04  0.15294330000E+03 0.  0.
<mgrwt>
<rscale>  0 0.19245902E+04</rscale>
<asrwt>0</asrwt>
<pdfrwt beam="1">  1        2 0.34695453E+00 0.19245902E+04</pdfrwt>
<pdfrwt beam="2">  1       -2 0.30094765E+00 0.19245902E+04</pdfrwt>
<totfact> 0.13487038E-01</totfact>
</mgrwt>
</event>
<event>
 4    1  0.4880711E-008  0.3612705E+03  0.7818608E-02  0.1058082E+00
         -2   -1    0    0    0  501 -0.00000000000E+00  0.00000000000E+00  0.47278409273E+03  0.47278409274E+03  0.25500000000E-02 0.  1.
          2   -1    0    0  501    0  0.00000000000E+00 -0.00000000000E+00 -0.66151718784E+03  0.66151718784E+03  0.25500000000E-02 0. -1.
    8880022    1    1    2    0    0 -0.22223532999E+03 -0.24028360828E+03 -0.52729524499E+03  0.63918438867E+03  0.15294330000E+03 0. -1.
    8880022    1    1    2    0    0  0.22223532999E+03  0.24028360828E+03  0.33856214989E+03  0.49511689191E+03  0.15294330000E+03 0.  0.
<mgrwt>
<rscale>  0 0.36127055E+03</rscale>
<asrwt>0</asrwt>
<pdfrwt beam="1">  1        2 0.10177188E+00 0.36127055E+03</pdfrwt>
<pdfrwt beam="2">  1       -2 0.72736014E-01 0.36127055E+03</pdfrwt>
<totfact> 0.78818595E+01</totfact>
</mgrwt>
</event>
<event>
 4    1  0.4880711E-008  0.5882064E+03  0.7818608E-02  0.9930181E-01
          2   -1    0    0  501    0  0.00000000000E+00  0.00000000000E+00  0.49628916375E+03  0.49628916375E+03  0.25500000000E-02 0. -1.
         -2   -1    0    0    0  501 -0.00000000000E+00 -0.00000000000E+00 -0.11267947999E+04  0.11267947999E+04  0.25500000000E-02 0.  1.
    8880022    1    1    2    0    0  0.49353129908E+03 -0.28110856807E+03 -0.81637605671E+03  0.10062090683E+04  0.15294330000E+03 0.  0.
    8880022    1    1    2    0    0 -0.49353129908E+03  0.28110856807E+03  0.18587042057E+03  0.61687489531E+03  0.15294330000E+03 0.  0.
<mgrwt>
<rscale>  0 0.58820645E+03</rscale>
<asrwt>0</asrwt>
<pdfrwt beam="1">  1        2 0.76352179E-01 0.58820645E+03</pdfrwt>
<pdfrwt beam="2">  1       -2 0.17335305E+00 0.58820645E+03</pdfrwt>
<totfact> 0.12962813E+01</totfact>
</mgrwt>
</event>
<event>
 4    1  0.4880711E-008  0.3416859E+03  0.7818608E-02  0.1066080E+00
         -2   -1    0    0    0  501 -0.00000000000E+00  0.00000000000E+00  0.14489647718E+03  0.14489647721E+03  0.25500000000E-02 0.  1.
          2   -1    0    0  501    0  0.00000000000E+00 -0.00000000000E+00 -0.15993675291E+04  0.15993675291E+04  0.25500000000E-02 0. -1.
    8880022    1    1    2    0    0  0.10668634768E+03 -0.28631389067E+03 -0.11288572949E+03  0.35985061026E+03  0.15294330000E+03 0.  0.
    8880022    1    1    2    0    0 -0.10668634768E+03  0.28631389067E+03 -0.13415853224E+04  0.13844133960E+04  0.15294330000E+03 0.  0.
<mgrwt>
<rscale>  0 0.34168593E+03</rscale>
<asrwt>0</asrwt>
<pdfrwt beam="1">  1        2 0.24605653E+00 0.34168593E+03</pdfrwt>
<pdfrwt beam="2">  1       -2 0.22291767E-01 0.34168593E+03</pdfrwt>
<totfact> 0.20910008E+02</totfact>
</mgrwt>
</event>
<event>
 4    1  0.4880711E-008  0.8071432E+03  0.7818608E-02  0.9549735E-01
          2   -1    0    0  501    0  0.00000000000E+00  0.00000000000E+00  0.34843338612E+03  0.34843338613E+03  0.25500000000E-02 0. -1.
         -2   -1    0    0    0  501 -0.00000000000E+00 -0.00000000000E+00 -0.25332727980E+04  0.25332727980E+04  0.25500000000E-02 0.  1.
    8880022    1    1    2    0    0  0.75695314223E+03 -0.23475595768E+03 -0.35500855334E+03  0.88176592425E+03  0.15294330000E+03 0.  0.
    8880022    1    1    2    0    0 -0.75695314223E+03  0.23475595768E+03 -0.18298308585E+04  0.19999402598E+04  0.15294330000E+03 0.  0.
<mgrwt>
<rscale>  0 0.80714315E+03</rscale>
<asrwt>0</asrwt>
<pdfrwt beam="1">  1        2 0.53605138E-01 0.80714315E+03</pdfrwt>
<pdfrwt beam="2">  1       -2 0.38973427E+00 0.80714315E+03</pdfrwt>
<totfact> 0.84488317E-01</totfact>
</mgrwt>
</event>
<event>
 4    1  0.4880711E-008  0.6664121E+03  0.7818608E-02  0.9776461E-01
         -2   -1    0    0    0  501 -0.00000000000E+00  0.00000000000E+00  0.10029855540E+04  0.10029855540E+04  0.25500000000E-02 0.  1.
          2   -1    0    0  501    0  0.00000000000E+00 -0.00000000000E+00 -0.72411849092E+03  0.72411849092E+03  0.25500000000E-02 0. -1.
    8880022    1    1    2    0    0 -0.63778531449E+03  0.11808200361E+03  0.67769813242E+03  0.95046298121E+03  0.15294330000E+03 0.  0.
    8880022    1    1    2    0    0  0.63778531449E+03 -0.11808200361E+03 -0.39883106934E+03  0.77664106371E+03  0.15294330000E+03 0.  0.
<mgrwt>
<rscale>  0 0.66641212E+03</rscale>
<asrwt>0</asrwt>
<pdfrwt beam="1">  1        2 0.11140284E+00 0.66641212E+03</pdfrwt>
<pdfrwt beam="2">  1       -2 0.15430547E+00 0.66641212E+03</pdfrwt>
<totfact> 0.11181871E+01</totfact>
</mgrwt>
</event>
<event>
 4    1  0.4880711E-008  0.5751753E+03  0.7818608E-02  0.9958291E-01
         -2   -1    0    0    0  501 -0.00000000000E+00  0.00000000000E+00  0.66291226329E+03  0.66291226330E+03  0.25500000000E-02 0.  1.
          2   -1    0    0  501    0  0.00000000000E+00 -0.00000000000E+00 -0.23162106644E+04  0.23162106644E+04  0.25500000000E-02 0. -1.
    8880022    1    1    2    0    0  0.22483711805E+03 -0.50683651510E+03 -0.21460174075E+04  0.22217599666E+04  0.15294330000E+03 0.  0.
    8880022    1    1    2    0    0 -0.22483711805E+03  0.50683651510E+03  0.49271900637E+03  0.75736296116E+03  0.15294330000E+03 0.  0.
<mgrwt>
<rscale>  0 0.57517531E+03</rscale>
<asrwt>0</asrwt>
<pdfrwt beam="1">  1        2 0.35634010E+00 0.57517531E+03</pdfrwt>
<pdfrwt beam="2">  1       -2 0.10198650E+00 0.57517531E+03</pdfrwt>
<totfact> 0.37897808E+00</totfact>
</mgrwt>
</event>
<event>
 4    1  0.4880711E-008  0.5540990E+03  0.7818608E-02  0.1000550E+00
         -2   -1    0    0    0  501 -0.00000000000E+00  0.00000000000E+00  0.20177638950E+03  0.20177638952E+03  0.25500000000E-02 0.  1.
          2   -1    0    0  501    0  0.00000000000E+00 -0.00000000000E+00 -0.17454901785E+04  0.17454901785E+04  0.25500000000E-02 0. -1.
    8880022    1    1    2    0    0  0.48342617005E+03  0.22345725036E+03 -0.11205482927E+04  0.12500616520E+04  0.15294330000E+03 0.  0.
    8880022    1    1    2    0    0 -0.48342617005E+03 -0.22345725036E+03 -0.42316549636E+03  0.69720491604E+03  0.15294330000E+03 0.  0.
<mgrwt>
<rscale>  0 0.55409896E+03</rscale>
<asrwt>0</asrwt>
<pdfrwt beam="1">  1        2 0.26853694E+00 0.55409896E+03</pdfrwt>
<pdfrwt beam="2">  1       -2 0.31042523E-01 0.55409896E+03</pdfrwt>
<totfact> 0.93037261E+01</totfact>
</mgrwt>
</event>
<event>
 4    1  0.4880711E-008  0.4411859E+03  0.7818608E-02  0.1030384E+00
          2   -1    0    0  501    0  0.00000000000E+00  0.00000000000E+00  0.14851896528E+04  0.14851896528E+04  0.25500000000E-02 0. -1.
         -2   -1    0    0    0  501 -0.00000000000E+00 -0.00000000000E+00 -0.18605187044E+03  0.18605187046E+03  0.25500000000E-02 0.  1.
    8880022    1    1    2    0    0 -0.19053549816E+03 -0.36735480720E+03  0.11038785904E+04  0.11887779127E+04  0.15294330000E+03 0. -1.
    8880022    1    1    2    0    0  0.19053549816E+03  0.36735480720E+03  0.19525919196E+03  0.48246361054E+03  0.15294330000E+03 0.  0.
<mgrwt>
<rscale>  0 0.44118588E+03</rscale>
<asrwt>0</asrwt>
<pdfrwt beam="1">  1        2 0.22849071E+00 0.44118588E+03</pdfrwt>
<pdfrwt beam="2">  1       -2 0.28623365E-01 0.44118588E+03</pdfrwt>
<totfact> 0.15191750E+02</totfact>
</mgrwt>
</event>
<event>
 4    1  0.4880711E-008  0.7060715E+03  0.7818608E-02  0.9706905E-01
         -2   -1    0    0    0  501 -0.00000000000E+00  0.00000000000E+00  0.27264964759E+03  0.27264964760E+03  0.25500000000E-02 0.  1.
          2   -1    0    0  501    0  0.00000000000E+00 -0.00000000000E+00 -0.39769091972E+04  0.39769091972E+04  0.25500000000E-02 0. -1.
    8880022    1    1    2    0    0  0.66018702464E+03  0.19823835464E+03 -0.29041909087E+03  0.76346594823E+03  0.15294330000E+03 0.  0.
    8880022    1    1    2    0    0 -0.66018702464E+03 -0.19823835464E+03 -0.34138404587E+04  0.34860928965E+04  0.15294330000E+03 0.  0.
<mgrwt>
<rscale>  0 0.70607153E+03</rscale>
<asrwt>0</asrwt>
<pdfrwt beam="1">  1        2 0.61183214E+00 0.70607153E+03</pdfrwt>
<pdfrwt beam="2">  1       -2 0.41946102E-01 0.70607153E+03</pdfrwt>
<totfact> 0.21545446E+00</totfact>
</mgrwt>
</event>
<event>
 4    1  0.4880711E-008  0.4347763E+03  0.7818608E-02  0.1032362E+00
         -2   -1    0    0    0  501 -0.00000000000E+00  0.00000000000E+00  0.56763200445E+03  0.56763200445E+03  0.25500000000E-02 0.  1.
          2   -1    0    0  501    0  0.00000000000E+00 -0.00000000000E+00 -0.11375185928E+04  0.11375185928E+04  0.25500000000E-02 0. -1.
    8880022    1    1    2    0    0 -0.21934168543E+03  0.34282362234E+03 -0.10019401544E+04  0.10922062704E+04  0.15294330000E+03 0.  0.
    8880022    1    1    2    0    0  0.21934168543E+03 -0.34282362234E+03  0.43205356601E+03  0.61294432693E+03  0.15294330000E+03 0.  0.
<mgrwt>
<rscale>  0 0.43477634E+03</rscale>
<asrwt>0</asrwt>
<pdfrwt beam="1">  1        2 0.17500286E+00 0.43477634E+03</pdfrwt>
<pdfrwt beam="2">  1       -2 0.87328001E-01 0.43477634E+03</pdfrwt>
<totfact> 0.24888502E+01</totfact>
</mgrwt>
</event>
<event>
 4    1  0.4880711E-008  0.5243012E+03  0.7818608E-02  0.1007624E+00
         -2   -1    0    0    0  501 -0.00000000000E+00  0.00000000000E+00  0.71396278369E+03  0.71396278369E+03  0.25500000000E-02 0.  1.
          2   -1    0    0  501    0  0.00000000000E+00 -0.00000000000E+00 -0.10008226635E+04  0.10008226635E+04  0.25500000000E-02 0. -1.
    8880022    1    1    2    0    0 -0.49657882131E+03  0.70068056825E+02 -0.81597461705E+03  0.96990014283E+03  0.15294330000E+03 0.  0.
    8880022    1    1    2    0    0  0.49657882131E+03 -0.70068056825E+02  0.52911473729E+03  0.74488530432E+03  0.15294330000E+03 0.  0.
<mgrwt>
<rscale>  0 0.52430116E+03</rscale>
<asrwt>0</asrwt>
<pdfrwt beam="1">  1        2 0.15397272E+00 0.52430116E+03</pdfrwt>
<pdfrwt beam="2">  1       -2 0.10984043E+00 0.52430116E+03</pdfrwt>
<totfact> 0.17363375E+01</totfact>
</mgrwt>
</event>
<event>
 4    1  0.4880711E-008  0.5248095E+03  0.7818608E-02  0.1007499E+00
          2   -1    0    0  501    0  0.00000000000E+00  0.00000000000E+00  0.14791669677E+04  0.14791669677E+04  0.25500000000E-02 0. -1.
         -2   -1    0    0    0  501 -0.00000000000E+00 -0.00000000000E+00 -0.20363909887E+03  0.20363909889E+03  0.25500000000E-02 0.  1.
    8880022    1    1    2    0    0 -0.40054245528E+02 -0.50042885464E+03  0.88397105913E+03  0.10280223089E+04  0.15294330000E+03 0. -1.
    8880022    1    1    2    0    0  0.40054245528E+02  0.50042885464E+03  0.39155680969E+03  0.65478375771E+03  0.15294330000E+03 0.  1.
<mgrwt>
<rscale>  0 0.52480952E+03</rscale>
<asrwt>0</asrwt>
<pdfrwt beam="1">  1        2 0.22756415E+00 0.52480952E+03</pdfrwt>
<pdfrwt beam="2">  1       -2 0.31329092E-01 0.52480952E+03</pdfrwt>
<totfact> 0.12822897E+02</totfact>
</mgrwt>
</event>
<event>
 4    1  0.4880711E-008  0.5877896E+03  0.7818608E-02  0.9931068E-01
         -2   -1    0    0    0  501 -0.00000000000E+00  0.00000000000E+00  0.60342063551E+03  0.60342063551E+03  0.25500000000E-02 0.  1.
          2   -1    0    0  501    0  0.00000000000E+00 -0.00000000000E+00 -0.19404456288E+04  0.19404456288E+04  0.25500000000E-02 0. -1.
    8880022    1    1    2    0    0 -0.53777055717E+03 -0.18140500653E+03  0.39940545402E+03  0.71064851950E+03  0.15294330000E+03 0.  0.
    8880022    1    1    2    0    0  0.53777055717E+03  0.18140500653E+03 -0.17364304474E+04  0.18332177449E+04  0.15294330000E+03 0.  0.
<mgrwt>
<rscale>  0 0.58778959E+03</rscale>
<asrwt>0</asrwt>
<pdfrwt beam="1">  1        2 0.29853009E+00 0.58778959E+03</pdfrwt>
<pdfrwt beam="2">  1       -2 0.92833945E-01 0.58778959E+03</pdfrwt>
<totfact> 0.75480956E+00</totfact>
</mgrwt>
</event>
<event>
 4    1  0.4880711E-008  0.9342389E+03  0.7818608E-02  0.9383765E-01
         -2   -1    0    0    0  501 -0.00000000000E+00  0.00000000000E+00  0.52591283747E+03  0.52591283748E+03  0.25500000000E-02 0.  1.
          2   -1    0    0  501    0  0.00000000000E+00 -0.00000000000E+00 -0.20363848404E+04  0.20363848404E+04  0.25500000000E-02 0. -1.
    8880022    1    1    2    0    0 -0.78963911631E+03  0.47526921581E+03 -0.13063217033E+04  0.16060133272E+04  0.15294330000E+03 0.  0.
    8880022    1    1    2    0    0  0.78963911631E+03 -0.47526921581E+03 -0.20415029958E+03  0.95628435067E+03  0.15294330000E+03 0.  0.
<mgrwt>
<rscale>  0 0.93423895E+03</rscale>
<asrwt>0</asrwt>
<pdfrwt beam="1">  1        2 0.31328997E+00 0.93423895E+03</pdfrwt>
<pdfrwt beam="2">  1       -2 0.80909668E-01 0.93423895E+03</pdfrwt>
<totfact> 0.86822904E+00</totfact>
</mgrwt>
</event>
<event>
 4    1  0.4880711E-008  0.5492901E+03  0.7818608E-02  0.1001658E+00
         -2   -1    0    0    0  501 -0.00000000000E+00  0.00000000000E+00  0.15830635408E+03  0.15830635410E+03  0.25500000000E-02 0.  1.
          2   -1    0    0  501    0  0.00000000000E+00 -0.00000000000E+00 -0.23359251407E+04  0.23359251407E+04  0.25500000000E-02 0. -1.
    8880022    1    1    2    0    0 -0.11736705536E+03 -0.51434708424E+03 -0.55373644751E+03  0.77996388062E+03  0.15294330000E+03 0.  0.
    8880022    1    1    2    0    0  0.11736705536E+03  0.51434708424E+03 -0.16238823391E+04  0.17142676142E+04  0.15294330000E+03 0.  0.
<mgrwt>
<rscale>  0 0.54929009E+03</rscale>
<asrwt>0</asrwt>
<pdfrwt beam="1">  1        2 0.35937308E+00 0.54929009E+03</pdfrwt>
<pdfrwt beam="2">  1       -2 0.24354825E-01 0.54929009E+03</pdfrwt>
<totfact> 0.69261322E+01</totfact>
</mgrwt>
</event>
<event>
 4    1  0.4880711E-008  0.6927083E+03  0.7818608E-02  0.9729784E-01
          2   -1    0    0  501    0  0.00000000000E+00  0.00000000000E+00  0.54424078570E+03  0.54424078570E+03  0.25500000000E-02 0. -1.
         -2   -1    0    0    0  501 -0.00000000000E+00 -0.00000000000E+00 -0.18778246833E+04  0.18778246834E+04  0.25500000000E-02 0.  1.
    8880022    1    1    2    0    0 -0.17520778703E+03 -0.65249930416E+03  0.21525185420E+03  0.72538136475E+03  0.15294330000E+03 0.  0.
    8880022    1    1    2    0    0  0.17520778703E+03  0.65249930416E+03 -0.15488357519E+04  0.16966841043E+04  0.15294330000E+03 0.  0.
<mgrwt>
<rscale>  0 0.69270828E+03</rscale>
<asrwt>0</asrwt>
<pdfrwt beam="1">  1        2 0.83729353E-01 0.69270828E+03</pdfrwt>
<pdfrwt beam="2">  1       -2 0.28889610E+00 0.69270828E+03</pdfrwt>
<totfact> 0.21724172E+00</totfact>
</mgrwt>
</event>
<event>
 4    1  0.4880711E-008  0.7048246E+03  0.7818608E-02  0.9709017E-01
         -2   -1    0    0    0  501 -0.00000000000E+00  0.00000000000E+00  0.78689573016E+03  0.78689573017E+03  0.25500000000E-02 0.  1.
          2   -1    0    0  501    0  0.00000000000E+00 -0.00000000000E+00 -0.15032302049E+04  0.15032302049E+04  0.25500000000E-02 0. -1.
    8880022    1    1    2    0    0 -0.34680136224E+03  0.59423469173E+03  0.51390845640E+03  0.87228413277E+03  0.15294330000E+03 0.  0.
    8880022    1    1    2    0    0  0.34680136224E+03 -0.59423469173E+03 -0.12302429311E+04  0.14178418023E+04  0.15294330000E+03 0.  0.
<mgrwt>
<rscale>  0 0.70482459E+03</rscale>
<asrwt>0</asrwt>
<pdfrwt beam="1">  1        2 0.23126618E+00 0.70482459E+03</pdfrwt>
<pdfrwt beam="2">  1       -2 0.12106088E+00 0.70482459E+03</pdfrwt>
<totfact> 0.67773122E+00</totfact>
</mgrwt>
</event>
<event>
 4    1  0.4880711E-008  0.3137435E+03  0.7818608E-02  0.1078565E+00
          2   -1    0    0  501    0  0.00000000000E+00  0.00000000000E+00  0.85840948277E+03  0.85840948278E+03  0.25500000000E-02 0. -1.
         -2   -1    0    0    0  501 -0.00000000000E+00 -0.00000000000E+00 -0.69104643953E+03  0.69104643953E+03  0.25500000000E-02 0.  1.
    8880022    1    1    2    0    0  0.18767504438E+03 -0.19955309065E+03 -0.62385391932E+03  0.69830417723E+03  0.15294330000E+03 0.  0.
    8880022    1    1    2    0    0 -0.18767504438E+03  0.19955309065E+03  0.79121696257E+03  0.85115174508E+03  0.15294330000E+03 0.  0.
<mgrwt>
<rscale>  0 0.31374354E+03</rscale>
<asrwt>0</asrwt>
<pdfrwt beam="1">  1        2 0.13206300E+00 0.31374354E+03</pdfrwt>
<pdfrwt beam="2">  1       -2 0.10631484E+00 0.31374354E+03</pdfrwt>
<totfact> 0.24158165E+01</totfact>
</mgrwt>
</event>
<event>
 4    1  0.4880711E-008  0.1012850E+04  0.7818608E-02  0.9294562E-01
         -2   -1    0    0    0  501 -0.00000000000E+00  0.00000000000E+00  0.93639724183E+03  0.93639724183E+03  0.25500000000E-02 0.  1.
          2   -1    0    0  501    0  0.00000000000E+00 -0.00000000000E+00 -0.18926090648E+04  0.18926090648E+04  0.25500000000E-02 0. -1.
    8880022    1    1    2    0    0  0.92934051074E+03 -0.37255883170E+03  0.43984618342E+03  0.11042328496E+04  0.15294330000E+03 0.  0.
    8880022    1    1    2    0    0 -0.92934051074E+03  0.37255883170E+03 -0.13960580064E+04  0.17247734570E+04  0.15294330000E+03 0.  0.
<mgrwt>
<rscale>  0 0.10128502E+04</rscale>
<asrwt>0</asrwt>
<pdfrwt beam="1">  1        2 0.29117062E+00 0.10128502E+04</pdfrwt>
<pdfrwt beam="2">  1       -2 0.14406111E+00 0.10128502E+04</pdfrwt>
<totfact> 0.25419266E+00</totfact>
</mgrwt>
</event>
<event>
 4    1  0.4880711E-008  0.3821047E+03  0.7818608E-02  0.1050159E+00
          2   -1    0    0  501    0  0.00000000000E+00  0.00000000000E+00  0.11846118904E+04  0.11846118904E+04  0.25500000000E-02 0. -1.
         -2   -1    0    0    0  501 -0.00000000000E+00 -0.00000000000E+00 -0.18653671974E+03  0.18653671976E+03  0.25500000000E-02 0.  1.
    8880022    1    1    2    0    0  0.33610518753E+03 -0.98212122795E+02  0.89836308888E+03  0.97624802720E+03  0.15294330000E+03 0.  0.
    8880022    1    1    2    0    0 -0.33610518753E+03  0.98212122795E+02  0.99712081770E+02  0.39490058295E+03  0.15294330000E+03 0.  0.
<mgrwt>
<rscale>  0 0.38210466E+03</rscale>
<asrwt>0</asrwt>
<pdfrwt beam="1">  1        2 0.18224799E+00 0.38210466E+03</pdfrwt>
<pdfrwt beam="2">  1       -2 0.28697956E-01 0.38210466E+03</pdfrwt>
<totfact> 0.22470371E+02</totfact>
</mgrwt>
</event>
<event>
 4    1  0.4880711E-008  0.3523840E+03  0.7818608E-02  0.1061641E+00
         -2   -1    0    0    0  501 -0.00000000000E+00  0.00000000000E+00  0.69965825566E+03  0.69965825566E+03  0.25500000000E-02 0.  1.
          2   -1    0    0  501    0  0.00000000000E+00 -0.00000000000E+00 -0.16707977612E+04  0.16707977612E+04  0.25500000000E-02 0. -1.
    8880022    1    1    2    0    0 -0.13084275757E+03 -0.28924560687E+03 -0.16060810889E+04  0.16442843323E+04  0.15294330000E+03 0.  0.
    8880022    1    1    2    0    0  0.13084275757E+03  0.28924560687E+03  0.63494158331E+03  0.72617168462E+03  0.15294330000E+03 0.  1.
<mgrwt>
<rscale>  0 0.35238403E+03</rscale>
<asrwt>0</asrwt>
<pdfrwt beam="1">  1        2 0.25704581E+00 0.35238403E+03</pdfrwt>
<pdfrwt beam="2">  1       -2 0.10763973E+00 0.35238403E+03</pdfrwt>
<totfact> 0.78933941E+00</totfact>
</mgrwt>
</event>
<event>
 4    1  0.4880711E-008  0.5152138E+03  0.7818608E-02  0.1009882E+00
         -2   -1    0    0    0  501 -0.00000000000E+00  0.00000000000E+00  0.54477000691E+03  0.54477000692E+03  0.25500000000E-02 0.  1.
          2   -1    0    0  501    0  0.00000000000E+00 -0.00000000000E+00 -0.50782817855E+03  0.50782817856E+03  0.25500000000E-02 0. -1.
    8880022    1    1    2    0    0  0.40052189024E+03  0.28571981747E+03 -0.87444742116E+02  0.52258189272E+03  0.15294330000E+03 0.  0.
    8880022    1    1    2    0    0 -0.40052189024E+03 -0.28571981747E+03  0.12438657048E+03  0.53001629276E+03  0.15294330000E+03 0.  0.
<mgrwt>
<rscale>  0 0.51521379E+03</rscale>
<asrwt>0</asrwt>
<pdfrwt beam="1">  1        2 0.78127413E-01 0.51521379E+03</pdfrwt>
<pdfrwt beam="2">  1       -2 0.83810770E-01 0.51521379E+03</pdfrwt>
<totfact> 0.77351943E+01</totfact>
</mgrwt>
</event>
<event>
 4    1  0.4880711E-008  0.4394486E+03  0.7818608E-02  0.1030916E+00
         -2   -1    0    0    0  501 -0.00000000000E+00  0.00000000000E+00  0.92387712338E+02  0.92387712373E+02  0.25500000000E-02 0.  1.
          2   -1    0    0  501    0  0.00000000000E+00 -0.00000000000E+00 -0.22397447686E+04  0.22397447686E+04  0.25500000000E-02 0. -1.
    8880022    1    1    2    0    0 -0.58689127622E+02  0.40777323310E+03 -0.77243977291E+03  0.88869470524E+03  0.15294330000E+03 0.  0.
    8880022    1    1    2    0    0  0.58689127622E+02 -0.40777323310E+03 -0.13749172833E+04  0.14434377757E+04  0.15294330000E+03 0.  0.
<mgrwt>
<rscale>  0 0.43944860E+03</rscale>
<asrwt>0</asrwt>
<pdfrwt beam="1">  1        2 0.34457608E+00 0.43944860E+03</pdfrwt>
<pdfrwt beam="2">  1       -2 0.14213496E-01 0.43944860E+03</pdfrwt>
<totfact> 0.20141738E+02</totfact>
</mgrwt>
</event>
<event>
 4    1  0.4880711E-008  0.3016429E+03  0.7818608E-02  0.1084422E+00
         -2   -1    0    0    0  501 -0.00000000000E+00  0.00000000000E+00  0.27775931009E+03  0.27775931010E+03  0.25500000000E-02 0.  1.
          2   -1    0    0  501    0  0.00000000000E+00 -0.00000000000E+00 -0.57107641703E+03  0.57107641703E+03  0.25500000000E-02 0. -1.
    8880022    1    1    2    0    0  0.24580661595E+03  0.84710551349E+02 -0.42379442241E+03  0.52018279040E+03  0.15294330000E+03 0.  0.
    8880022    1    1    2    0    0 -0.24580661595E+03 -0.84710551349E+02  0.13047731547E+03  0.32865293673E+03  0.15294330000E+03 0.  1.
<mgrwt>
<rscale>  0 0.30164287E+03</rscale>
<asrwt>0</asrwt>
<pdfrwt beam="1">  1        2 0.87857910E-01 0.30164287E+03</pdfrwt>
<pdfrwt beam="2">  1       -2 0.42732202E-01 0.30164287E+03</pdfrwt>
<totfact> 0.28182847E+02</totfact>
</mgrwt>
</event>
<event>
 4    1  0.4880711E-008  0.1120490E+04  0.7818608E-02  0.9185448E-01
         -2   -1    0    0    0  501 -0.00000000000E+00  0.00000000000E+00  0.66580086140E+03  0.66580086141E+03  0.25500000000E-02 0.  1.
          2   -1    0    0  501    0  0.00000000000E+00 -0.00000000000E+00 -0.24695161065E+04  0.24695161065E+04  0.25500000000E-02 0. -1.
    8880022    1    1    2    0    0  0.42573376115E+03  0.10251133392E+04 -0.16640856669E+04  0.20061603509E+04  0.15294330000E+03 0.  0.
    8880022    1    1    2    0    0 -0.42573376115E+03 -0.10251133392E+04 -0.13962957819E+03  0.11291566170E+04  0.15294330000E+03 0.  0.
<mgrwt>
<rscale>  0 0.11204902E+04</rscale>
<asrwt>0</asrwt>
<pdfrwt beam="1">  1        2 0.37992555E+00 0.11204902E+04</pdfrwt>
<pdfrwt beam="2">  1       -2 0.10243090E+00 0.11204902E+04</pdfrwt>
<totfact> 0.28055934E+00</totfact>
</mgrwt>
</event>
<event>
 4    1  0.4880711E-008  0.1805152E+03  0.7818608E-02  0.1167305E+00
         -2   -1    0    0    0  501 -0.00000000000E+00  0.00000000000E+00  0.48915622980E+02  0.48915623047E+02  0.25500000000E-02 0.  1.
          2   -1    0    0  501    0  0.00000000000E+00 -0.00000000000E+00 -0.13308350984E+04  0.13308350984E+04  0.25500000000E-02 0. -1.
    8880022    1    1    2    0    0 -0.50135522782E+02 -0.81734449096E+02 -0.11285022205E+04  0.11428486363E+04  0.15294330000E+03 0. -1.
    8880022    1    1    2    0    0  0.50135522782E+02  0.81734449096E+02 -0.15341725485E+03  0.23690208508E+03  0.15294330000E+03 0.  0.
<mgrwt>
<rscale>  0 0.18051522E+03</rscale>
<asrwt>0</asrwt>
<pdfrwt beam="1">  1        2 0.20474383E+00 0.18051522E+03</pdfrwt>
<pdfrwt beam="2">  1       -2 0.75254815E-02 0.18051522E+03</pdfrwt>
<totfact> 0.17585551E+03</totfact>
</mgrwt>
</event>
<event>
 4    1  0.4880711E-008  0.7058234E+03  0.7818608E-02  0.9707325E-01
         -2   -1    0    0    0  501 -0.00000000000E+00  0.00000000000E+00  0.70419019686E+03  0.70419019686E+03  0.25500000000E-02 0.  1.
          2   -1    0    0  501    0  0.00000000000E+00 -0.00000000000E+00 -0.10932476866E+04  0.10932476866E+04  0.25500000000E-02 0. -1.
    8880022    1    1    2    0    0  0.22008039187E+03 -0.65296224940E+03 -0.72840244292E+03  0.10142765155E+04  0.15294330000E+03 0.  0.
    8880022    1    1    2    0    0 -0.22008039187E+03  0.65296224940E+03  0.33934495317E+03  0.78316136797E+03  0.15294330000E+03 0.  0.
<mgrwt>
<rscale>  0 0.70582344E+03</rscale>
<asrwt>0</asrwt>
<pdfrwt beam="1">  1        2 0.16819195E+00 0.70582344E+03</pdfrwt>
<pdfrwt beam="2">  1       -2 0.10833695E+00 0.70582344E+03</pdfrwt>
<totfact> 0.15343004E+01</totfact>
</mgrwt>
</event>
<event>
 4    1  0.4880711E-008  0.2789241E+03  0.7818608E-02  0.1096278E+00
          2   -1    0    0  501    0  0.00000000000E+00  0.00000000000E+00  0.79142924522E+03  0.79142924522E+03  0.25500000000E-02 0. -1.
         -2   -1    0    0    0  501 -0.00000000000E+00 -0.00000000000E+00 -0.51916342912E+03  0.51916342912E+03  0.25500000000E-02 0.  1.
    8880022    1    1    2    0    0 -0.17907242249E+03  0.14946588416E+03 -0.45387189210E+03  0.53272725712E+03  0.15294330000E+03 0.  1.
    8880022    1    1    2    0    0  0.17907242249E+03 -0.14946588416E+03  0.72613770821E+03  0.77786541723E+03  0.15294330000E+03 0.  0.
<mgrwt>
<rscale>  0 0.27892407E+03</rscale>
<asrwt>0</asrwt>
<pdfrwt beam="1">  1        2 0.12175834E+00 0.27892407E+03</pdfrwt>
<pdfrwt beam="2">  1       -2 0.79871297E-01 0.27892407E+03</pdfrwt>
<totfact> 0.52074195E+01</totfact>
</mgrwt>
</event>
<event>
 4    1  0.4880711E-008  0.6335444E+03  0.7818608E-02  0.9838157E-01
         -2   -1    0    0    0  501 -0.00000000000E+00  0.00000000000E+00  0.62035577801E+03  0.62035577802E+03  0.25500000000E-02 0.  1.
          2   -1    0    0  501    0  0.00000000000E+00 -0.00000000000E+00 -0.10018210799E+04  0.10018210799E+04  0.25500000000E-02 0. -1.
    8880022    1    1    2    0    0  0.65003949298E+02 -0.61136021996E+03  0.29195884192E+03  0.69758042573E+03  0.15294330000E+03 0.  0.
    8880022    1    1    2    0    0 -0.65003949298E+02  0.61136021996E+03 -0.67342414385E+03  0.92459643224E+03  0.15294330000E+03 0.  0.
<mgrwt>
<rscale>  0 0.63354438E+03</rscale>
<asrwt>0</asrwt>
<pdfrwt beam="1">  1        2 0.15412632E+00 0.63354438E+03</pdfrwt>
<pdfrwt beam="2">  1       -2 0.95439351E-01 0.63354438E+03</pdfrwt>
<totfact> 0.23845420E+01</totfact>
</mgrwt>
</event>
<event>
 4    1  0.4880711E-008  0.5823312E+03  0.7818608E-02  0.9942757E-01
          2   -1    0    0  501    0  0.00000000000E+00  0.00000000000E+00  0.29449708494E+04  0.29449708494E+04  0.25500000000E-02 0. -1.
         -2   -1    0    0    0  501 -0.00000000000E+00 -0.00000000000E+00 -0.13542294804E+03  0.13542294806E+03  0.25500000000E-02 0.  1.
    8880022    1    1    2    0    0  0.60465127847E+02 -0.55862508257E+03  0.20007133748E+04  0.20837379095E+04  0.15294330000E+03 0.  0.
    8880022    1    1    2    0    0 -0.60465127847E+02  0.55862508257E+03  0.80883452662E+03  0.99665588797E+03  0.15294330000E+03 0.  0.
<mgrwt>
<rscale>  0 0.58233124E+03</rscale>
<asrwt>0</asrwt>
<pdfrwt beam="1">  1        2 0.45307243E+00 0.58233124E+03</pdfrwt>
<pdfrwt beam="2">  1       -2 0.20834300E-01 0.58233124E+03</pdfrwt>
<totfact> 0.40595327E+01</totfact>
</mgrwt>
</event>
<event>
 4    1  0.4880711E-008  0.6921051E+03  0.7818608E-02  0.9730830E-01
         -2   -1    0    0    0  501 -0.00000000000E+00  0.00000000000E+00  0.11047245170E+04  0.11047245170E+04  0.25500000000E-02 0.  1.
          2   -1    0    0  501    0  0.00000000000E+00 -0.00000000000E+00 -0.88326526369E+03  0.88326526369E+03  0.25500000000E-02 0. -1.
    8880022    1    1    2    0    0 -0.25158293521E+03  0.62635763118E+03 -0.59849339994E+03  0.91498844704E+03  0.15294330000E+03 0.  0.
    8880022    1    1    2    0    0  0.25158293521E+03 -0.62635763118E+03  0.81995265326E+03  0.10730013337E+04  0.15294330000E+03 0.  0.
<mgrwt>
<rscale>  0 0.69210513E+03</rscale>
<asrwt>0</asrwt>
<pdfrwt beam="1">  1        2 0.13588696E+00 0.69210513E+03</pdfrwt>
<pdfrwt beam="2">  1       -2 0.16995762E+00 0.69210513E+03</pdfrwt>
<totfact> 0.65910450E+00</totfact>
</mgrwt>
</event>
<event>
 4    1  0.4880711E-008  0.1456381E+04  0.7818608E-02  0.8913989E-01
         -2   -1    0    0    0  501 -0.00000000000E+00  0.00000000000E+00  0.13177369150E+04  0.13177369150E+04  0.25500000000E-02 0.  1.
          2   -1    0    0  501    0  0.00000000000E+00 -0.00000000000E+00 -0.19813674463E+04  0.19813674463E+04  0.25500000000E-02 0. -1.
    8880022    1    1    2    0    0 -0.21879778509E+03 -0.14317056211E+04 -0.10463317210E+04  0.17932805635E+04  0.15294330000E+03 0.  0.
    8880022    1    1    2    0    0  0.21879778509E+03  0.14317056211E+04  0.38270118973E+03  0.15058237978E+04  0.15294330000E+03 0.  0.
<mgrwt>
<rscale>  0 0.14563808E+04</rscale>
<asrwt>0</asrwt>
<pdfrwt beam="1">  1        2 0.30482576E+00 0.14563808E+04</pdfrwt>
<pdfrwt beam="2">  1       -2 0.20272876E+00 0.14563808E+04</pdfrwt>
<totfact> 0.82397403E-01</totfact>
</mgrwt>
</event>
<event>
 4    1  0.4880711E-008  0.5665550E+03  0.7818608E-02  0.9977331E-01
          2   -1    0    0  501    0  0.00000000000E+00  0.00000000000E+00  0.20811295430E+04  0.20811295430E+04  0.25500000000E-02 0. -1.
         -2   -1    0    0    0  501 -0.00000000000E+00 -0.00000000000E+00 -0.23270493005E+03  0.23270493006E+03  0.25500000000E-02 0.  1.
    8880022    1    1    2    0    0 -0.54545036715E+03  0.87645844575E+01  0.15960263209E+04  0.16936010720E+04  0.15294330000E+03 0.  0.
    8880022    1    1    2    0    0  0.54545036715E+03 -0.87645844575E+01  0.25239829201E+03  0.62023340106E+03  0.15294330000E+03 0.  0.
<mgrwt>
<rscale>  0 0.56655501E+03</rscale>
<asrwt>0</asrwt>
<pdfrwt beam="1">  1        2 0.32017377E+00 0.56655501E+03</pdfrwt>
<pdfrwt beam="2">  1       -2 0.35800759E-01 0.56655501E+03</pdfrwt>
<totfact> 0.46781495E+01</totfact>
</mgrwt>
</event>
<event>
 4    1  0.4880711E-008  0.2851264E+03  0.7818608E-02  0.1092922E+00
         -2   -1    0    0    0  501 -0.00000000000E+00  0.00000000000E+00  0.96076624434E+02  0.96076624468E+02  0.25500000000E-02 0.  1.
          2   -1    0    0  501    0  0.00000000000E+00 -0.00000000000E+00 -0.14470046334E+04  0.14470046334E+04  0.25500000000E-02 0. -1.
    8880022    1    1    2    0    0 -0.23633560795E+03  0.45286474774E+02 -0.11726304046E+04  0.12067970431E+04  0.15294330000E+03 0.  0.
    8880022    1    1    2    0    0  0.23633560795E+03 -0.45286474774E+02 -0.17829760437E+03  0.33628421479E+03  0.15294330000E+03 0.  0.
<mgrwt>
<rscale>  0 0.28512635E+03</rscale>
<asrwt>0</asrwt>
<pdfrwt beam="1">  1        2 0.22261608E+00 0.28512635E+03</pdfrwt>
<pdfrwt beam="2">  1       -2 0.14781020E-01 0.28512635E+03</pdfrwt>
<totfact> 0.51253285E+02</totfact>
</mgrwt>
</event>
<event>
 4    1  0.4880711E-008  0.4612683E+03  0.7818608E-02  0.1024414E+00
          2   -1    0    0  501    0  0.00000000000E+00  0.00000000000E+00  0.22652019415E+04  0.22652019415E+04  0.25500000000E-02 0. -1.
         -2   -1    0    0    0  501 -0.00000000000E+00 -0.00000000000E+00 -0.33306686262E+03  0.33306686263E+03  0.25500000000E-02 0.  1.
    8880022    1    1    2    0    0  0.93205250436E+02 -0.42507591550E+03 -0.13474264958E+03  0.48054551010E+03  0.15294330000E+03 0.  1.
    8880022    1    1    2    0    0 -0.93205250436E+02  0.42507591550E+03  0.20668777285E+04  0.21177232941E+04  0.15294330000E+03 0.  0.
<mgrwt>
<rscale>  0 0.46126826E+03</rscale>
<asrwt>0</asrwt>
<pdfrwt beam="1">  1        2 0.34849260E+00 0.46126826E+03</pdfrwt>
<pdfrwt beam="2">  1       -2 0.51241057E-01 0.46126826E+03</pdfrwt>
<totfact> 0.18766265E+01</totfact>
</mgrwt>
</event>
<event>
 4    1  0.4880711E-008  0.2282024E+03  0.7818608E-02  0.1127911E+00
         -2   -1    0    0    0  501 -0.00000000000E+00  0.00000000000E+00  0.20388832517E+03  0.20388832518E+03  0.25500000000E-02 0.  1.
          2   -1    0    0  501    0  0.00000000000E+00 -0.00000000000E+00 -0.18264503182E+04  0.18264503182E+04  0.25500000000E-02 0. -1.
    8880022    1    1    2    0    0  0.15024859106E+03 -0.78166827574E+02 -0.17527963059E+04  0.17675891024E+04  0.15294330000E+03 0.  0.
    8880022    1    1    2    0    0 -0.15024859106E+03  0.78166827574E+02  0.13023431282E+03  0.26274954100E+03  0.15294330000E+03 0.  0.
<mgrwt>
<rscale>  0 0.22820242E+03</rscale>
<asrwt>0</asrwt>
<pdfrwt beam="1">  1        2 0.28099235E+00 0.22820242E+03</pdfrwt>
<pdfrwt beam="2">  1       -2 0.31367436E-01 0.22820242E+03</pdfrwt>
<totfact> 0.88516718E+01</totfact>
</mgrwt>
</event>
<event>
 4    1  0.4880711E-008  0.5635539E+03  0.7818608E-02  0.9984045E-01
          2   -1    0    0  501    0  0.00000000000E+00  0.00000000000E+00  0.32273484238E+04  0.32273484238E+04  0.25500000000E-02 0. -1.
         -2   -1    0    0    0  501 -0.00000000000E+00 -0.00000000000E+00 -0.26072766438E+03  0.26072766439E+03  0.25500000000E-02 0.  1.
    8880022    1    1    2    0    0 -0.17347613370E+03 -0.51391380554E+03  0.28594090476E+04  0.29144147136E+04  0.15294330000E+03 0.  0.
    8880022    1    1    2    0    0  0.17347613370E+03  0.51391380554E+03  0.10721171181E+03  0.57366137455E+03  0.15294330000E+03 0.  0.
<mgrwt>
<rscale>  0 0.56355392E+03</rscale>
<asrwt>0</asrwt>
<pdfrwt beam="1">  1        2 0.49651513E+00 0.56355392E+03</pdfrwt>
<pdfrwt beam="2">  1       -2 0.40111949E-01 0.56355392E+03</pdfrwt>
<totfact> 0.81742575E+00</totfact>
</mgrwt>
</event>
<event>
 4    1  0.4880711E-008  0.6249264E+03  0.7818608E-02  0.9855000E-01
         -2   -1    0    0    0  501 -0.00000000000E+00  0.00000000000E+00  0.63545187433E+03  0.63545187433E+03  0.25500000000E-02 0.  1.
          2   -1    0    0  501    0  0.00000000000E+00 -0.00000000000E+00 -0.17147659757E+04  0.17147659757E+04  0.25500000000E-02 0. -1.
    8880022    1    1    2    0    0  0.52317863356E+03 -0.30565579038E+03 -0.14809172274E+04  0.16073732709E+04  0.15294330000E+03 0.  0.
    8880022    1    1    2    0    0 -0.52317863356E+03  0.30565579038E+03  0.40160312602E+03  0.74284457907E+03  0.15294330000E+03 0.  0.
<mgrwt>
<rscale>  0 0.62492639E+03</rscale>
<asrwt>0</asrwt>
<pdfrwt beam="1">  1        2 0.26381015E+00 0.62492639E+03</pdfrwt>
<pdfrwt beam="2">  1       -2 0.97761827E-01 0.62492639E+03</pdfrwt>
<totfact> 0.88034116E+00</totfact>
</mgrwt>
</event>
<event>
 4    1  0.4880711E-008  0.5131912E+03  0.7818608E-02  0.1010392E+00
          2   -1    0    0  501    0  0.00000000000E+00  0.00000000000E+00  0.14251253221E+04  0.14251253221E+04  0.25500000000E-02 0. -1.
         -2   -1    0    0    0  501 -0.00000000000E+00 -0.00000000000E+00 -0.66214117984E+03  0.66214117985E+03  0.25500000000E-02 0.  1.
    8880022    1    1    2    0    0 -0.27350802842E+03  0.40640730953E+03 -0.50461542297E+03  0.71972350313E+03  0.15294330000E+03 0.  0.
    8880022    1    1    2    0    0  0.27350802842E+03 -0.40640730953E+03  0.12675995652E+04  0.13675429988E+04  0.15294330000E+03 0.  0.
<mgrwt>
<rscale>  0 0.51319119E+03</rscale>
<asrwt>0</asrwt>
<pdfrwt beam="1">  1        2 0.21925005E+00 0.51319119E+03</pdfrwt>
<pdfrwt beam="2">  1       -2 0.10186787E+00 0.51319119E+03</pdfrwt>
<totfact> 0.11754559E+01</totfact>
</mgrwt>
</event>
<event>
 4    1  0.4880711E-008  0.4212443E+03  0.7818608E-02  0.1036662E+00
         -2   -1    0    0    0  501 -0.00000000000E+00  0.00000000000E+00  0.22458316366E+03  0.22458316368E+03  0.25500000000E-02 0.  1.
          2   -1    0    0  501    0  0.00000000000E+00 -0.00000000000E+00 -0.90913875028E+03  0.90913875028E+03  0.25500000000E-02 0. -1.
    8880022    1    1    2    0    0 -0.38226087632E+03  0.89060209354E+02 -0.54738288771E+03  0.69070599912E+03  0.15294330000E+03 0.  0.
    8880022    1    1    2    0    0  0.38226087632E+03 -0.89060209354E+02 -0.13717269891E+03  0.44301591484E+03  0.15294330000E+03 0.  0.
<mgrwt>
<rscale>  0 0.42124429E+03</rscale>
<asrwt>0</asrwt>
<pdfrwt beam="1">  1        2 0.13986750E+00 0.42124429E+03</pdfrwt>
<pdfrwt beam="2">  1       -2 0.34551256E-01 0.42124429E+03</pdfrwt>
<totfact> 0.23420430E+02</totfact>
</mgrwt>
</event>
<event>
 4    1  0.4880711E-008  0.6195546E+03  0.7818608E-02  0.9865647E-01
          2   -1    0    0  501    0  0.00000000000E+00  0.00000000000E+00  0.74526287843E+03  0.74526287844E+03  0.25500000000E-02 0. -1.
         -2   -1    0    0    0  501 -0.00000000000E+00 -0.00000000000E+00 -0.52748512108E+03  0.52748512109E+03  0.25500000000E-02 0.  1.
    8880022    1    1    2    0    0 -0.20468893470E+02  0.60003105216E+03  0.11181682531E+02  0.61965548670E+03  0.15294330000E+03 0. -1.
    8880022    1    1    2    0    0  0.20468893470E+02 -0.60003105216E+03  0.20659607482E+03  0.65309251282E+03  0.15294330000E+03 0.  1.
<mgrwt>
<rscale>  0 0.61955459E+03</rscale>
<asrwt>0</asrwt>
<pdfrwt beam="1">  1        2 0.11465583E+00 0.61955459E+03</pdfrwt>
<pdfrwt beam="2">  1       -2 0.81151558E-01 0.61955459E+03</pdfrwt>
<totfact> 0.51839295E+01</totfact>
</mgrwt>
</event>
<event>
 4    1  0.4880711E-008  0.3244796E+03  0.7818608E-02  0.1073606E+00
          2   -1    0    0  501    0  0.00000000000E+00  0.00000000000E+00  0.26445989334E+04  0.26445989334E+04  0.25500000000E-02 0. -1.
         -2   -1    0    0    0  501 -0.00000000000E+00 -0.00000000000E+00 -0.57512436779E+02  0.57512436835E+02  0.25500000000E-02 0.  1.
    8880022    1    1    2    0    0  0.19481823837E+03 -0.20962158384E+03  0.54402317571E+03  0.63344157042E+03  0.15294330000E+03 0.  0.
    8880022    1    1    2    0    0 -0.19481823837E+03  0.20962158384E+03  0.20430633209E+04  0.20686697998E+04  0.15294330000E+03 0. -1.
<mgrwt>
<rscale>  0 0.32447959E+03</rscale>
<asrwt>0</asrwt>
<pdfrwt beam="1">  1        2 0.40686134E+00 0.32447959E+03</pdfrwt>
<pdfrwt beam="2">  1       -2 0.88480680E-02 0.32447959E+03</pdfrwt>
<totfact> 0.26591615E+02</totfact>
</mgrwt>
</event>
<event>
 4    1  0.4880711E-008  0.1447933E+04  0.7818608E-02  0.8919834E-01
         -2   -1    0    0    0  501 -0.00000000000E+00  0.00000000000E+00  0.82327302900E+03  0.82327302900E+03  0.25500000000E-02 0.  1.
          2   -1    0    0  501    0  0.00000000000E+00 -0.00000000000E+00 -0.27017324115E+04  0.27017324115E+04  0.25500000000E-02 0. -1.
    8880022    1    1    2    0    0 -0.30510651561E+03  0.14071352485E+04 -0.51683267221E+03  0.15374092681E+04  0.15294330000E+03 0.  0.
    8880022    1    1    2    0    0  0.30510651561E+03 -0.14071352485E+04 -0.13616267103E+04  0.19875961724E+04  0.15294330000E+03 0.  0.
<mgrwt>
<rscale>  0 0.14479334E+04</rscale>
<asrwt>0</asrwt>
<pdfrwt beam="1">  1        2 0.41565113E+00 0.14479334E+04</pdfrwt>
<pdfrwt beam="2">  1       -2 0.12665739E+00 0.14479334E+04</pdfrwt>
<totfact> 0.11730528E+00</totfact>
</mgrwt>
</event>
<event>
 4    1  0.4880711E-008  0.5825698E+03  0.7818608E-02  0.9942243E-01
         -2   -1    0    0    0  501 -0.00000000000E+00  0.00000000000E+00  0.52508377998E+03  0.52508377999E+03  0.25500000000E-02 0.  1.
          2   -1    0    0  501    0  0.00000000000E+00 -0.00000000000E+00 -0.11557807766E+04  0.11557807766E+04  0.25500000000E-02 0. -1.
    8880022    1    1    2    0    0 -0.56178441681E+03  0.19854314772E+02  0.24261763871E+03  0.63107122927E+03  0.15294330000E+03 0.  0.
    8880022    1    1    2    0    0  0.56178441681E+03 -0.19854314772E+02 -0.87331463529E+03  0.10497933273E+04  0.15294330000E+03 0.  0.
<mgrwt>
<rscale>  0 0.58256981E+03</rscale>
<asrwt>0</asrwt>
<pdfrwt beam="1">  1        2 0.17781243E+00 0.58256981E+03</pdfrwt>
<pdfrwt beam="2">  1       -2 0.80782120E-01 0.58256981E+03</pdfrwt>
<totfact> 0.28281496E+01</totfact>
</mgrwt>
</event>
<event>
 4    1  0.4880711E-008  0.9818390E+03  0.7818608E-02  0.9328691E-01
         -2   -1    0    0    0  501 -0.00000000000E+00  0.00000000000E+00  0.12827197381E+04  0.12827197381E+04  0.25500000000E-02 0.  1.
          2   -1    0    0  501    0  0.00000000000E+00 -0.00000000000E+00 -0.12739040021E+04  0.12739040021E+04  0.25500000000E-02 0. -1.
    8880022    1    1    2    0    0  0.22999679691E+03 -0.94218767297E+03  0.82298100730E+03  0.12811344695E+04  0.15294330000E+03 0.  1.
    8880022    1    1    2    0    0 -0.22999679691E+03  0.94218767297E+03 -0.81416527127E+03  0.12754892707E+04  0.15294330000E+03 0.  0.
<mgrwt>
<rscale>  0 0.98183898E+03</rscale>
<asrwt>0</asrwt>
<pdfrwt beam="1">  1        2 0.19598523E+00 0.98183898E+03</pdfrwt>
<pdfrwt beam="2">  1       -2 0.19734150E+00 0.98183898E+03</pdfrwt>
<totfact> 0.23582841E+00</totfact>
</mgrwt>
</event>
<event>
 4    1  0.4880711E-008  0.6270320E+03  0.7818608E-02  0.9850858E-01
         -2   -1    0    0    0  501 -0.00000000000E+00  0.00000000000E+00  0.37271921206E+03  0.37271921207E+03  0.25500000000E-02 0.  1.
          2   -1    0    0  501    0  0.00000000000E+00 -0.00000000000E+00 -0.14038686970E+04  0.14038686970E+04  0.25500000000E-02 0. -1.
    8880022    1    1    2    0    0 -0.41600022942E+03  0.44353267051E+03 -0.95847653352E+03  0.11453586072E+04  0.15294330000E+03 0.  0.
    8880022    1    1    2    0    0  0.41600022942E+03 -0.44353267051E+03 -0.72672951404E+02  0.63122930189E+03  0.15294330000E+03 0.  0.
<mgrwt>
<rscale>  0 0.62703196E+03</rscale>
<asrwt>0</asrwt>
<pdfrwt beam="1">  1        2 0.21597980E+00 0.62703196E+03</pdfrwt>
<pdfrwt beam="2">  1       -2 0.57341418E-01 0.62703196E+03</pdfrwt>
<totfact> 0.42477060E+01</totfact>
</mgrwt>
</event>
<event>
 4    1  0.4880711E-008  0.5962356E+03  0.7818608E-02  0.9913247E-01
         -2   -1    0    0    0  501 -0.00000000000E+00  0.00000000000E+00  0.39944221628E+03  0.39944221628E+03  0.25500000000E-02 0.  1.
          2   -1    0    0  501    0  0.00000000000E+00 -0.00000000000E+00 -0.16617310813E+04  0.16617310813E+04  0.25500000000E-02 0. -1.
    8880022    1    1    2    0    0  0.17246663922E+03 -0.54987313872E+03 -0.13334754716E+04  0.14607031515E+04  0.15294330000E+03 0.  0.
    8880022    1    1    2    0    0 -0.17246663922E+03  0.54987313872E+03  0.71186606639E+02  0.60047014606E+03  0.15294330000E+03 0.  0.
<mgrwt>
<rscale>  0 0.59623558E+03</rscale>
<asrwt>0</asrwt>
<pdfrwt beam="1">  1        2 0.25565093E+00 0.59623558E+03</pdfrwt>
<pdfrwt beam="2">  1       -2 0.61452650E-01 0.59623558E+03</pdfrwt>
<totfact> 0.26583953E+01</totfact>
</mgrwt>
</event>
<event>
 4    1  0.4880711E-008  0.5184101E+03  0.7818608E-02  0.1009082E+00
          2   -1    0    0  501    0  0.00000000000E+00  0.00000000000E+00  0.23677093885E+04  0.23677093885E+04  0.25500000000E-02 0. -1.
         -2   -1    0    0    0  501 -0.00000000000E+00 -0.00000000000E+00 -0.12808204549E+03  0.12808204552E+03  0.25500000000E-02 0.  1.
    8880022    1    1    2    0    0 -0.62548678451E+01  0.49529616726E+03  0.15407873884E+04  0.16256613565E+04  0.15294330000E+03 0.  0.
    8880022    1    1    2    0    0  0.62548678451E+01 -0.49529616726E+03  0.69883995459E+03  0.87013007753E+03  0.15294330000E+03 0.  0.
<mgrwt>
<rscale>  0 0.51841014E+03</rscale>
<asrwt>0</asrwt>
<pdfrwt beam="1">  1        2 0.36426297E+00 0.51841014E+03</pdfrwt>
<pdfrwt beam="2">  1       -2 0.19704931E-01 0.51841014E+03</pdfrwt>
<totfact> 0.97106798E+01</totfact>
</mgrwt>
</event>
<event>
 4    1  0.4880711E-008  0.2634546E+03  0.7818608E-02  0.1105085E+00
          2   -1    0    0  501    0  0.00000000000E+00  0.00000000000E+00  0.14170243092E+04  0.14170243092E+04  0.25500000000E-02 0. -1.
         -2   -1    0    0    0  501 -0.00000000000E+00 -0.00000000000E+00 -0.42027818230E+03  0.42027818230E+03  0.25500000000E-02 0.  1.
    8880022    1    1    2    0    0  0.57792740430E+02 -0.20658335732E+03 -0.36508774644E+03  0.45021927988E+03  0.15294330000E+03 0.  0.
    8880022    1    1    2    0    0 -0.57792740430E+02  0.20658335732E+03  0.13618338733E+04  0.13870832116E+04  0.15294330000E+03 0. -1.
<mgrwt>
<rscale>  0 0.26345462E+03</rscale>
<asrwt>0</asrwt>
<pdfrwt beam="1">  1        2 0.21800374E+00 0.26345462E+03</pdfrwt>
<pdfrwt beam="2">  1       -2 0.64658181E-01 0.26345462E+03</pdfrwt>
<totfact> 0.34846653E+01</totfact>
</mgrwt>
</event>
<event>
 4    1  0.4880711E-008  0.8690795E+03  0.7818608E-02  0.9465081E-01
          2   -1    0    0  501    0  0.00000000000E+00  0.00000000000E+00  0.11615811227E+04  0.11615811227E+04  0.25500000000E-02 0. -1.
         -2   -1    0    0    0  501 -0.00000000000E+00 -0.00000000000E+00 -0.98408769461E+03  0.98408769461E+03  0.25500000000E-02 0.  1.
    8880022    1    1    2    0    0  0.45253090105E+03 -0.72603256396E+03  0.71362308582E+03  0.11245252607E+04  0.15294330000E+03 0.  0.
    8880022    1    1    2    0    0 -0.45253090105E+03  0.72603256396E+03 -0.53612965772E+03  0.10211435566E+04  0.15294330000E+03 0.  0.
<mgrwt>
<rscale>  0 0.86907949E+03</rscale>
<asrwt>0</asrwt>
<pdfrwt beam="1">  1        2 0.17870479E+00 0.86907949E+03</pdfrwt>
<pdfrwt beam="2">  1       -2 0.15139811E+00 0.86907949E+03</pdfrwt>
<totfact> 0.58718009E+00</totfact>
</mgrwt>
</event>
<event>
 4    1  0.4880711E-008  0.4230968E+03  0.7818608E-02  0.1036063E+00
         -2   -1    0    0    0  501 -0.00000000000E+00  0.00000000000E+00  0.32088019638E+03  0.32088019639E+03  0.25500000000E-02 0.  1.
          2   -1    0    0  501    0  0.00000000000E+00 -0.00000000000E+00 -0.10734282423E+04  0.10734282423E+04  0.25500000000E-02 0. -1.
    8880022    1    1    2    0    0  0.31853652262E+03 -0.23270961416E+03  0.10687293727E+03  0.43638602005E+03  0.15294330000E+03 0.  0.
    8880022    1    1    2    0    0 -0.31853652262E+03  0.23270961416E+03 -0.85942098321E+03  0.95792241865E+03  0.15294330000E+03 0.  0.
<mgrwt>
<rscale>  0 0.42309684E+03</rscale>
<asrwt>0</asrwt>
<pdfrwt beam="1">  1        2 0.16514280E+00 0.42309684E+03</pdfrwt>
<pdfrwt beam="2">  1       -2 0.49366185E-01 0.42309684E+03</pdfrwt>
<totfact> 0.92207824E+01</totfact>
</mgrwt>
</event>
<event>
 4    1  0.4880711E-008  0.6846648E+03  0.7818608E-02  0.9743823E-01
          2   -1    0    0  501    0  0.00000000000E+00  0.00000000000E+00  0.14100280480E+04  0.14100280480E+04  0.25500000000E-02 0. -1.
         -2   -1    0    0    0  501 -0.00000000000E+00 -0.00000000000E+00 -0.66953909930E+03  0.66953909930E+03  0.25500000000E-02 0.  1.
    8880022    1    1    2    0    0 -0.18621652000E+03  0.64085693233E+03 -0.36753472706E+03  0.77707633386E+03  0.15294330000E+03 0.  0.
    8880022    1    1    2    0    0  0.18621652000E+03 -0.64085693233E+03  0.11080236757E+04  0.13024908134E+04  0.15294330000E+03 0.  0.
<mgrwt>
<rscale>  0 0.68466477E+03</rscale>
<asrwt>0</asrwt>
<pdfrwt beam="1">  1        2 0.21692739E+00 0.68466477E+03</pdfrwt>
<pdfrwt beam="2">  1       -2 0.10300602E+00 0.68466477E+03</pdfrwt>
<totfact> 0.11344736E+01</totfact>
</mgrwt>
</event>
<event>
 4    1  0.4880711E-008  0.1632124E+04  0.7818608E-02  0.8801053E-01
          2   -1    0    0  501    0  0.00000000000E+00  0.00000000000E+00  0.29889283558E+04  0.29889283558E+04  0.25500000000E-02 0. -1.
         -2   -1    0    0    0  501 -0.00000000000E+00 -0.00000000000E+00 -0.15746028508E+04  0.15746028508E+04  0.25500000000E-02 0.  1.
    8880022    1    1    2    0    0  0.86534161318E+02 -0.16226360528E+04 -0.79602713707E+03  0.18158983388E+04  0.15294330000E+03 0.  0.
    8880022    1    1    2    0    0 -0.86534161318E+02  0.16226360528E+04  0.22103526421E+04  0.27476328678E+04  0.15294330000E+03 0.  0.
<mgrwt>
<rscale>  0 0.16321236E+04</rscale>
<asrwt>0</asrwt>
<pdfrwt beam="1">  1        2 0.45983513E+00 0.16321236E+04</pdfrwt>
<pdfrwt beam="2">  1       -2 0.24224660E+00 0.16321236E+04</pdfrwt>
<totfact> 0.11742248E-01</totfact>
</mgrwt>
</event>
<event>
 4    1  0.4880711E-008  0.4832771E+03  0.7818608E-02  0.1018238E+00
         -2   -1    0    0    0  501 -0.00000000000E+00  0.00000000000E+00  0.81957510297E+03  0.81957510297E+03  0.25500000000E-02 0.  1.
          2   -1    0    0  501    0  0.00000000000E+00 -0.00000000000E+00 -0.44366680619E+03  0.44366680620E+03  0.25500000000E-02 0. -1.
    8880022    1    1    2    0    0  0.44486439301E+03  0.11072853236E+03 -0.18979894306E+03  0.51921135181E+03  0.15294330000E+03 0.  0.
    8880022    1    1    2    0    0 -0.44486439301E+03 -0.11072853236E+03  0.56570723984E+03  0.74403055735E+03  0.15294330000E+03 0.  0.
<mgrwt>
<rscale>  0 0.48327713E+03</rscale>
<asrwt>0</asrwt>
<pdfrwt beam="1">  1        2 0.68256432E-01 0.48327713E+03</pdfrwt>
<pdfrwt beam="2">  1       -2 0.12608848E+00 0.48327713E+03</pdfrwt>
<totfact> 0.34367775E+01</totfact>
</mgrwt>
</event>
<event>
 4    1  0.4880711E-008  0.9168112E+03  0.7818608E-02  0.9404807E-01
         -2   -1    0    0    0  501 -0.00000000000E+00  0.00000000000E+00  0.44826880091E+03  0.44826880092E+03  0.25500000000E-02 0.  1.
          2   -1    0    0  501    0  0.00000000000E+00 -0.00000000000E+00 -0.29913044923E+04  0.29913044923E+04  0.25500000000E-02 0. -1.
    8880022    1    1    2    0    0 -0.30663385015E+03 -0.85036866837E+03 -0.22096297292E+03  0.94306281796E+03  0.15294330000E+03 0.  0.
    8880022    1    1    2    0    0  0.30663385015E+03  0.85036866837E+03 -0.23220727185E+04  0.24965104752E+04  0.15294330000E+03 0.  0.
<mgrwt>
<rscale>  0 0.91681124E+03</rscale>
<asrwt>0</asrwt>
<pdfrwt beam="1">  1        2 0.46020068E+00 0.91681124E+03</pdfrwt>
<pdfrwt beam="2">  1       -2 0.68964433E-01 0.91681124E+03</pdfrwt>
<totfact> 0.35047523E+00</totfact>
</mgrwt>
</event>
<event>
 4    1  0.4880711E-008  0.1714184E+03  0.7818608E-02  0.1176377E+00
          2   -1    0    0  501    0  0.00000000000E+00  0.00000000000E+00  0.11120379901E+04  0.11120379901E+04  0.25500000000E-02 0. -1.
         -2   -1    0    0    0  501 -0.00000000000E+00 -0.00000000000E+00 -0.28199301526E+02  0.28199301641E+02  0.25500000000E-02 0.  1.
    8880022    1    1    2    0    0  0.24711383151E+00  0.77411643778E+02  0.68497525488E+03  0.70609870165E+03  0.15294330000E+03 0. -1.
    8880022    1    1    2    0    0 -0.24711383151E+00 -0.77411643778E+02  0.39886343371E+03  0.43413859011E+03  0.15294330000E+03 0.  1.
<mgrwt>
<rscale>  0 0.17141843E+03</rscale>
<asrwt>0</asrwt>
<pdfrwt beam="1">  1        2 0.17108272E+00 0.17141843E+03</pdfrwt>
<pdfrwt beam="2">  1       -2 0.43383552E-02 0.17141843E+03</pdfrwt>
<totfact> 0.53820368E+03</totfact>
</mgrwt>
</event>
<event>
 4    1  0.4880711E-008  0.4088412E+03  0.7818608E-02  0.1040761E+00
         -2   -1    0    0    0  501 -0.00000000000E+00  0.00000000000E+00  0.44871230355E+03  0.44871230356E+03  0.25500000000E-02 0.  1.
          2   -1    0    0  501    0  0.00000000000E+00 -0.00000000000E+00 -0.14990799060E+04  0.14990799060E+04  0.25500000000E-02 0. -1.
    8880022    1    1    2    0    0  0.37812488242E+03  0.27947101985E+02 -0.13694487359E+04  0.14291749230E+04  0.15294330000E+03 0.  0.
    8880022    1    1    2    0    0 -0.37812488242E+03 -0.27947101985E+02  0.31908113344E+03  0.51861728659E+03  0.15294330000E+03 0.  0.
<mgrwt>
<rscale>  0 0.40884119E+03</rscale>
<asrwt>0</asrwt>
<pdfrwt beam="1">  1        2 0.23062768E+00 0.40884119E+03</pdfrwt>
<pdfrwt beam="2">  1       -2 0.69032663E-01 0.40884119E+03</pdfrwt>
<totfact> 0.26316200E+01</totfact>
</mgrwt>
</event>
<event>
 4    1  0.4880711E-008  0.7396234E+03  0.7818608E-02  0.9651772E-01
         -2   -1    0    0    0  501 -0.00000000000E+00  0.00000000000E+00  0.14616971819E+04  0.14616971819E+04  0.25500000000E-02 0.  1.
          2   -1    0    0  501    0  0.00000000000E+00 -0.00000000000E+00 -0.71876781325E+03  0.71876781325E+03  0.25500000000E-02 0. -1.
    8880022    1    1    2    0    0  0.25943610159E+03 -0.67553235749E+03 -0.38333126140E+03  0.83305796065E+03  0.15294330000E+03 0.  0.
    8880022    1    1    2    0    0 -0.25943610159E+03  0.67553235749E+03  0.11262606300E+04  0.13474070345E+04  0.15294330000E+03 0.  0.
<mgrwt>
<rscale>  0 0.73962336E+03</rscale>
<asrwt>0</asrwt>
<pdfrwt beam="1">  1        2 0.11057966E+00 0.73962336E+03</pdfrwt>
<pdfrwt beam="2">  1       -2 0.22487649E+00 0.73962336E+03</pdfrwt>
<totfact> 0.37459780E+00</totfact>
</mgrwt>
</event>
<event>
 4    1  0.4880711E-008  0.5839255E+03  0.7818608E-02  0.9939328E-01
         -2   -1    0    0    0  501 -0.00000000000E+00  0.00000000000E+00  0.61052646890E+03  0.61052646890E+03  0.25500000000E-02 0.  1.
          2   -1    0    0  501    0  0.00000000000E+00 -0.00000000000E+00 -0.15626880808E+04  0.15626880808E+04  0.25500000000E-02 0. -1.
    8880022    1    1    2    0    0  0.32543032503E+03 -0.46007874899E+03 -0.13471397440E+04  0.14682487850E+04  0.15294330000E+03 0. -1.
    8880022    1    1    2    0    0 -0.32543032503E+03  0.46007874899E+03  0.39497813203E+03  0.70496576479E+03  0.15294330000E+03 0.  0.
<mgrwt>
<rscale>  0 0.58392551E+03</rscale>
<asrwt>0</asrwt>
<pdfrwt beam="1">  1        2 0.24041355E+00 0.58392551E+03</pdfrwt>
<pdfrwt beam="2">  1       -2 0.93927149E-01 0.58392551E+03</pdfrwt>
<totfact> 0.11784456E+01</totfact>
</mgrwt>
</event>
<event>
 4    1  0.4880711E-008  0.7336955E+03  0.7818608E-02  0.9661282E-01
         -2   -1    0    0    0  501 -0.00000000000E+00  0.00000000000E+00  0.27051864553E+03  0.27051864554E+03  0.25500000000E-02 0.  1.
          2   -1    0    0  501    0  0.00000000000E+00 -0.00000000000E+00 -0.22365692880E+04  0.22365692880E+04  0.25500000000E-02 0. -1.
    8880022    1    1    2    0    0 -0.59317338387E+03 -0.40381038361E+03 -0.56673853645E+03  0.92709315118E+03  0.15294330000E+03 0.  0.
    8880022    1    1    2    0    0  0.59317338387E+03  0.40381038361E+03 -0.13993121061E+04  0.15799947824E+04  0.15294330000E+03 0.  0.
<mgrwt>
<rscale>  0 0.73369554E+03</rscale>
<asrwt>0</asrwt>
<pdfrwt beam="1">  1        2 0.34408757E+00 0.73369554E+03</pdfrwt>
<pdfrwt beam="2">  1       -2 0.41618255E-01 0.73369554E+03</pdfrwt>
<totfact> 0.28020880E+01</totfact>
</mgrwt>
</event>
<event>
 4    1  0.4880711E-008  0.3016112E+03  0.7818608E-02  0.1084438E+00
          2   -1    0    0  501    0  0.00000000000E+00  0.00000000000E+00  0.45409226931E+03  0.45409226932E+03  0.25500000000E-02 0. -1.
         -2   -1    0    0    0  501 -0.00000000000E+00 -0.00000000000E+00 -0.33863868817E+03  0.33863868818E+03  0.25500000000E-02 0.  1.
    8880022    1    1    2    0    0 -0.17245803468E+03 -0.19451453872E+03 -0.19558109650E+03  0.35947363995E+03  0.15294330000E+03 0.  0.
    8880022    1    1    2    0    0  0.17245803468E+03  0.19451453872E+03  0.31103467763E+03  0.43325731754E+03  0.15294330000E+03 0.  0.
<mgrwt>
<rscale>  0 0.30161123E+03</rscale>
<asrwt>0</asrwt>
<pdfrwt beam="1">  1        2 0.69860349E-01 0.30161123E+03</pdfrwt>
<pdfrwt beam="2">  1       -2 0.52098260E-01 0.30161123E+03</pdfrwt>
<totfact> 0.24669339E+02</totfact>
</mgrwt>
</event>
<event>
 4    1  0.4880711E-008  0.2687113E+03  0.7818608E-02  0.1102019E+00
         -2   -1    0    0    0  501 -0.00000000000E+00  0.00000000000E+00  0.49186798214E+02  0.49186798280E+02  0.25500000000E-02 0.  1.
          2   -1    0    0  501    0  0.00000000000E+00 -0.00000000000E+00 -0.25325144632E+04  0.25325144632E+04  0.25500000000E-02 0. -1.
    8880022    1    1    2    0    0  0.18980778734E+03  0.11308016668E+03 -0.20785717171E+04  0.20958688309E+04  0.15294330000E+03 0. -1.
    8880022    1    1    2    0    0 -0.18980778734E+03 -0.11308016668E+03 -0.40475594790E+03  0.48583243058E+03  0.15294330000E+03 0.  0.
<mgrwt>
<rscale>  0 0.26871132E+03</rscale>
<asrwt>0</asrwt>
<pdfrwt beam="1">  1        2 0.38961751E+00 0.26871132E+03</pdfrwt>
<pdfrwt beam="2">  1       -2 0.75672017E-02 0.26871132E+03</pdfrwt>
<totfact> 0.39774602E+02</totfact>
</mgrwt>
</event>
<event>
 4    1  0.4880711E-008  0.9517423E+03  0.7818608E-02  0.9363116E-01
          2   -1    0    0  501    0  0.00000000000E+00  0.00000000000E+00  0.86583999329E+03  0.86583999330E+03  0.25500000000E-02 0. -1.
         -2   -1    0    0    0  501 -0.00000000000E+00 -0.00000000000E+00 -0.11680071630E+04  0.11680071630E+04  0.25500000000E-02 0.  1.
    8880022    1    1    2    0    0 -0.25061928565E+03 -0.90532414969E+03 -0.47952676593E+03  0.10657201390E+04  0.15294330000E+03 0.  0.
    8880022    1    1    2    0    0  0.25061928565E+03  0.90532414969E+03  0.17735959620E+03  0.96812701735E+03  0.15294330000E+03 0.  0.
<mgrwt>
<rscale>  0 0.95174235E+03</rscale>
<asrwt>0</asrwt>
<pdfrwt beam="1">  1        2 0.13320615E+00 0.95174235E+03</pdfrwt>
<pdfrwt beam="2">  1       -2 0.17969341E+00 0.95174235E+03</pdfrwt>
<totfact> 0.56185258E+00</totfact>
</mgrwt>
</event>
<event>
 4    1  0.4880711E-008  0.9319622E+03  0.7818608E-02  0.9386486E-01
          2   -1    0    0  501    0  0.00000000000E+00  0.00000000000E+00  0.13677892459E+04  0.13677892459E+04  0.25500000000E-02 0. -1.
         -2   -1    0    0    0  501 -0.00000000000E+00 -0.00000000000E+00 -0.82198542765E+03  0.82198542765E+03  0.25500000000E-02 0.  1.
    8880022    1    1    2    0    0 -0.76210834408E+03  0.51415251375E+03 -0.24929579361E+03  0.96472896776E+03  0.15294330000E+03 0.  0.
    8880022    1    1    2    0    0  0.76210834408E+03 -0.51415251375E+03  0.79509961190E+03  0.12250457058E+04  0.15294330000E+03 0.  0.
<mgrwt>
<rscale>  0 0.93196222E+03</rscale>
<asrwt>0</asrwt>
<pdfrwt beam="1">  1        2 0.21042911E+00 0.93196222E+03</pdfrwt>
<pdfrwt beam="2">  1       -2 0.12645930E+00 0.93196222E+03</pdfrwt>
<totfact> 0.70329944E+00</totfact>
</mgrwt>
</event>
<event>
 4    1  0.4880711E-008  0.7691396E+03  0.7818608E-02  0.9605793E-01
          2   -1    0    0  501    0  0.00000000000E+00  0.00000000000E+00  0.24338826587E+04  0.24338826587E+04  0.25500000000E-02 0. -1.
         -2   -1    0    0    0  501 -0.00000000000E+00 -0.00000000000E+00 -0.86715914722E+03  0.86715914722E+03  0.25500000000E-02 0.  1.
    8880022    1    1    2    0    0  0.71574131178E+03  0.23642851681E+03 -0.61686690042E+03  0.98595156818E+03  0.15294330000E+03 0.  0.
    8880022    1    1    2    0    0 -0.71574131178E+03 -0.23642851681E+03  0.21835904119E+04  0.23150902377E+04  0.15294330000E+03 0.  0.
<mgrwt>
<rscale>  0 0.76913960E+03</rscale>
<asrwt>0</asrwt>
<pdfrwt beam="1">  1        2 0.37444349E+00 0.76913960E+03</pdfrwt>
<pdfrwt beam="2">  1       -2 0.13340910E+00 0.76913960E+03</pdfrwt>
<totfact> 0.16158301E+00</totfact>
</mgrwt>
</event>
<event>
 4    1  0.4880711E-008  0.2259009E+03  0.7818608E-02  0.1129559E+00
         -2   -1    0    0    0  501 -0.00000000000E+00  0.00000000000E+00  0.70799163438E+02  0.70799163484E+02  0.25500000000E-02 0.  1.
          2   -1    0    0  501    0  0.00000000000E+00 -0.00000000000E+00 -0.10876625655E+04  0.10876625655E+04  0.25500000000E-02 0. -1.
    8880022    1    1    2    0    0 -0.11077154985E+03 -0.12397265085E+03 -0.84483731872E+03  0.87451775427E+03  0.15294330000E+03 0. -1.
    8880022    1    1    2    0    0  0.11077154985E+03  0.12397265085E+03 -0.17202608334E+03  0.28394397472E+03  0.15294330000E+03 0.  1.
<mgrwt>
<rscale>  0 0.22590088E+03</rscale>
<asrwt>0</asrwt>
<pdfrwt beam="1">  1        2 0.16733269E+00 0.22590088E+03</pdfrwt>
<pdfrwt beam="2">  1       -2 0.10892180E-01 0.22590088E+03</pdfrwt>
<totfact> 0.13459459E+03</totfact>
</mgrwt>
</event>
<event>
 4    1  0.4880711E-008  0.7204067E+03  0.7818608E-02  0.9682957E-01
         -2   -1    0    0    0  501 -0.00000000000E+00  0.00000000000E+00  0.64471891837E+03  0.64471891838E+03  0.25500000000E-02 0.  1.
          2   -1    0    0  501    0  0.00000000000E+00 -0.00000000000E+00 -0.24811323159E+04  0.24811323159E+04  0.25500000000E-02 0. -1.
    8880022    1    1    2    0    0  0.70293557207E+03 -0.38414673055E+02 -0.22028131626E+04  0.23176219683E+04  0.15294330000E+03 0.  0.
    8880022    1    1    2    0    0 -0.70293557207E+03  0.38414673055E+02  0.36639976504E+03  0.80822926601E+03  0.15294330000E+03 0.  0.
<mgrwt>
<rscale>  0 0.72040666E+03</rscale>
<asrwt>0</asrwt>
<pdfrwt beam="1">  1        2 0.38171266E+00 0.72040666E+03</pdfrwt>
<pdfrwt beam="2">  1       -2 0.99187526E-01 0.72040666E+03</pdfrwt>
<totfact> 0.31735377E+00</totfact>
</mgrwt>
</event>
<event>
 4    1  0.4880711E-008  0.9162024E+03  0.7818608E-02  0.9405551E-01
         -2   -1    0    0    0  501 -0.00000000000E+00  0.00000000000E+00  0.87226084633E+03  0.87226084633E+03  0.25500000000E-02 0.  1.
          2   -1    0    0  501    0  0.00000000000E+00 -0.00000000000E+00 -0.16412467327E+04  0.16412467327E+04  0.25500000000E-02 0. -1.
    8880022    1    1    2    0    0 -0.49196759810E+03  0.75762984778E+03 -0.11927746138E+04  0.15040405700E+04  0.15294330000E+03 0.  0.
    8880022    1    1    2    0    0  0.49196759810E+03 -0.75762984778E+03  0.42378872744E+03  0.10094670090E+04  0.15294330000E+03 0.  0.
<mgrwt>
<rscale>  0 0.91620236E+03</rscale>
<asrwt>0</asrwt>
<pdfrwt beam="1">  1        2 0.25249950E+00 0.91620236E+03</pdfrwt>
<pdfrwt beam="2">  1       -2 0.13419398E+00 0.91620236E+03</pdfrwt>
<totfact> 0.42557528E+00</totfact>
</mgrwt>
</event>
<event>
 4    1  0.4880711E-008  0.3780274E+03  0.7818608E-02  0.1051665E+00
         -2   -1    0    0    0  501 -0.00000000000E+00  0.00000000000E+00  0.44525345265E+03  0.44525345265E+03  0.25500000000E-02 0.  1.
          2   -1    0    0  501    0  0.00000000000E+00 -0.00000000000E+00 -0.30485485095E+04  0.30485485095E+04  0.25500000000E-02 0. -1.
    8880022    1    1    2    0    0 -0.31325089032E+03 -0.14624274163E+03  0.35073976089E+03  0.51567731446E+03  0.15294330000E+03 0.  1.
    8880022    1    1    2    0    0  0.31325089032E+03  0.14624274163E+03 -0.29540348178E+04  0.29781246477E+04  0.15294330000E+03 0.  0.
<mgrwt>
<rscale>  0 0.37802740E+03</rscale>
<asrwt>0</asrwt>
<pdfrwt beam="1">  1        2 0.46900745E+00 0.37802740E+03</pdfrwt>
<pdfrwt beam="2">  1       -2 0.68500533E-01 0.37802740E+03</pdfrwt>
<totfact> 0.37586533E+00</totfact>
</mgrwt>
</event>
<event>
 4    1  0.4880711E-008  0.7562755E+03  0.7818608E-02  0.9625556E-01
          2   -1    0    0  501    0  0.00000000000E+00  0.00000000000E+00  0.10695689535E+04  0.10695689535E+04  0.25500000000E-02 0. -1.
         -2   -1    0    0    0  501 -0.00000000000E+00 -0.00000000000E+00 -0.88294087853E+03  0.88294087853E+03  0.25500000000E-02 0.  1.
    8880022    1    1    2    0    0  0.41929395384E+03 -0.61053541260E+03 -0.51974992401E+03  0.91765600651E+03  0.15294330000E+03 0.  0.
    8880022    1    1    2    0    0 -0.41929395384E+03  0.61053541260E+03  0.70637799899E+03  0.10348538255E+04  0.15294330000E+03 0.  0.
<mgrwt>
<rscale>  0 0.75627545E+03</rscale>
<asrwt>0</asrwt>
<pdfrwt beam="1">  1        2 0.16454907E+00 0.75627545E+03</pdfrwt>
<pdfrwt beam="2">  1       -2 0.13583706E+00 0.75627545E+03</pdfrwt>
<totfact> 0.89930951E+00</totfact>
</mgrwt>
</event>
<event>
 4    1  0.4880711E-008  0.2558669E+03  0.7818608E-02  0.1109652E+00
          2   -1    0    0  501    0  0.00000000000E+00  0.00000000000E+00  0.34071229787E+03  0.34071229788E+03  0.25500000000E-02 0. -1.
         -2   -1    0    0    0  501 -0.00000000000E+00 -0.00000000000E+00 -0.47602626914E+03  0.47602626915E+03  0.25500000000E-02 0.  1.
    8880022    1    1    2    0    0  0.12263454969E+03  0.16442925738E+03  0.24769978257E+03  0.35612223851E+03  0.15294330000E+03 0.  0.
    8880022    1    1    2    0    0 -0.12263454969E+03 -0.16442925738E+03 -0.38301375384E+03  0.46061632853E+03  0.15294330000E+03 0.  0.
<mgrwt>
<rscale>  0 0.25586689E+03</rscale>
<asrwt>0</asrwt>
<pdfrwt beam="1">  1        2 0.52417277E-01 0.25586689E+03</pdfrwt>
<pdfrwt beam="2">  1       -2 0.73234810E-01 0.25586689E+03</pdfrwt>
<totfact> 0.16619029E+02</totfact>
</mgrwt>
</event>
<event>
 4    1  0.4880711E-008  0.2091009E+03  0.7818608E-02  0.1142280E+00
          2   -1    0    0  501    0  0.00000000000E+00  0.00000000000E+00  0.11802087035E+04  0.11802087035E+04  0.25500000000E-02 0. -1.
         -2   -1    0    0    0  501 -0.00000000000E+00 -0.00000000000E+00 -0.44491345826E+03  0.44491345826E+03  0.25500000000E-02 0.  1.
    8880022    1    1    2    0    0 -0.13463570402E+02  0.14195161435E+03  0.11456434113E+04  0.11645694515E+04  0.15294330000E+03 0. -1.
    8880022    1    1    2    0    0  0.13463570402E+02 -0.14195161435E+03 -0.41034816604E+03  0.46055271026E+03  0.15294330000E+03 0.  0.
<mgrwt>
<rscale>  0 0.20910089E+03</rscale>
<asrwt>0</asrwt>
<pdfrwt beam="1">  1        2 0.18157057E+00 0.20910089E+03</pdfrwt>
<pdfrwt beam="2">  1       -2 0.68448225E-01 0.20910089E+03</pdfrwt>
<totfact> 0.42524430E+01</totfact>
</mgrwt>
</event>
<event>
 4    1  0.4880711E-008  0.1882850E+03  0.7818608E-02  0.1160017E+00
         -2   -1    0    0    0  501 -0.00000000000E+00  0.00000000000E+00  0.15836308915E+03  0.15836308917E+03  0.25500000000E-02 0.  1.
          2   -1    0    0  501    0  0.00000000000E+00 -0.00000000000E+00 -0.43074302958E+03  0.43074302959E+03  0.25500000000E-02 0. -1.
    8880022    1    1    2    0    0  0.52839345855E+02  0.96268238428E+02 -0.34032448038E+03  0.38893698097E+03  0.15294330000E+03 0. -1.
    8880022    1    1    2    0    0 -0.52839345855E+02 -0.96268238428E+02  0.67944539957E+02  0.20016913779E+03  0.15294330000E+03 0.  0.
<mgrwt>
<rscale>  0 0.18828495E+03</rscale>
<asrwt>0</asrwt>
<pdfrwt beam="1">  1        2 0.66268158E-01 0.18828495E+03</pdfrwt>
<pdfrwt beam="2">  1       -2 0.24363552E-01 0.18828495E+03</pdfrwt>
<totfact> 0.10916544E+03</totfact>
</mgrwt>
</event>
<event>
 4    1  0.4880711E-008  0.2818104E+03  0.7818608E-02  0.1094704E+00
          2   -1    0    0  501    0  0.00000000000E+00  0.00000000000E+00  0.78026020679E+03  0.78026020679E+03  0.25500000000E-02 0. -1.
         -2   -1    0    0    0  501 -0.00000000000E+00 -0.00000000000E+00 -0.93843660150E+03  0.93843660151E+03  0.25500000000E-02 0.  1.
    8880022    1    1    2    0    0  0.19460832319E+03  0.13473333227E+03 -0.89049693841E+03  0.93402458245E+03  0.15294330000E+03 0.  0.
    8880022    1    1    2    0    0 -0.19460832319E+03 -0.13473333227E+03  0.73232054370E+03  0.78467222585E+03  0.15294330000E+03 0.  0.
<mgrwt>
<rscale>  0 0.28181044E+03</rscale>
<asrwt>0</asrwt>
<pdfrwt beam="1">  1        2 0.12004003E+00 0.28181044E+03</pdfrwt>
<pdfrwt beam="2">  1       -2 0.14437486E+00 0.28181044E+03</pdfrwt>
<totfact> 0.12981014E+01</totfact>
</mgrwt>
</event>
<event>
 4    1  0.4880711E-008  0.9900986E+03  0.7818608E-02  0.9319472E-01
          2   -1    0    0  501    0  0.00000000000E+00  0.00000000000E+00  0.20568334189E+04  0.20568334189E+04  0.25500000000E-02 0. -1.
         -2   -1    0    0    0  501 -0.00000000000E+00 -0.00000000000E+00 -0.59592999146E+03  0.59592999146E+03  0.25500000000E-02 0.  1.
    8880022    1    1    2    0    0  0.50707505041E+03  0.83652760245E+03  0.13239757213E+04  0.16532413315E+04  0.15294330000E+03 0.  0.
    8880022    1    1    2    0    0 -0.50707505041E+03 -0.83652760245E+03  0.13692770607E+03  0.99952207885E+03  0.15294330000E+03 0.  0.
<mgrwt>
<rscale>  0 0.99009858E+03</rscale>
<asrwt>0</asrwt>
<pdfrwt beam="1">  1        2 0.31643591E+00 0.99009858E+03</pdfrwt>
<pdfrwt beam="2">  1       -2 0.91681537E-01 0.99009858E+03</pdfrwt>
<totfact> 0.63087121E+00</totfact>
</mgrwt>
</event>
<event>
 4    1  0.4880711E-008  0.7204065E+03  0.7818608E-02  0.9682957E-01
         -2   -1    0    0    0  501 -0.00000000000E+00  0.00000000000E+00  0.33969157387E+03  0.33969157388E+03  0.25500000000E-02 0.  1.
          2   -1    0    0  501    0  0.00000000000E+00 -0.00000000000E+00 -0.21292452941E+04  0.21292452941E+04  0.25500000000E-02 0. -1.
    8880022    1    1    2    0    0  0.60826118402E+02 -0.70135158829E+03 -0.15508619614E+04  0.17100170594E+04  0.15294330000E+03 0.  0.
    8880022    1    1    2    0    0 -0.60826118402E+02  0.70135158829E+03 -0.23869175877E+03  0.75891980854E+03  0.15294330000E+03 0.  0.
<mgrwt>
<rscale>  0 0.72040650E+03</rscale>
<asrwt>0</asrwt>
<pdfrwt beam="1">  1        2 0.32757619E+00 0.72040650E+03</pdfrwt>
<pdfrwt beam="2">  1       -2 0.52260244E-01 0.72040650E+03</pdfrwt>
<totfact> 0.20363358E+01</totfact>
</mgrwt>
</event>
<event>
 4    1  0.4880711E-008  0.7540906E+03  0.7818608E-02  0.9628955E-01
         -2   -1    0    0    0  501 -0.00000000000E+00  0.00000000000E+00  0.10032360020E+04  0.10032360020E+04  0.25500000000E-02 0.  1.
          2   -1    0    0  501    0  0.00000000000E+00 -0.00000000000E+00 -0.87061675599E+03  0.87061675599E+03  0.25500000000E-02 0. -1.
    8880022    1    1    2    0    0  0.51463496726E+03  0.52953924024E+03  0.61976763265E+03  0.97609657717E+03  0.15294330000E+03 0.  0.
    8880022    1    1    2    0    0 -0.51463496726E+03 -0.52953924024E+03 -0.48714838668E+03  0.89775618078E+03  0.15294330000E+03 0.  0.
<mgrwt>
<rscale>  0 0.75409058E+03</rscale>
<asrwt>0</asrwt>
<pdfrwt beam="1">  1        2 0.13394104E+00 0.75409058E+03</pdfrwt>
<pdfrwt beam="2">  1       -2 0.15434400E+00 0.75409058E+03</pdfrwt>
<totfact> 0.86696838E+00</totfact>
</mgrwt>
</event>
<event>
 4    1  0.4880711E-008  0.3719875E+03  0.7818608E-02  0.1053936E+00
          2   -1    0    0  501    0  0.00000000000E+00  0.00000000000E+00  0.23817456311E+04  0.23817456311E+04  0.25500000000E-02 0. -1.
         -2   -1    0    0    0  501 -0.00000000000E+00 -0.00000000000E+00 -0.99881005397E+02  0.99881005430E+02  0.25500000000E-02 0.  1.
    8880022    1    1    2    0    0  0.28187570572E+03  0.18849178058E+03  0.19434686398E+04  0.19787483599E+04  0.15294330000E+03 0.  0.
    8880022    1    1    2    0    0 -0.28187570572E+03 -0.18849178058E+03  0.33839598585E+03  0.50287827660E+03  0.15294330000E+03 0.  0.
<mgrwt>
<rscale>  0 0.37198752E+03</rscale>
<asrwt>0</asrwt>
<pdfrwt beam="1">  1        2 0.36642239E+00 0.37198752E+03</pdfrwt>
<pdfrwt beam="2">  1       -2 0.15366309E-01 0.37198752E+03</pdfrwt>
<totfact> 0.14985154E+02</totfact>
</mgrwt>
</event>
<event>
 4    1  0.4880711E-008  0.5442210E+03  0.7818608E-02  0.1002840E+00
          2   -1    0    0  501    0  0.00000000000E+00  0.00000000000E+00  0.10317032019E+04  0.10317032019E+04  0.25500000000E-02 0. -1.
         -2   -1    0    0    0  501 -0.00000000000E+00 -0.00000000000E+00 -0.47165631663E+03  0.47165631664E+03  0.25500000000E-02 0.  1.
    8880022    1    1    2    0    0  0.51118338705E+03  0.10712775688E+03  0.75025697219E+03  0.92685596984E+03  0.15294330000E+03 0.  0.
    8880022    1    1    2    0    0 -0.51118338705E+03 -0.10712775688E+03 -0.19021008692E+03  0.57650354870E+03  0.15294330000E+03 0.  0.
<mgrwt>
<rscale>  0 0.54422097E+03</rscale>
<asrwt>0</asrwt>
<pdfrwt beam="1">  1        2 0.15872357E+00 0.54422097E+03</pdfrwt>
<pdfrwt beam="2">  1       -2 0.72562511E-01 0.54422097E+03</pdfrwt>
<totfact> 0.42896133E+01</totfact>
</mgrwt>
</event>
<event>
 4    1  0.4880711E-008  0.5127500E+03  0.7818608E-02  0.1010504E+00
          2   -1    0    0  501    0  0.00000000000E+00  0.00000000000E+00  0.27239403156E+04  0.27239403156E+04  0.25500000000E-02 0. -1.
         -2   -1    0    0    0  501 -0.00000000000E+00 -0.00000000000E+00 -0.41812791362E+03  0.41812791363E+03  0.25500000000E-02 0.  1.
    8880022    1    1    2    0    0 -0.65792033260E+02 -0.48496631639E+03  0.25307339608E+04  0.25821554858E+04  0.15294330000E+03 0.  0.
    8880022    1    1    2    0    0  0.65792033260E+02  0.48496631639E+03 -0.22492155876E+03  0.55991274345E+03  0.15294330000E+03 0.  0.
<mgrwt>
<rscale>  0 0.51275001E+03</rscale>
<asrwt>0</asrwt>
<pdfrwt beam="1">  1        2 0.41906773E+00 0.51275001E+03</pdfrwt>
<pdfrwt beam="2">  1       -2 0.64327373E-01 0.51275001E+03</pdfrwt>
<totfact> 0.63876053E+00</totfact>
</mgrwt>
</event>
<event>
 4    1  0.4880711E-008  0.2289188E+03  0.7818608E-02  0.1127403E+00
         -2   -1    0    0    0  501 -0.00000000000E+00  0.00000000000E+00  0.23173112512E+03  0.23173112513E+03  0.25500000000E-02 0.  1.
          2   -1    0    0  501    0  0.00000000000E+00 -0.00000000000E+00 -0.20824200819E+04  0.20824200819E+04  0.25500000000E-02 0. -1.
    8880022    1    1    2    0    0  0.16247176399E+03  0.51137741899E+02 -0.20177886634E+04  0.20307325983E+04  0.15294330000E+03 0. -1.
    8880022    1    1    2    0    0 -0.16247176399E+03 -0.51137741899E+02  0.16709970667E+03  0.28341860865E+03  0.15294330000E+03 0.  0.
<mgrwt>
<rscale>  0 0.22891875E+03</rscale>
<asrwt>0</asrwt>
<pdfrwt beam="1">  1        2 0.32037231E+00 0.22891875E+03</pdfrwt>
<pdfrwt beam="2">  1       -2 0.35650944E-01 0.22891875E+03</pdfrwt>
<totfact> 0.51309743E+01</totfact>
</mgrwt>
</event>
<event>
 4    1  0.5091974E-008  0.6317576E+03  0.7818608E-02  0.9841625E-01
         -2   -1    0    0    0  501 -0.00000000000E+00  0.00000000000E+00  0.11318117073E+04  0.11318117073E+04  0.25500000000E-02 0.  1.
          2   -1    0    0  501    0  0.00000000000E+00 -0.00000000000E+00 -0.10976459660E+04  0.10976459660E+04  0.25500000000E-02 0. -1.
    8880022    1    1    2    0    0  0.57401023105E+03 -0.21503090322E+03 -0.90129011364E+03  0.11006550580E+04  0.15294330000E+03 0.  0.
    8880022    1    1    2    0    0 -0.57401023105E+03  0.21503090322E+03  0.93545585492E+03  0.11288026153E+04  0.15294330000E+03 0.  0.
<mgrwt>
<rscale>  0 0.63175762E+03</rscale>
<asrwt>0</asrwt>
<pdfrwt beam="1">  1        2 0.16886861E+00 0.63175762E+03</pdfrwt>
<pdfrwt beam="2">  1       -2 0.17412488E+00 0.63175762E+03</pdfrwt>
<totfact> 0.45348627E+00</totfact>
</mgrwt>
</event>
<event>
 4    1  0.4880711E-008  0.5200540E+03  0.7818608E-02  0.1008673E+00
         -2   -1    0    0    0  501 -0.00000000000E+00  0.00000000000E+00  0.20203788599E+03  0.20203788600E+03  0.25500000000E-02 0.  1.
          2   -1    0    0  501    0  0.00000000000E+00 -0.00000000000E+00 -0.17333382184E+04  0.17333382184E+04  0.25500000000E-02 0. -1.
    8880022    1    1    2    0    0  0.47646423154E+03  0.14158525641E+03 -0.12274201980E+04  0.13330478402E+04  0.15294330000E+03 0. -1.
    8880022    1    1    2    0    0 -0.47646423154E+03 -0.14158525641E+03 -0.30388013443E+03  0.60232826423E+03  0.15294330000E+03 0.  0.
<mgrwt>
<rscale>  0 0.52005404E+03</rscale>
<asrwt>0</asrwt>
<pdfrwt beam="1">  1        2 0.26666741E+00 0.52005404E+03</pdfrwt>
<pdfrwt beam="2">  1       -2 0.31082753E-01 0.52005404E+03</pdfrwt>
<totfact> 0.94674712E+01</totfact>
</mgrwt>
</event>
<event>
 4    1  0.4880711E-008  0.4293159E+03  0.7818608E-02  0.1034076E+00
         -2   -1    0    0    0  501 -0.00000000000E+00  0.00000000000E+00  0.16082564355E+03  0.16082564357E+03  0.25500000000E-02 0.  1.
          2   -1    0    0  501    0  0.00000000000E+00 -0.00000000000E+00 -0.31278841578E+04  0.31278841578E+04  0.25500000000E-02 0. -1.
    8880022    1    1    2    0    0  0.30650913947E+03  0.25879077273E+03 -0.17463282360E+03  0.46347469480E+03  0.15294330000E+03 0.  0.
    8880022    1    1    2    0    0 -0.30650913947E+03 -0.25879077273E+03 -0.27924256906E+04  0.28252351066E+04  0.15294330000E+03 0.  0.
<mgrwt>
<rscale>  0 0.42931593E+03</rscale>
<asrwt>0</asrwt>
<pdfrwt beam="1">  1        2 0.48121290E+00 0.42931593E+03</pdfrwt>
<pdfrwt beam="2">  1       -2 0.24742409E-01 0.42931593E+03</pdfrwt>
<totfact> 0.24046625E+01</totfact>
</mgrwt>
</event>
<event>
 4    1  0.4880711E-008  0.3813182E+03  0.7818608E-02  0.1050448E+00
          2   -1    0    0  501    0  0.00000000000E+00  0.00000000000E+00  0.29982714349E+04  0.29982714349E+04  0.25500000000E-02 0. -1.
         -2   -1    0    0    0  501 -0.00000000000E+00 -0.00000000000E+00 -0.35373784003E+03  0.35373784004E+03  0.25500000000E-02 0.  1.
    8880022    1    1    2    0    0 -0.26890184846E+03 -0.22294326035E+03 -0.23461855963E+03  0.44771578371E+03  0.15294330000E+03 0.  0.
    8880022    1    1    2    0    0  0.26890184846E+03  0.22294326035E+03  0.28791521545E+04  0.29042934912E+04  0.15294330000E+03 0. -1.
<mgrwt>
<rscale>  0 0.38131818E+03</rscale>
<asrwt>0</asrwt>
<pdfrwt beam="1">  1        2 0.46127252E+00 0.38131818E+03</pdfrwt>
<pdfrwt beam="2">  1       -2 0.54421208E-01 0.38131818E+03</pdfrwt>
<totfact> 0.65226116E+00</totfact>
</mgrwt>
</event>
<event>
 4    1  0.4880711E-008  0.9126084E+03  0.7818608E-02  0.9409956E-01
          2   -1    0    0  501    0  0.00000000000E+00  0.00000000000E+00  0.17470506666E+04  0.17470506666E+04  0.25500000000E-02 0. -1.
         -2   -1    0    0    0  501 -0.00000000000E+00 -0.00000000000E+00 -0.11885945004E+04  0.11885945004E+04  0.25500000000E-02 0.  1.
    8880022    1    1    2    0    0 -0.85094399709E+03  0.29215864580E+03  0.14151760066E+04  0.16839172020E+04  0.15294330000E+03 0.  0.
    8880022    1    1    2    0    0  0.85094399709E+03 -0.29215864580E+03 -0.85671984038E+03  0.12517279650E+04  0.15294330000E+03 0.  0.
<mgrwt>
<rscale>  0 0.91260836E+03</rscale>
<asrwt>0</asrwt>
<pdfrwt beam="1">  1        2 0.26877702E+00 0.91260836E+03</pdfrwt>
<pdfrwt beam="2">  1       -2 0.18286069E+00 0.91260836E+03</pdfrwt>
<totfact> 0.16120019E+00</totfact>
</mgrwt>
</event>
<event>
 4    1  0.4880711E-008  0.4588738E+03  0.7818608E-02  0.1025108E+00
          2   -1    0    0  501    0  0.00000000000E+00  0.00000000000E+00  0.70507862479E+03  0.70507862480E+03  0.25500000000E-02 0. -1.
         -2   -1    0    0    0  501 -0.00000000000E+00 -0.00000000000E+00 -0.10956104893E+04  0.10956104893E+04  0.25500000000E-02 0.  1.
    8880022    1    1    2    0    0 -0.43006439980E+03 -0.47096990374E+02 -0.96316048123E+03  0.10668848486E+04  0.15294330000E+03 0.  0.
    8880022    1    1    2    0    0  0.43006439980E+03  0.47096990374E+02  0.57262861670E+03  0.73380426556E+03  0.15294330000E+03 0.  0.
<mgrwt>
<rscale>  0 0.45887380E+03</rscale>
<asrwt>0</asrwt>
<pdfrwt beam="1">  1        2 0.10847363E+00 0.45887380E+03</pdfrwt>
<pdfrwt beam="2">  1       -2 0.16855546E+00 0.45887380E+03</pdfrwt>
<totfact> 0.93964288E+00</totfact>
</mgrwt>
</event>
<event>
 4    1  0.4880711E-008  0.2792933E+03  0.7818608E-02  0.1096076E+00
          2   -1    0    0  501    0  0.00000000000E+00  0.00000000000E+00  0.14001151039E+04  0.14001151039E+04  0.25500000000E-02 0. -1.
         -2   -1    0    0    0  501 -0.00000000000E+00 -0.00000000000E+00 -0.11401203170E+03  0.11401203173E+03  0.25500000000E-02 0.  1.
    8880022    1    1    2    0    0  0.16069289093E+03  0.16967879575E+03  0.10169011279E+03  0.29722992948E+03  0.15294330000E+03 0.  0.
    8880022    1    1    2    0    0 -0.16069289093E+03 -0.16967879575E+03  0.11844129594E+04  0.12168972061E+04  0.15294330000E+03 0.  0.
<mgrwt>
<rscale>  0 0.27929331E+03</rscale>
<asrwt>0</asrwt>
<pdfrwt beam="1">  1        2 0.21540234E+00 0.27929331E+03</pdfrwt>
<pdfrwt beam="2">  1       -2 0.17540311E-01 0.27929331E+03</pdfrwt>
<totfact> 0.40842022E+02</totfact>
</mgrwt>
</event>
<event>
 4    1  0.4880711E-008  0.4653281E+03  0.7818608E-02  0.1023247E+00
         -2   -1    0    0    0  501 -0.00000000000E+00  0.00000000000E+00  0.24922643535E+03  0.24922643536E+03  0.25500000000E-02 0.  1.
          2   -1    0    0  501    0  0.00000000000E+00 -0.00000000000E+00 -0.99606091039E+03  0.99606091040E+03  0.25500000000E-02 0. -1.
    8880022    1    1    2    0    0  0.43947504625E+03 -0.47820760662E+00 -0.15086672676E+03  0.48917375974E+03  0.15294330000E+03 0.  0.
    8880022    1    1    2    0    0 -0.43947504625E+03  0.47820760662E+00 -0.59596774828E+03  0.75611358602E+03  0.15294330000E+03 0.  0.
<mgrwt>
<rscale>  0 0.46532805E+03</rscale>
<asrwt>0</asrwt>
<pdfrwt beam="1">  1        2 0.15324014E+00 0.46532805E+03</pdfrwt>
<pdfrwt beam="2">  1       -2 0.38342529E-01 0.46532805E+03</pdfrwt>
<totfact> 0.16828052E+02</totfact>
</mgrwt>
</event>
<event>
 4    1  0.4880711E-008  0.2069168E+03  0.7818608E-02  0.1144031E+00
          2   -1    0    0  501    0  0.00000000000E+00  0.00000000000E+00  0.19244508087E+04  0.19244508087E+04  0.25500000000E-02 0. -1.
         -2   -1    0    0    0  501 -0.00000000000E+00 -0.00000000000E+00 -0.31784605074E+03  0.31784605075E+03  0.25500000000E-02 0.  1.
    8880022    1    1    2    0    0 -0.51640759059E+02  0.12944544384E+03  0.18845016134E+04  0.18958272270E+04  0.15294330000E+03 0.  0.
    8880022    1    1    2    0    0  0.51640759059E+02 -0.12944544384E+03 -0.27789685541E+03  0.34646963242E+03  0.15294330000E+03 0.  1.
<mgrwt>
<rscale>  0 0.20691676E+03</rscale>
<asrwt>0</asrwt>
<pdfrwt beam="1">  1        2 0.29606936E+00 0.20691676E+03</pdfrwt>
<pdfrwt beam="2">  1       -2 0.48899392E-01 0.20691676E+03</pdfrwt>
<totfact> 0.34093658E+01</totfact>
</mgrwt>
</event>
<event>
 4    1  0.4880711E-008  0.5725842E+03  0.7818608E-02  0.9963977E-01
         -2   -1    0    0    0  501 -0.00000000000E+00  0.00000000000E+00  0.19827666035E+03  0.19827666037E+03  0.25500000000E-02 0.  1.
          2   -1    0    0  501    0  0.00000000000E+00 -0.00000000000E+00 -0.27083620009E+04  0.27083620009E+04  0.25500000000E-02 0. -1.
    8880022    1    1    2    0    0 -0.55169757692E+03 -0.95259583756E+01 -0.34805103770E+03  0.67006875626E+03  0.15294330000E+03 0.  0.
    8880022    1    1    2    0    0  0.55169757692E+03  0.95259583756E+01 -0.21620343028E+04  0.22365699050E+04  0.15294330000E+03 0.  0.
<mgrwt>
<rscale>  0 0.57258415E+03</rscale>
<asrwt>0</asrwt>
<pdfrwt beam="1">  1        2 0.41667105E+00 0.57258415E+03</pdfrwt>
<pdfrwt beam="2">  1       -2 0.30504103E-01 0.57258415E+03</pdfrwt>
<totfact> 0.28229219E+01</totfact>
</mgrwt>
</event>
<event>
 4    1  0.4880711E-008  0.2931888E+03  0.7818608E-02  0.1088696E+00
         -2   -1    0    0    0  501 -0.00000000000E+00  0.00000000000E+00  0.19868069099E+03  0.19868069101E+03  0.25500000000E-02 0.  1.
          2   -1    0    0  501    0  0.00000000000E+00 -0.00000000000E+00 -0.12297386173E+04  0.12297386173E+04  0.25500000000E-02 0. -1.
    8880022    1    1    2    0    0  0.16025459465E+02  0.24962209910E+03  0.59476517184E+02  0.29916068729E+03  0.15294330000E+03 0.  1.
    8880022    1    1    2    0    0 -0.16025459465E+02 -0.24962209910E+03 -0.10905344435E+04  0.11292586210E+04  0.15294330000E+03 0.  0.
<mgrwt>
<rscale>  0 0.29318878E+03</rscale>
<asrwt>0</asrwt>
<pdfrwt beam="1">  1        2 0.18919055E+00 0.29318878E+03</pdfrwt>
<pdfrwt beam="2">  1       -2 0.30566261E-01 0.29318878E+03</pdfrwt>
<totfact> 0.19104768E+02</totfact>
</mgrwt>
</event>
<event>
 4    1  0.4880711E-008  0.8966665E+03  0.7818608E-02  0.9429758E-01
          2   -1    0    0  501    0  0.00000000000E+00  0.00000000000E+00  0.29192706362E+04  0.29192706362E+04  0.25500000000E-02 0. -1.
         -2   -1    0    0    0  501 -0.00000000000E+00 -0.00000000000E+00 -0.39916200674E+03  0.39916200675E+03  0.25500000000E-02 0.  1.
    8880022    1    1    2    0    0 -0.78086773211E+03  0.41335793495E+03  0.21838922829E+04  0.23608041753E+04  0.15294330000E+03 0.  0.
    8880022    1    1    2    0    0  0.78086773211E+03 -0.41335793495E+03  0.33621634653E+03  0.95762846769E+03  0.15294330000E+03 0.  0.
<mgrwt>
<rscale>  0 0.89666652E+03</rscale>
<asrwt>0</asrwt>
<pdfrwt beam="1">  1        2 0.44911856E+00 0.89666652E+03</pdfrwt>
<pdfrwt beam="2">  1       -2 0.61409540E-01 0.89666652E+03</pdfrwt>
<totfact> 0.49953035E+00</totfact>
</mgrwt>
</event>
<event>
 4    1  0.4880711E-008  0.2688827E+03  0.7818608E-02  0.1101921E+00
          2   -1    0    0  501    0  0.00000000000E+00  0.00000000000E+00  0.76544052375E+03  0.76544052376E+03  0.25500000000E-02 0. -1.
         -2   -1    0    0    0  501 -0.00000000000E+00 -0.00000000000E+00 -0.12652577650E+03  0.12652577653E+03  0.25500000000E-02 0.  1.
    8880022    1    1    2    0    0 -0.98304355537E+02 -0.19809721856E+03  0.94914433921E+02  0.28514322208E+03  0.15294330000E+03 0.  0.
    8880022    1    1    2    0    0  0.98304355537E+02  0.19809721856E+03  0.54400031333E+03  0.60682307820E+03  0.15294330000E+03 0.  0.
<mgrwt>
<rscale>  0 0.26888270E+03</rscale>
<asrwt>0</asrwt>
<pdfrwt beam="1">  1        2 0.11776008E+00 0.26888270E+03</pdfrwt>
<pdfrwt beam="2">  1       -2 0.19465504E-01 0.26888270E+03</pdfrwt>
<totfact> 0.82897172E+02</totfact>
</mgrwt>
</event>
<event>
 4    1  0.4880711E-008  0.5203872E+03  0.7818608E-02  0.1008590E+00
          2   -1    0    0  501    0  0.00000000000E+00  0.00000000000E+00  0.46616093666E+03  0.46616093666E+03  0.25500000000E-02 0. -1.
         -2   -1    0    0    0  501 -0.00000000000E+00 -0.00000000000E+00 -0.93363970750E+03  0.93363970750E+03  0.25500000000E-02 0.  1.
    8880022    1    1    2    0    0 -0.51065145448E+02 -0.49477624869E+03  0.19645087252E+03  0.55623356936E+03  0.15294330000E+03 0. -1.
    8880022    1    1    2    0    0  0.51065145448E+02  0.49477624869E+03 -0.66392964336E+03  0.84356707481E+03  0.15294330000E+03 0.  0.
<mgrwt>
<rscale>  0 0.52038720E+03</rscale>
<asrwt>0</asrwt>
<pdfrwt beam="1">  1        2 0.71717067E-01 0.52038720E+03</pdfrwt>
<pdfrwt beam="2">  1       -2 0.14363688E+00 0.52038720E+03</pdfrwt>
<totfact> 0.23243738E+01</totfact>
</mgrwt>
</event>
<event>
 4    1  0.4880711E-008  0.6065253E+03  0.7818608E-02  0.9891960E-01
          2   -1    0    0  501    0  0.00000000000E+00  0.00000000000E+00  0.23607360464E+04  0.23607360464E+04  0.25500000000E-02 0. -1.
         -2   -1    0    0    0  501 -0.00000000000E+00 -0.00000000000E+00 -0.16664076562E+03  0.16664076564E+03  0.25500000000E-02 0.  1.
    8880022    1    1    2    0    0 -0.28094110214E+03  0.51531869423E+03  0.77517609631E+03  0.98426159775E+03  0.15294330000E+03 0.  0.
    8880022    1    1    2    0    0  0.28094110214E+03 -0.51531869423E+03  0.14189191844E+04  0.15431152143E+04  0.15294330000E+03 0.  0.
<mgrwt>
<rscale>  0 0.60652528E+03</rscale>
<asrwt>0</asrwt>
<pdfrwt beam="1">  1        2 0.36319015E+00 0.60652528E+03</pdfrwt>
<pdfrwt beam="2">  1       -2 0.25637042E-01 0.60652528E+03</pdfrwt>
<totfact> 0.60629650E+01</totfact>
</mgrwt>
</event>
<event>
 4    1  0.4880711E-008  0.3875003E+03  0.7818608E-02  0.1048196E+00
         -2   -1    0    0    0  501 -0.00000000000E+00  0.00000000000E+00  0.13000970998E+04  0.13000970998E+04  0.25500000000E-02 0.  1.
          2   -1    0    0  501    0  0.00000000000E+00 -0.00000000000E+00 -0.78232600823E+03  0.78232600823E+03  0.25500000000E-02 0. -1.
    8880022    1    1    2    0    0  0.35488987159E+03 -0.28600309092E+02 -0.70240031108E+03  0.80219863416E+03  0.15294330000E+03 0.  0.
    8880022    1    1    2    0    0 -0.35488987159E+03  0.28600309092E+02  0.12201714026E+04  0.12802244739E+04  0.15294330000E+03 0.  0.
<mgrwt>
<rscale>  0 0.38750026E+03</rscale>
<asrwt>0</asrwt>
<pdfrwt beam="1">  1        2 0.12035785E+00 0.38750026E+03</pdfrwt>
<pdfrwt beam="2">  1       -2 0.20001494E+00 0.38750026E+03</pdfrwt>
<totfact> 0.51523498E+00</totfact>
</mgrwt>
</event>
<event>
 4    1  0.4880711E-008  0.3981921E+03  0.7818608E-02  0.1044408E+00
          2   -1    0    0  501    0  0.00000000000E+00  0.00000000000E+00  0.10970584866E+04  0.10970584866E+04  0.25500000000E-02 0. -1.
         -2   -1    0    0    0  501 -0.00000000000E+00 -0.00000000000E+00 -0.30130635494E+03  0.30130635495E+03  0.25500000000E-02 0.  1.
    8880022    1    1    2    0    0  0.27822095568E+02 -0.36659404679E+03  0.90222119442E+03  0.98618456732E+03  0.15294330000E+03 0.  0.
    8880022    1    1    2    0    0 -0.27822095568E+02  0.36659404679E+03 -0.10646906274E+03  0.41218027425E+03  0.15294330000E+03 0.  0.
<mgrwt>
<rscale>  0 0.39819206E+03</rscale>
<asrwt>0</asrwt>
<pdfrwt beam="1">  1        2 0.16877823E+00 0.39819206E+03</pdfrwt>
<pdfrwt beam="2">  1       -2 0.46354824E-01 0.39819206E+03</pdfrwt>
<totfact> 0.10155223E+02</totfact>
</mgrwt>
</event>
<event>
 4    1  0.4880711E-008  0.7301028E+03  0.7818608E-02  0.9667094E-01
         -2   -1    0    0    0  501 -0.00000000000E+00  0.00000000000E+00  0.11835869016E+04  0.11835869016E+04  0.25500000000E-02 0.  1.
          2   -1    0    0  501    0  0.00000000000E+00 -0.00000000000E+00 -0.13809583821E+04  0.13809583821E+04  0.25500000000E-02 0. -1.
    8880022    1    1    2    0    0 -0.31029046603E+03 -0.64294496634E+03  0.95392860422E+03  0.12012617691E+04  0.15294330000E+03 0.  0.
    8880022    1    1    2    0    0  0.31029046603E+03  0.64294496634E+03 -0.11513000847E+04  0.13632835145E+04  0.15294330000E+03 0.  0.
<mgrwt>
<rscale>  0 0.73010277E+03</rscale>
<asrwt>0</asrwt>
<pdfrwt beam="1">  1        2 0.21245514E+00 0.73010277E+03</pdfrwt>
<pdfrwt beam="2">  1       -2 0.18209029E+00 0.73010277E+03</pdfrwt>
<totfact> 0.26835221E+00</totfact>
</mgrwt>
</event>
<event>
 4    1  0.4880711E-008  0.2766875E+03  0.7818608E-02  0.1097512E+00
         -2   -1    0    0    0  501 -0.00000000000E+00  0.00000000000E+00  0.61499748431E+03  0.61499748432E+03  0.25500000000E-02 0.  1.
          2   -1    0    0  501    0  0.00000000000E+00 -0.00000000000E+00 -0.15711093510E+03  0.15711093512E+03  0.25500000000E-02 0. -1.
    8880022    1    1    2    0    0 -0.20761437498E+03 -0.10030248456E+03  0.53009944311E+02  0.28171976203E+03  0.15294330000E+03 0. -1.
    8880022    1    1    2    0    0  0.20761437498E+03  0.10030248456E+03  0.40487660490E+03  0.49038865741E+03  0.15294330000E+03 0.  0.
<mgrwt>
<rscale>  0 0.27668750E+03</rscale>
<asrwt>0</asrwt>
<pdfrwt beam="1">  1        2 0.24170913E-01 0.27668750E+03</pdfrwt>
<pdfrwt beam="2">  1       -2 0.94614999E-01 0.27668750E+03</pdfrwt>
<totfact> 0.21888506E+02</totfact>
</mgrwt>
</event>
<event>
 4    1  0.4880711E-008  0.6549128E+03  0.7818608E-02  0.9797604E-01
          2   -1    0    0  501    0  0.00000000000E+00  0.00000000000E+00  0.68353041572E+03  0.68353041572E+03  0.25500000000E-02 0. -1.
         -2   -1    0    0    0  501 -0.00000000000E+00 -0.00000000000E+00 -0.13732340980E+04  0.13732340980E+04  0.25500000000E-02 0.  1.
    8880022    1    1    2    0    0 -0.52296017049E+03 -0.36336178267E+03 -0.11026895790E+04  0.12825112419E+04  0.15294330000E+03 0.  0.
    8880022    1    1    2    0    0  0.52296017049E+03  0.36336178267E+03  0.41298589669E+03  0.77425327181E+03  0.15294330000E+03 0.  0.
<mgrwt>
<rscale>  0 0.65491280E+03</rscale>
<asrwt>0</asrwt>
<pdfrwt beam="1">  1        2 0.10515853E+00 0.65491280E+03</pdfrwt>
<pdfrwt beam="2">  1       -2 0.21126678E+00 0.65491280E+03</pdfrwt>
<totfact> 0.49180861E+00</totfact>
</mgrwt>
</event>
<event>
 4    1  0.4880711E-008  0.3250315E+03  0.7818608E-02  0.1073357E+00
         -2   -1    0    0    0  501 -0.00000000000E+00  0.00000000000E+00  0.36930447970E+03  0.36930447971E+03  0.25500000000E-02 0.  1.
          2   -1    0    0  501    0  0.00000000000E+00 -0.00000000000E+00 -0.14613268508E+04  0.14613268508E+04  0.25500000000E-02 0. -1.
    8880022    1    1    2    0    0  0.82920892605E+02  0.27455044167E+03  0.27483982899E+03  0.42565526435E+03  0.15294330000E+03 0.  0.
    8880022    1    1    2    0    0 -0.82920892605E+02 -0.27455044167E+03 -0.13668622001E+04  0.14049760662E+04  0.15294330000E+03 0.  0.
<mgrwt>
<rscale>  0 0.32503149E+03</rscale>
<asrwt>0</asrwt>
<pdfrwt beam="1">  1        2 0.22481951E+00 0.32503149E+03</pdfrwt>
<pdfrwt beam="2">  1       -2 0.56816075E-01 0.32503149E+03</pdfrwt>
<totfact> 0.42429360E+01</totfact>
</mgrwt>
</event>
<event>
 4    1  0.4880711E-008  0.8309206E+03  0.7818608E-02  0.9516309E-01
         -2   -1    0    0    0  501 -0.00000000000E+00  0.00000000000E+00  0.44365652703E+03  0.44365652704E+03  0.25500000000E-02 0.  1.
          2   -1    0    0  501    0  0.00000000000E+00 -0.00000000000E+00 -0.22493974675E+04  0.22493974675E+04  0.25500000000E-02 0. -1.
    8880022    1    1    2    0    0 -0.38156555990E+03  0.72211161081E+03 -0.15538490954E+03  0.84532454010E+03  0.15294330000E+03 0.  0.
    8880022    1    1    2    0    0  0.38156555990E+03 -0.72211161081E+03 -0.16503560309E+04  0.18477294544E+04  0.15294330000E+03 0.  0.
<mgrwt>
<rscale>  0 0.83092064E+03</rscale>
<asrwt>0</asrwt>
<pdfrwt beam="1">  1        2 0.34606114E+00 0.83092064E+03</pdfrwt>
<pdfrwt beam="2">  1       -2 0.68254852E-01 0.83092064E+03</pdfrwt>
<totfact> 0.97887856E+00</totfact>
</mgrwt>
</event>
<event>
 4    1  0.4880711E-008  0.2698514E+03  0.7818608E-02  0.1101365E+00
          2   -1    0    0  501    0  0.00000000000E+00  0.00000000000E+00  0.61264658227E+03  0.61264658227E+03  0.25500000000E-02 0. -1.
         -2   -1    0    0    0  501 -0.00000000000E+00 -0.00000000000E+00 -0.52237244968E+03  0.52237244969E+03  0.25500000000E-02 0.  1.
    8880022    1    1    2    0    0 -0.93186216039E+02  0.20185258469E+03  0.54391926297E+03  0.60718033108E+03  0.15294330000E+03 0.  0.
    8880022    1    1    2    0    0  0.93186216039E+02 -0.20185258469E+03 -0.45364513039E+03  0.52783870088E+03  0.15294330000E+03 0.  0.
<mgrwt>
<rscale>  0 0.26985142E+03</rscale>
<asrwt>0</asrwt>
<pdfrwt beam="1">  1        2 0.94253320E-01 0.26985142E+03</pdfrwt>
<pdfrwt beam="2">  1       -2 0.80364992E-01 0.26985142E+03</pdfrwt>
<totfact> 0.70329739E+01</totfact>
</mgrwt>
</event>
<event>
 4    1  0.4880711E-008  0.9678270E+03  0.7818608E-02  0.9344553E-01
         -2   -1    0    0    0  501 -0.00000000000E+00  0.00000000000E+00  0.35929709956E+03  0.35929709957E+03  0.25500000000E-02 0.  1.
          2   -1    0    0  501    0  0.00000000000E+00 -0.00000000000E+00 -0.33657516180E+04  0.33657516180E+04  0.25500000000E-02 0. -1.
    8880022    1    1    2    0    0 -0.48244314576E+03 -0.82495215828E+03 -0.61890715832E+03  0.11487972737E+04  0.15294330000E+03 0.  0.
    8880022    1    1    2    0    0  0.48244314576E+03  0.82495215828E+03 -0.23875473602E+04  0.25762514439E+04  0.15294330000E+03 0.  0.
<mgrwt>
<rscale>  0 0.96782700E+03</rscale>
<asrwt>0</asrwt>
<pdfrwt beam="1">  1        2 0.51780792E+00 0.96782700E+03</pdfrwt>
<pdfrwt beam="2">  1       -2 0.55276479E-01 0.96782700E+03</pdfrwt>
<totfact> 0.32132982E+00</totfact>
</mgrwt>
</event>
<event>
 4    1  0.4880711E-008  0.6499941E+03  0.7818608E-02  0.9806790E-01
         -2   -1    0    0    0  501 -0.00000000000E+00  0.00000000000E+00  0.44361411252E+03  0.44361411253E+03  0.25500000000E-02 0.  1.
          2   -1    0    0  501    0  0.00000000000E+00 -0.00000000000E+00 -0.18510114763E+04  0.18510114763E+04  0.25500000000E-02 0. -1.
    8880022    1    1    2    0    0 -0.54567326273E+03  0.31834161688E+03 -0.15031028057E+04  0.16376233976E+04  0.15294330000E+03 0.  0.
    8880022    1    1    2    0    0  0.54567326273E+03 -0.31834161688E+03  0.95705441936E+02  0.65700219126E+03  0.15294330000E+03 0.  0.
<mgrwt>
<rscale>  0 0.64999411E+03</rscale>
<asrwt>0</asrwt>
<pdfrwt beam="1">  1        2 0.28477099E+00 0.64999411E+03</pdfrwt>
<pdfrwt beam="2">  1       -2 0.68248326E-01 0.64999411E+03</pdfrwt>
<totfact> 0.16622421E+01</totfact>
</mgrwt>
</event>
<event>
 4    1  0.4880711E-008  0.2762385E+03  0.7818608E-02  0.1097761E+00
          2   -1    0    0  501    0  0.00000000000E+00  0.00000000000E+00  0.13617098644E+04  0.13617098644E+04  0.25500000000E-02 0. -1.
         -2   -1    0    0    0  501 -0.00000000000E+00 -0.00000000000E+00 -0.93175509380E+02  0.93175509415E+02  0.25500000000E-02 0.  1.
    8880022    1    1    2    0    0  0.22886028966E+03 -0.23216299488E+02  0.17501260396E+03  0.32701237485E+03  0.15294330000E+03 0.  0.
    8880022    1    1    2    0    0 -0.22886028966E+03  0.23216299488E+02  0.10935217510E+04  0.11278729989E+04  0.15294330000E+03 0.  0.
<mgrwt>
<rscale>  0 0.27623845E+03</rscale>
<asrwt>0</asrwt>
<pdfrwt beam="1">  1        2 0.20949379E+00 0.27623845E+03</pdfrwt>
<pdfrwt beam="2">  1       -2 0.14334696E-01 0.27623845E+03</pdfrwt>
<totfact> 0.60072362E+02</totfact>
</mgrwt>
</event>
<event>
 4    1  0.4880711E-008  0.4631102E+03  0.7818608E-02  0.1023883E+00
          2   -1    0    0  501    0  0.00000000000E+00  0.00000000000E+00  0.23127094615E+04  0.23127094615E+04  0.25500000000E-02 0. -1.
         -2   -1    0    0    0  501 -0.00000000000E+00 -0.00000000000E+00 -0.29418964983E+03  0.29418964984E+03  0.25500000000E-02 0.  1.
    8880022    1    1    2    0    0 -0.39192751247E+03  0.19357740911E+03  0.20878794428E+04  0.21386237652E+04  0.15294330000E+03 0.  0.
    8880022    1    1    2    0    0  0.39192751247E+03 -0.19357740911E+03 -0.69359631146E+02  0.46827534613E+03  0.15294330000E+03 0.  0.
<mgrwt>
<rscale>  0 0.46311018E+03</rscale>
<asrwt>0</asrwt>
<pdfrwt beam="1">  1        2 0.35580146E+00 0.46311018E+03</pdfrwt>
<pdfrwt beam="2">  1       -2 0.45259945E-01 0.46311018E+03</pdfrwt>
<totfact> 0.22663694E+01</totfact>
</mgrwt>
</event>
<event>
 4    1  0.4880711E-008  0.3316123E+03  0.7818608E-02  0.1070426E+00
          2   -1    0    0  501    0  0.00000000000E+00  0.00000000000E+00  0.10606862644E+04  0.10606862644E+04  0.25500000000E-02 0. -1.
         -2   -1    0    0    0  501 -0.00000000000E+00 -0.00000000000E+00 -0.18101223809E+03  0.18101223811E+03  0.25500000000E-02 0.  1.
    8880022    1    1    2    0    0  0.11949576071E+03 -0.26887878156E+03  0.84565044215E+03  0.90834539649E+03  0.15294330000E+03 0.  0.
    8880022    1    1    2    0    0 -0.11949576071E+03  0.26887878156E+03  0.34023584146E+02  0.33335310602E+03  0.15294330000E+03 0.  0.
<mgrwt>
<rscale>  0 0.33161226E+03</rscale>
<asrwt>0</asrwt>
<pdfrwt beam="1">  1        2 0.16318250E+00 0.33161226E+03</pdfrwt>
<pdfrwt beam="2">  1       -2 0.27848037E-01 0.33161226E+03</pdfrwt>
<totfact> 0.28257733E+02</totfact>
</mgrwt>
</event>
<event>
 4    1  0.4880711E-008  0.8426418E+03  0.7818608E-02  0.9500266E-01
          2   -1    0    0  501    0  0.00000000000E+00  0.00000000000E+00  0.25385910819E+04  0.25385910819E+04  0.25500000000E-02 0. -1.
         -2   -1    0    0    0  501 -0.00000000000E+00 -0.00000000000E+00 -0.53891872759E+03  0.53891872760E+03  0.25500000000E-02 0.  1.
    8880022    1    1    2    0    0 -0.47712633867E+03 -0.67749836866E+03  0.20670232783E+04  0.22321806532E+04  0.15294330000E+03 0.  0.
    8880022    1    1    2    0    0  0.47712633867E+03  0.67749836866E+03 -0.67350923918E+02  0.84532915634E+03  0.15294330000E+03 0.  0.
<mgrwt>
<rscale>  0 0.84264182E+03</rscale>
<asrwt>0</asrwt>
<pdfrwt beam="1">  1        2 0.39055248E+00 0.84264182E+03</pdfrwt>
<pdfrwt beam="2">  1       -2 0.82910572E-01 0.84264182E+03</pdfrwt>
<totfact> 0.43605399E+00</totfact>
</mgrwt>
</event>
<event>
 4    1  0.4880711E-008  0.8130417E+03  0.7818608E-02  0.9541329E-01
         -2   -1    0    0    0  501 -0.00000000000E+00  0.00000000000E+00  0.51815219098E+03  0.51815219099E+03  0.25500000000E-02 0.  1.
          2   -1    0    0  501    0  0.00000000000E+00 -0.00000000000E+00 -0.13452344353E+04  0.13452344353E+04  0.25500000000E-02 0. -1.
    8880022    1    1    2    0    0  0.23761317292E+01 -0.79852329497E+03 -0.62527632205E+03  0.10256740372E+04  0.15294330000E+03 0.  0.
    8880022    1    1    2    0    0 -0.23761317292E+01  0.79852329497E+03 -0.20180592222E+03  0.83771258906E+03  0.15294330000E+03 0.  0.
<mgrwt>
<rscale>  0 0.81304167E+03</rscale>
<asrwt>0</asrwt>
<pdfrwt beam="1">  1        2 0.20695914E+00 0.81304167E+03</pdfrwt>
<pdfrwt beam="2">  1       -2 0.79715722E-01 0.81304167E+03</pdfrwt>
<totfact> 0.21988679E+01</totfact>
</mgrwt>
</event>
<event>
 4    1  0.4880711E-008  0.2254052E+03  0.7818608E-02  0.1129916E+00
          2   -1    0    0  501    0  0.00000000000E+00  0.00000000000E+00  0.92013489702E+03  0.92013489702E+03  0.25500000000E-02 0. -1.
         -2   -1    0    0    0  501 -0.00000000000E+00 -0.00000000000E+00 -0.10472433187E+03  0.10472433190E+03  0.25500000000E-02 0.  1.
    8880022    1    1    2    0    0 -0.10226515844E+03 -0.13022168986E+03  0.76003007222E+03  0.79275041144E+03  0.15294330000E+03 0.  0.
    8880022    1    1    2    0    0  0.10226515844E+03  0.13022168986E+03  0.55380492930E+02  0.23210881748E+03  0.15294330000E+03 0.  0.
<mgrwt>
<rscale>  0 0.22540520E+03</rscale>
<asrwt>0</asrwt>
<pdfrwt beam="1">  1        2 0.14155922E+00 0.22540520E+03</pdfrwt>
<pdfrwt beam="2">  1       -2 0.16111436E-01 0.22540520E+03</pdfrwt>
<totfact> 0.89904512E+02</totfact>
</mgrwt>
</event>
<event>
 4    1  0.4880711E-008  0.1039689E+04  0.7818608E-02  0.9266055E-01
         -2   -1    0    0    0  501 -0.00000000000E+00  0.00000000000E+00  0.41905819197E+03  0.41905819198E+03  0.25500000000E-02 0.  1.
          2   -1    0    0  501    0  0.00000000000E+00 -0.00000000000E+00 -0.28344798014E+04  0.28344798014E+04  0.25500000000E-02 0. -1.
    8880022    1    1    2    0    0  0.13119719984E+03 -0.10199744734E+04 -0.16956424705E+04  0.19890087160E+04  0.15294330000E+03 0.  0.
    8880022    1    1    2    0    0 -0.13119719984E+03  0.10199744734E+04 -0.71977913898E+03  0.12645292774E+04  0.15294330000E+03 0.  0.
<mgrwt>
<rscale>  0 0.10396886E+04</rscale>
<asrwt>0</asrwt>
<pdfrwt beam="1">  1        2 0.43607380E+00 0.10396886E+04</pdfrwt>
<pdfrwt beam="2">  1       -2 0.64470493E-01 0.10396886E+04</pdfrwt>
<totfact> 0.49595724E+00</totfact>
</mgrwt>
</event>
<event>
 4    1  0.4880711E-008  0.3040552E+03  0.7818608E-02  0.1083231E+00
         -2   -1    0    0    0  501 -0.00000000000E+00  0.00000000000E+00  0.10899698892E+03  0.10899698895E+03  0.25500000000E-02 0.  1.
          2   -1    0    0  501    0  0.00000000000E+00 -0.00000000000E+00 -0.13106888999E+04  0.13106888999E+04  0.25500000000E-02 0. -1.
    8880022    1    1    2    0    0 -0.19545668564E+03  0.17565483695E+03 -0.17917834155E+03  0.35292275189E+03  0.15294330000E+03 0.  0.
    8880022    1    1    2    0    0  0.19545668564E+03 -0.17565483695E+03 -0.10225135694E+04  0.10667631369E+04  0.15294330000E+03 0.  0.
<mgrwt>
<rscale>  0 0.30405524E+03</rscale>
<asrwt>0</asrwt>
<pdfrwt beam="1">  1        2 0.20164443E+00 0.30405524E+03</pdfrwt>
<pdfrwt beam="2">  1       -2 0.16768768E-01 0.30405524E+03</pdfrwt>
<totfact> 0.49201084E+02</totfact>
</mgrwt>
</event>
<event>
 4    1  0.4880711E-008  0.8381606E+03  0.7818608E-02  0.9506367E-01
         -2   -1    0    0    0  501 -0.00000000000E+00  0.00000000000E+00  0.58527024629E+03  0.58527024629E+03  0.25500000000E-02 0.  1.
          2   -1    0    0  501    0  0.00000000000E+00 -0.00000000000E+00 -0.18238579991E+04  0.18238579991E+04  0.25500000000E-02 0. -1.
    8880022    1    1    2    0    0 -0.47868216463E+03 -0.67080911999E+03  0.85017893809E+02  0.84246138516E+03  0.15294330000E+03 0.  0.
    8880022    1    1    2    0    0  0.47868216463E+03  0.67080911999E+03 -0.13236056466E+04  0.15666668603E+04  0.15294330000E+03 0.  0.
<mgrwt>
<rscale>  0 0.83816057E+03</rscale>
<asrwt>0</asrwt>
<pdfrwt beam="1">  1        2 0.28059354E+00 0.83816057E+03</pdfrwt>
<pdfrwt beam="2">  1       -2 0.90041577E-01 0.83816057E+03</pdfrwt>
<totfact> 0.90014720E+00</totfact>
</mgrwt>
</event>
<event>
 4    1  0.4880711E-008  0.1558264E+03  0.7818608E-02  0.1193491E+00
         -2   -1    0    0    0  501 -0.00000000000E+00  0.00000000000E+00  0.21727286152E+03  0.21727286153E+03  0.25500000000E-02 0.  1.
          2   -1    0    0  501    0  0.00000000000E+00 -0.00000000000E+00 -0.22596938361E+03  0.22596938363E+03  0.25500000000E-02 0. -1.
    8880022    1    1    2    0    0 -0.14139147097E+02  0.26273682548E+02  0.15321028704E+03  0.21852978503E+03  0.15294330000E+03 0.  0.
    8880022    1    1    2    0    0  0.14139147097E+02 -0.26273682548E+02 -0.16190680914E+03  0.22471246013E+03  0.15294330000E+03 0. -1.
<mgrwt>
<rscale>  0 0.15582643E+03</rscale>
<asrwt>0</asrwt>
<pdfrwt beam="1">  1        2 0.34764521E-01 0.15582643E+03</pdfrwt>
<pdfrwt beam="2">  1       -2 0.33426594E-01 0.15582643E+03</pdfrwt>
<totfact> 0.12321866E+03</totfact>
</mgrwt>
</event>
<event>
 4    1  0.4880711E-008  0.3078494E+03  0.7818608E-02  0.1081381E+00
          2   -1    0    0  501    0  0.00000000000E+00  0.00000000000E+00  0.29653979474E+04  0.29653979474E+04  0.25500000000E-02 0. -1.
         -2   -1    0    0    0  501 -0.00000000000E+00 -0.00000000000E+00 -0.39491303625E+02  0.39491303708E+02  0.25500000000E-02 0.  1.
    8880022    1    1    2    0    0 -0.73817266515E+02  0.25676953212E+03  0.80679165182E+03  0.86352996701E+03  0.15294330000E+03 0.  0.
    8880022    1    1    2    0    0  0.73817266515E+02 -0.25676953212E+03  0.21191149919E+04  0.21413592841E+04  0.15294330000E+03 0.  0.
<mgrwt>
<rscale>  0 0.30784937E+03</rscale>
<asrwt>0</asrwt>
<pdfrwt beam="1">  1        2 0.45621526E+00 0.30784937E+03</pdfrwt>
<pdfrwt beam="2">  1       -2 0.60755827E-02 0.30784937E+03</pdfrwt>
<totfact> 0.31424431E+02</totfact>
</mgrwt>
</event>
<event>
 4    1  0.4880711E-008  0.3700644E+03  0.7818608E-02  0.1054668E+00
         -2   -1    0    0    0  501 -0.00000000000E+00  0.00000000000E+00  0.14840322020E+03  0.14840322022E+03  0.25500000000E-02 0.  1.
          2   -1    0    0  501    0  0.00000000000E+00 -0.00000000000E+00 -0.17893695289E+04  0.17893695289E+04  0.25500000000E-02 0. -1.
    8880022    1    1    2    0    0 -0.40914246154E+02  0.33448776817E+03 -0.14623075017E+03  0.39790844161E+03  0.15294330000E+03 0.  0.
    8880022    1    1    2    0    0  0.40914246154E+02 -0.33448776817E+03 -0.14947355586E+04  0.15398643076E+04  0.15294330000E+03 0.  0.
<mgrwt>
<rscale>  0 0.37006445E+03</rscale>
<asrwt>0</asrwt>
<pdfrwt beam="1">  1        2 0.27528761E+00 0.37006445E+03</pdfrwt>
<pdfrwt beam="2">  1       -2 0.22831266E-01 0.37006445E+03</pdfrwt>
<totfact> 0.15799369E+02</totfact>
</mgrwt>
</event>
<event>
 4    1  0.4880711E-008  0.1127726E+04  0.7818608E-02  0.9178582E-01
         -2   -1    0    0    0  501 -0.00000000000E+00  0.00000000000E+00  0.23655186060E+04  0.23655186060E+04  0.25500000000E-02 0.  1.
          2   -1    0    0  501    0  0.00000000000E+00 -0.00000000000E+00 -0.64005710382E+03  0.64005710383E+03  0.25500000000E-02 0. -1.
    8880022    1    1    2    0    0 -0.37861317588E+03 -0.10512021489E+04  0.14639088199E+04  0.18479162808E+04  0.15294330000E+03 0.  0.
    8880022    1    1    2    0    0  0.37861317588E+03  0.10512021489E+04  0.26155268222E+03  0.11576594290E+04  0.15294330000E+03 0.  0.
<mgrwt>
<rscale>  0 0.11277258E+04</rscale>
<asrwt>0</asrwt>
<pdfrwt beam="1">  1        2 0.98470325E-01 0.11277258E+04</pdfrwt>
<pdfrwt beam="2">  1       -2 0.36392594E+00 0.11277258E+04</pdfrwt>
<totfact> 0.58051602E-01</totfact>
</mgrwt>
</event>
<event>
 4    1  0.4880711E-008  0.3428271E+03  0.7818608E-02  0.1065598E+00
         -2   -1    0    0    0  501 -0.00000000000E+00  0.00000000000E+00  0.25171114447E+03  0.25171114448E+03  0.25500000000E-02 0.  1.
          2   -1    0    0  501    0  0.00000000000E+00 -0.00000000000E+00 -0.11799850495E+04  0.11799850495E+04  0.25500000000E-02 0. -1.
    8880022    1    1    2    0    0 -0.28935137033E+03  0.10205180737E+03 -0.10206116425E+04  0.10766515521E+04  0.15294330000E+03 0. -1.
    8880022    1    1    2    0    0  0.28935137033E+03 -0.10205180737E+03  0.92337737510E+02  0.35504464181E+03  0.15294330000E+03 0.  0.
<mgrwt>
<rscale>  0 0.34282713E+03</rscale>
<asrwt>0</asrwt>
<pdfrwt beam="1">  1        2 0.18153616E+00 0.34282713E+03</pdfrwt>
<pdfrwt beam="2">  1       -2 0.38724792E-01 0.34282713E+03</pdfrwt>
<totfact> 0.12994959E+02</totfact>
</mgrwt>
</event>
<event>
 4    1  0.4880711E-008  0.8759455E+03  0.7818608E-02  0.9456160E-01
          2   -1    0    0  501    0  0.00000000000E+00  0.00000000000E+00  0.33326077052E+04  0.33326077052E+04  0.25500000000E-02 0. -1.
         -2   -1    0    0    0  501 -0.00000000000E+00 -0.00000000000E+00 -0.56471754127E+03  0.56471754128E+03  0.25500000000E-02 0.  1.
    8880022    1    1    2    0    0  0.52218428235E+03 -0.68644919252E+03  0.28836582461E+04  0.30137626735E+04  0.15294330000E+03 0.  0.
    8880022    1    1    2    0    0 -0.52218428235E+03  0.68644919252E+03 -0.11576808213E+03  0.88356257305E+03  0.15294330000E+03 0.  0.
<mgrwt>
<rscale>  0 0.87594553E+03</rscale>
<asrwt>0</asrwt>
<pdfrwt beam="1">  1        2 0.51270888E+00 0.87594553E+03</pdfrwt>
<pdfrwt beam="2">  1       -2 0.86879621E-01 0.87594553E+03</pdfrwt>
<totfact> 0.12780199E+00</totfact>
</mgrwt>
</event>
<event>
 4    1  0.4880711E-008  0.4778582E+03  0.7818608E-02  0.1019725E+00
          2   -1    0    0  501    0  0.00000000000E+00  0.00000000000E+00  0.14114402877E+04  0.14114402877E+04  0.25500000000E-02 0. -1.
         -2   -1    0    0    0  501 -0.00000000000E+00 -0.00000000000E+00 -0.18394286886E+03  0.18394286888E+03  0.25500000000E-02 0.  1.
    8880022    1    1    2    0    0  0.44773176803E+03  0.67030437649E+02  0.89061318266E+03  0.10107127732E+04  0.15294330000E+03 0.  0.
    8880022    1    1    2    0    0 -0.44773176803E+03 -0.67030437649E+02  0.33688423621E+03  0.58467038346E+03  0.15294330000E+03 0.  0.
<mgrwt>
<rscale>  0 0.47785821E+03</rscale>
<asrwt>0</asrwt>
<pdfrwt beam="1">  1        2 0.21714465E+00 0.47785821E+03</pdfrwt>
<pdfrwt beam="2">  1       -2 0.28298904E-01 0.47785821E+03</pdfrwt>
<totfact> 0.16953763E+02</totfact>
</mgrwt>
</event>
<event>
 4    1  0.4880711E-008  0.3167887E+03  0.7818608E-02  0.1077137E+00
          2   -1    0    0  501    0  0.00000000000E+00  0.00000000000E+00  0.29301689140E+04  0.29301689140E+04  0.25500000000E-02 0. -1.
         -2   -1    0    0    0  501 -0.00000000000E+00 -0.00000000000E+00 -0.83444923783E+02  0.83444923822E+02  0.25500000000E-02 0.  1.
    8880022    1    1    2    0    0 -0.27699905415E+03 -0.15327198835E+02  0.26639049462E+03  0.41390693116E+03  0.15294330000E+03 0.  0.
    8880022    1    1    2    0    0  0.27699905415E+03  0.15327198835E+02  0.25803334956E+04  0.25997069066E+04  0.15294330000E+03 0.  0.
<mgrwt>
<rscale>  0 0.31678866E+03</rscale>
<asrwt>0</asrwt>
<pdfrwt beam="1">  1        2 0.45079523E+00 0.31678866E+03</pdfrwt>
<pdfrwt beam="2">  1       -2 0.12837680E-01 0.31678866E+03</pdfrwt>
<totfact> 0.10026037E+02</totfact>
</mgrwt>
</event>
<event>
 4    1  0.4880711E-008  0.3815775E+03  0.7818608E-02  0.1050352E+00
          2   -1    0    0  501    0  0.00000000000E+00  0.00000000000E+00  0.10150854422E+04  0.10150854422E+04  0.25500000000E-02 0. -1.
         -2   -1    0    0    0  501 -0.00000000000E+00 -0.00000000000E+00 -0.34352440341E+03  0.34352440342E+03  0.25500000000E-02 0.  1.
    8880022    1    1    2    0    0 -0.16925287553E+03  0.30588102047E+03  0.85421660409E+03  0.93556795278E+03  0.15294330000E+03 0.  0.
    8880022    1    1    2    0    0  0.16925287553E+03 -0.30588102047E+03 -0.18265556529E+03  0.42304189285E+03  0.15294330000E+03 0.  1.
<mgrwt>
<rscale>  0 0.38157750E+03</rscale>
<asrwt>0</asrwt>
<pdfrwt beam="1">  1        2 0.15616699E+00 0.38157750E+03</pdfrwt>
<pdfrwt beam="2">  1       -2 0.52849909E-01 0.38157750E+03</pdfrwt>
<totfact> 0.87720115E+01</totfact>
</mgrwt>
</event>
<event>
 4    1  0.4880711E-008  0.4982563E+03  0.7818608E-02  0.1014235E+00
         -2   -1    0    0    0  501 -0.00000000000E+00  0.00000000000E+00  0.26670361920E+04  0.26670361920E+04  0.25500000000E-02 0.  1.
          2   -1    0    0  501    0  0.00000000000E+00 -0.00000000000E+00 -0.16578079190E+03  0.16578079192E+03  0.25500000000E-02 0. -1.
    8880022    1    1    2    0    0  0.37336560504E+03  0.29234532903E+03  0.31268133060E+03  0.58824224088E+03  0.15294330000E+03 0.  0.
    8880022    1    1    2    0    0 -0.37336560504E+03 -0.29234532903E+03  0.21885740695E+04  0.22445747430E+04  0.15294330000E+03 0.  1.
<mgrwt>
<rscale>  0 0.49825628E+03</rscale>
<asrwt>0</asrwt>
<pdfrwt beam="1">  1        2 0.25504738E-01 0.49825628E+03</pdfrwt>
<pdfrwt beam="2">  1       -2 0.41031324E+00 0.49825628E+03</pdfrwt>
<totfact> 0.15173103E+00</totfact>
</mgrwt>
</event>
<event>
 4    1  0.4880711E-008  0.2457668E+03  0.7818608E-02  0.1116010E+00
          2   -1    0    0  501    0  0.00000000000E+00  0.00000000000E+00  0.65656754937E+03  0.65656754937E+03  0.25500000000E-02 0. -1.
         -2   -1    0    0    0  501 -0.00000000000E+00 -0.00000000000E+00 -0.22164832001E+03  0.22164832003E+03  0.25500000000E-02 0.  1.
    8880022    1    1    2    0    0 -0.19217350139E+03  0.88879007947E+01  0.55329769466E+03  0.60542517403E+03  0.15294330000E+03 0.  0.
    8880022    1    1    2    0    0  0.19217350139E+03 -0.88879007947E+01 -0.11837846531E+03  0.27279069537E+03  0.15294330000E+03 0.  0.
<mgrwt>
<rscale>  0 0.24576676E+03</rscale>
<asrwt>0</asrwt>
<pdfrwt beam="1">  1        2 0.10101039E+00 0.24576676E+03</pdfrwt>
<pdfrwt beam="2">  1       -2 0.34099743E-01 0.24576676E+03</pdfrwt>
<totfact> 0.36898448E+02</totfact>
</mgrwt>
</event>
<event>
 4    1  0.4880711E-008  0.1075532E+04  0.7818608E-02  0.9229374E-01
         -2   -1    0    0    0  501 -0.00000000000E+00  0.00000000000E+00  0.11176392072E+04  0.11176392072E+04  0.25500000000E-02 0.  1.
          2   -1    0    0  501    0  0.00000000000E+00 -0.00000000000E+00 -0.11888861735E+04  0.11888861735E+04  0.25500000000E-02 0. -1.
    8880022    1    1    2    0    0  0.80118813179E+03 -0.70105214368E+03 -0.45052330928E+03  0.11660786577E+04  0.15294330000E+03 0.  0.
    8880022    1    1    2    0    0 -0.80118813179E+03  0.70105214368E+03  0.37927634300E+03  0.11404467230E+04  0.15294330000E+03 0.  0.
<mgrwt>
<rscale>  0 0.10755316E+04</rscale>
<asrwt>0</asrwt>
<pdfrwt beam="1">  1        2 0.18290557E+00 0.10755316E+04</pdfrwt>
<pdfrwt beam="2">  1       -2 0.17194449E+00 0.10755316E+04</pdfrwt>
<totfact> 0.39052038E+00</totfact>
</mgrwt>
</event>
<event>
 4    1  0.4880711E-008  0.4926521E+03  0.7818608E-02  0.1015715E+00
          2   -1    0    0  501    0  0.00000000000E+00  0.00000000000E+00  0.14319116198E+04  0.14319116198E+04  0.25500000000E-02 0. -1.
         -2   -1    0    0    0  501 -0.00000000000E+00 -0.00000000000E+00 -0.29064514215E+03  0.29064514216E+03  0.25500000000E-02 0.  1.
    8880022    1    1    2    0    0 -0.45375980243E+03  0.11582949449E+03  0.14577036176E+02  0.49286770344E+03  0.15294330000E+03 0.  0.
    8880022    1    1    2    0    0  0.45375980243E+03 -0.11582949449E+03  0.11266894414E+04  0.12296890585E+04  0.15294330000E+03 0.  0.
<mgrwt>
<rscale>  0 0.49265209E+03</rscale>
<asrwt>0</asrwt>
<pdfrwt beam="1">  1        2 0.22029410E+00 0.49265209E+03</pdfrwt>
<pdfrwt beam="2">  1       -2 0.44714637E-01 0.49265209E+03</pdfrwt>
<totfact> 0.69171256E+01</totfact>
</mgrwt>
</event>
<event>
 4    1  0.4880711E-008  0.3978974E+03  0.7818608E-02  0.1044510E+00
          2   -1    0    0  501    0  0.00000000000E+00  0.00000000000E+00  0.14360684885E+04  0.14360684885E+04  0.25500000000E-02 0. -1.
         -2   -1    0    0    0  501 -0.00000000000E+00 -0.00000000000E+00 -0.61416770896E+03  0.61416770897E+03  0.25500000000E-02 0.  1.
    8880022    1    1    2    0    0  0.55581545892E-01  0.36732915031E+03 -0.51761283457E+03  0.65287472557E+03  0.15294330000E+03 0.  0.
    8880022    1    1    2    0    0 -0.55581545892E-01 -0.36732915031E+03  0.13395136141E+04  0.13973614719E+04  0.15294330000E+03 0.  0.
<mgrwt>
<rscale>  0 0.39789742E+03</rscale>
<asrwt>0</asrwt>
<pdfrwt beam="1">  1        2 0.22093361E+00 0.39789742E+03</pdfrwt>
<pdfrwt beam="2">  1       -2 0.94487341E-01 0.39789742E+03</pdfrwt>
<totfact> 0.14173403E+01</totfact>
</mgrwt>
</event>
<event>
 4    1  0.4880711E-008  0.4348646E+03  0.7818608E-02  0.1032334E+00
         -2   -1    0    0    0  501 -0.00000000000E+00  0.00000000000E+00  0.32392186166E+03  0.32392186167E+03  0.25500000000E-02 0.  1.
          2   -1    0    0  501    0  0.00000000000E+00 -0.00000000000E+00 -0.17533758934E+04  0.17533758934E+04  0.25500000000E-02 0. -1.
    8880022    1    1    2    0    0  0.12917766236E+03 -0.38604239251E+03 -0.15630172922E+04  0.16223841425E+04  0.15294330000E+03 0.  0.
    8880022    1    1    2    0    0 -0.12917766236E+03  0.38604239251E+03  0.13356326048E+03  0.45491361250E+03  0.15294330000E+03 0.  0.
<mgrwt>
<rscale>  0 0.43486463E+03</rscale>
<asrwt>0</asrwt>
<pdfrwt beam="1">  1        2 0.26975013E+00 0.43486463E+03</pdfrwt>
<pdfrwt beam="2">  1       -2 0.49834134E-01 0.43486463E+03</pdfrwt>
<totfact> 0.37647497E+01</totfact>
</mgrwt>
</event>
<event>
 4    1  0.4880711E-008  0.5575012E+03  0.7818608E-02  0.9997725E-01
         -2   -1    0    0    0  501 -0.00000000000E+00  0.00000000000E+00  0.17521341262E+03  0.17521341264E+03  0.25500000000E-02 0.  1.
          2   -1    0    0  501    0  0.00000000000E+00 -0.00000000000E+00 -0.21570838862E+04  0.21570838862E+04  0.25500000000E-02 0. -1.
    8880022    1    1    2    0    0  0.50063022124E+03 -0.19179503732E+03 -0.49942199634E+03  0.74848509551E+03  0.15294330000E+03 0.  0.
    8880022    1    1    2    0    0 -0.50063022124E+03  0.19179503732E+03 -0.14824484773E+04  0.15838122034E+04  0.15294330000E+03 0.  0.
<mgrwt>
<rscale>  0 0.55750122E+03</rscale>
<asrwt>0</asrwt>
<pdfrwt beam="1">  1        2 0.33185904E+00 0.55750122E+03</pdfrwt>
<pdfrwt beam="2">  1       -2 0.26955911E-01 0.55750122E+03</pdfrwt>
<totfact> 0.72190920E+01</totfact>
</mgrwt>
</event>
<event>
 4    1  0.4880711E-008  0.2399440E+03  0.7818608E-02  0.1119830E+00
          2   -1    0    0  501    0  0.00000000000E+00  0.00000000000E+00  0.29696129895E+03  0.29696129896E+03  0.25500000000E-02 0. -1.
         -2   -1    0    0    0  501 -0.00000000000E+00 -0.00000000000E+00 -0.47220179056E+03  0.47220179057E+03  0.25500000000E-02 0.  1.
    8880022    1    1    2    0    0 -0.61014426484E+02  0.17452428514E+03  0.20763848012E+03  0.31731195658E+03  0.15294330000E+03 0.  0.
    8880022    1    1    2    0    0  0.61014426484E+02 -0.17452428514E+03 -0.38287897173E+03  0.45185113295E+03  0.15294330000E+03 0.  0.
<mgrwt>
<rscale>  0 0.23994403E+03</rscale>
<asrwt>0</asrwt>
<pdfrwt beam="1">  1        2 0.45686354E-01 0.23994403E+03</pdfrwt>
<pdfrwt beam="2">  1       -2 0.72646429E-01 0.23994403E+03</pdfrwt>
<totfact> 0.19642901E+02</totfact>
</mgrwt>
</event>
<event>
 4    1  0.4880711E-008  0.7150558E+03  0.7818608E-02  0.9691826E-01
         -2   -1    0    0    0  501 -0.00000000000E+00  0.00000000000E+00  0.47077223231E+03  0.47077223231E+03  0.25500000000E-02 0.  1.
          2   -1    0    0  501    0  0.00000000000E+00 -0.00000000000E+00 -0.13495949599E+04  0.13495949599E+04  0.25500000000E-02 0. -1.
    8880022    1    1    2    0    0 -0.65815482741E+03  0.23397714860E+03 -0.84158644838E+03  0.11043425583E+04  0.15294330000E+03 0.  0.
    8880022    1    1    2    0    0  0.65815482741E+03 -0.23397714860E+03 -0.37236279217E+02  0.71602463394E+03  0.15294330000E+03 0.  1.
<mgrwt>
<rscale>  0 0.71505576E+03</rscale>
<asrwt>0</asrwt>
<pdfrwt beam="1">  1        2 0.20762999E+00 0.71505576E+03</pdfrwt>
<pdfrwt beam="2">  1       -2 0.72426498E-01 0.71505576E+03</pdfrwt>
<totfact> 0.27354690E+01</totfact>
</mgrwt>
</event>
<event>
 4    1  0.4880711E-008  0.8022705E+03  0.7818608E-02  0.9556736E-01
         -2   -1    0    0    0  501 -0.00000000000E+00  0.00000000000E+00  0.90329381483E+03  0.90329381484E+03  0.25500000000E-02 0.  1.
          2   -1    0    0  501    0  0.00000000000E+00 -0.00000000000E+00 -0.11300226120E+04  0.11300226120E+04  0.25500000000E-02 0. -1.
    8880022    1    1    2    0    0  0.78504855174E+03  0.62810352105E+02 -0.73130637329E+03  0.10855630030E+04  0.15294330000E+03 0.  0.
    8880022    1    1    2    0    0 -0.78504855174E+03 -0.62810352105E+02  0.50457757614E+03  0.94775342378E+03  0.15294330000E+03 0.  0.
<mgrwt>
<rscale>  0 0.80227054E+03</rscale>
<asrwt>0</asrwt>
<pdfrwt beam="1">  1        2 0.17384963E+00 0.80227054E+03</pdfrwt>
<pdfrwt beam="2">  1       -2 0.13896828E+00 0.80227054E+03</pdfrwt>
<totfact> 0.77433590E+00</totfact>
</mgrwt>
</event>
<event>
 4    1  0.6143434E-008  0.7333107E+03  0.7818608E-02  0.9661903E-01
          2   -1    0    0  501    0  0.00000000000E+00  0.00000000000E+00  0.12523955211E+04  0.12523955211E+04  0.25500000000E-02 0. -1.
         -2   -1    0    0    0  501 -0.00000000000E+00 -0.00000000000E+00 -0.12617654806E+04  0.12617654806E+04  0.25500000000E-02 0.  1.
    8880022    1    1    2    0    0 -0.53371129359E+03 -0.47906695206E+03  0.10163436065E+04  0.12532752566E+04  0.15294330000E+03 0. -1.
    8880022    1    1    2    0    0  0.53371129359E+03  0.47906695206E+03 -0.10257135660E+04  0.12608857450E+04  0.15294330000E+03 0.  0.
<mgrwt>
<rscale>  0 0.73331067E+03</rscale>
<asrwt>0</asrwt>
<pdfrwt beam="1">  1        2 0.19267623E+00 0.73331067E+03</pdfrwt>
<pdfrwt beam="2">  1       -2 0.19411777E+00 0.73331067E+03</pdfrwt>
<totfact> 0.26410789E+00</totfact>
</mgrwt>
</event>
<event>
 4    1  0.4880711E-008  0.5290778E+03  0.7818608E-02  0.1006456E+00
         -2   -1    0    0    0  501 -0.00000000000E+00  0.00000000000E+00  0.33751672707E+03  0.33751672708E+03  0.25500000000E-02 0.  1.
          2   -1    0    0  501    0  0.00000000000E+00 -0.00000000000E+00 -0.12168846286E+04  0.12168846286E+04  0.25500000000E-02 0. -1.
    8880022    1    1    2    0    0 -0.28734396102E+03  0.41709120613E+03 -0.87827266049E+03  0.10253224592E+04  0.15294330000E+03 0.  0.
    8880022    1    1    2    0    0  0.28734396102E+03 -0.41709120613E+03 -0.10952410782E+01  0.52907889652E+03  0.15294330000E+03 0.  0.
<mgrwt>
<rscale>  0 0.52907776E+03</rscale>
<asrwt>0</asrwt>
<pdfrwt beam="1">  1        2 0.18721302E+00 0.52907776E+03</pdfrwt>
<pdfrwt beam="2">  1       -2 0.51925651E-01 0.52907776E+03</pdfrwt>
<totfact> 0.67476579E+01</totfact>
</mgrwt>
</event>
<event>
 4    1  0.4880711E-008  0.5387203E+03  0.7818608E-02  0.1004139E+00
         -2   -1    0    0    0  501 -0.00000000000E+00  0.00000000000E+00  0.80541508995E+03  0.80541508996E+03  0.25500000000E-02 0.  1.
          2   -1    0    0  501    0  0.00000000000E+00 -0.00000000000E+00 -0.60087776090E+03  0.60087776091E+03  0.25500000000E-02 0. -1.
    8880022    1    1    2    0    0 -0.40330406436E+03  0.32275964703E+03 -0.34261703400E+03  0.63844032069E+03  0.15294330000E+03 0.  0.
    8880022    1    1    2    0    0  0.40330406436E+03 -0.32275964703E+03  0.54715436305E+03  0.76785253018E+03  0.15294330000E+03 0.  0.
<mgrwt>
<rscale>  0 0.53872035E+03</rscale>
<asrwt>0</asrwt>
<pdfrwt beam="1">  1        2 0.92442733E-01 0.53872035E+03</pdfrwt>
<pdfrwt beam="2">  1       -2 0.12391001E+00 0.53872035E+03</pdfrwt>
<totfact> 0.25109998E+01</totfact>
</mgrwt>
</event>
<event>
 4    1  0.4880711E-008  0.3817069E+03  0.7818608E-02  0.1050305E+00
          2   -1    0    0  501    0  0.00000000000E+00  0.00000000000E+00  0.13674601854E+04  0.13674601854E+04  0.25500000000E-02 0. -1.
         -2   -1    0    0    0  501 -0.00000000000E+00 -0.00000000000E+00 -0.39806910916E+03  0.39806910917E+03  0.25500000000E-02 0.  1.
    8880022    1    1    2    0    0  0.26957791689E+03  0.22279199755E+03 -0.27074568519E+03  0.46797799789E+03  0.15294330000E+03 0.  0.
    8880022    1    1    2    0    0 -0.26957791689E+03 -0.22279199755E+03  0.12401367614E+04  0.12975512966E+04  0.15294330000E+03 0.  0.
<mgrwt>
<rscale>  0 0.38170693E+03</rscale>
<asrwt>0</asrwt>
<pdfrwt beam="1">  1        2 0.21037849E+00 0.38170693E+03</pdfrwt>
<pdfrwt beam="2">  1       -2 0.61241401E-01 0.38170693E+03</pdfrwt>
<totfact> 0.40343437E+01</totfact>
</mgrwt>
</event>
<event>
 4    1  0.4880711E-008  0.5513818E+03  0.7818608E-02  0.1001175E+00
          2   -1    0    0  501    0  0.00000000000E+00  0.00000000000E+00  0.91002434315E+03  0.91002434315E+03  0.25500000000E-02 0. -1.
         -2   -1    0    0    0  501 -0.00000000000E+00 -0.00000000000E+00 -0.67596235179E+03  0.67596235180E+03  0.25500000000E-02 0.  1.
    8880022    1    1    2    0    0 -0.26715504252E+03  0.45744774368E+03 -0.44692595088E+03  0.70976384349E+03  0.15294330000E+03 0.  0.
    8880022    1    1    2    0    0  0.26715504252E+03 -0.45744774368E+03  0.68098794223E+03  0.87622285146E+03  0.15294330000E+03 0. -1.
<mgrwt>
<rscale>  0 0.55138182E+03</rscale>
<asrwt>0</asrwt>
<pdfrwt beam="1">  1        2 0.14000374E+00 0.55138182E+03</pdfrwt>
<pdfrwt beam="2">  1       -2 0.10399421E+00 0.55138182E+03</pdfrwt>
<totfact> 0.22564689E+01</totfact>
</mgrwt>
</event>
<event>
 4    1  0.4880711E-008  0.5247878E+03  0.7818608E-02  0.1007504E+00
         -2   -1    0    0    0  501 -0.00000000000E+00  0.00000000000E+00  0.42199513465E+03  0.42199513466E+03  0.25500000000E-02 0.  1.
          2   -1    0    0  501    0  0.00000000000E+00 -0.00000000000E+00 -0.29095009550E+04  0.29095009550E+04  0.25500000000E-02 0. -1.
    8880022    1    1    2    0    0 -0.39156086777E+03 -0.31415070893E+03 -0.27108350789E+04  0.27611644389E+04  0.15294330000E+03 0.  0.
    8880022    1    1    2    0    0  0.39156086777E+03  0.31415070893E+03  0.22332925851E+03  0.57033165072E+03  0.15294330000E+03 0.  0.
<mgrwt>
<rscale>  0 0.52478780E+03</rscale>
<asrwt>0</asrwt>
<pdfrwt beam="1">  1        2 0.44761552E+00 0.52478780E+03</pdfrwt>
<pdfrwt beam="2">  1       -2 0.64922330E-01 0.52478780E+03</pdfrwt>
<totfact> 0.48594633E+00</totfact>
</mgrwt>
</event>
<event>
 4    1  0.4880711E-008  0.5300738E+03  0.7818608E-02  0.1006214E+00
         -2   -1    0    0    0  501 -0.00000000000E+00  0.00000000000E+00  0.58305214826E+03  0.58305214827E+03  0.25500000000E-02 0.  1.
          2   -1    0    0  501    0  0.00000000000E+00 -0.00000000000E+00 -0.72290537290E+03  0.72290537290E+03  0.25500000000E-02 0. -1.
    8880022    1    1    2    0    0 -0.17026936633E+02  0.50724416887E+03  0.30709250100E+03  0.61260429366E+03  0.15294330000E+03 0.  1.
    8880022    1    1    2    0    0  0.17026936633E+02 -0.50724416887E+03 -0.44694572563E+03  0.69335322751E+03  0.15294330000E+03 0.  0.
<mgrwt>
<rscale>  0 0.53007378E+03</rscale>
<asrwt>0</asrwt>
<pdfrwt beam="1">  1        2 0.11121621E+00 0.53007378E+03</pdfrwt>
<pdfrwt beam="2">  1       -2 0.89700331E-01 0.53007378E+03</pdfrwt>
<totfact> 0.43315793E+01</totfact>
</mgrwt>
</event>
<event>
 4    1  0.4880711E-008  0.3493465E+03  0.7818608E-02  0.1062884E+00
         -2   -1    0    0    0  501 -0.00000000000E+00  0.00000000000E+00  0.16658476783E+04  0.16658476783E+04  0.25500000000E-02 0.  1.
          2   -1    0    0  501    0  0.00000000000E+00 -0.00000000000E+00 -0.18444265602E+03  0.18444265604E+03  0.25500000000E-02 0. -1.
    8880022    1    1    2    0    0  0.18488387051E+03 -0.25390804625E+03  0.14589832376E+04  0.15002250105E+04  0.15294330000E+03 0.  0.
    8880022    1    1    2    0    0 -0.18488387051E+03  0.25390804625E+03  0.22421784698E+02  0.35006532386E+03  0.15294330000E+03 0. -1.
<mgrwt>
<rscale>  0 0.34934653E+03</rscale>
<asrwt>0</asrwt>
<pdfrwt beam="1">  1        2 0.28375792E-01 0.34934653E+03</pdfrwt>
<pdfrwt beam="2">  1       -2 0.25628427E+00 0.34934653E+03</pdfrwt>
<totfact> 0.12125398E+01</totfact>
</mgrwt>
</event>
<event>
 4    1  0.4880711E-008  0.3411861E+03  0.7818608E-02  0.1066292E+00
          2   -1    0    0  501    0  0.00000000000E+00  0.00000000000E+00  0.71797497876E+03  0.71797497876E+03  0.25500000000E-02 0. -1.
         -2   -1    0    0    0  501 -0.00000000000E+00 -0.00000000000E+00 -0.31270799831E+03  0.31270799832E+03  0.25500000000E-02 0.  1.
    8880022    1    1    2    0    0 -0.27564265766E+03  0.13052758899E+03 -0.15496934847E+03  0.37473120792E+03  0.15294330000E+03 0.  0.
    8880022    1    1    2    0    0  0.27564265766E+03 -0.13052758899E+03  0.56023632892E+03  0.65595176916E+03  0.15294330000E+03 0. -1.
<mgrwt>
<rscale>  0 0.34118614E+03</rscale>
<asrwt>0</asrwt>
<pdfrwt beam="1">  1        2 0.11045769E+00 0.34118614E+03</pdfrwt>
<pdfrwt beam="2">  1       -2 0.48108923E-01 0.34118614E+03</pdfrwt>
<totfact> 0.16907366E+02</totfact>
</mgrwt>
</event>
<event>
 4    1  0.4880711E-008  0.4186091E+03  0.7818608E-02  0.1037520E+00
          2   -1    0    0  501    0  0.00000000000E+00  0.00000000000E+00  0.56721943342E+03  0.56721943342E+03  0.25500000000E-02 0. -1.
         -2   -1    0    0    0  501 -0.00000000000E+00 -0.00000000000E+00 -0.31328710270E+03  0.31328710271E+03  0.25500000000E-02 0.  1.
    8880022    1    1    2    0    0 -0.15920717159E+03  0.35566131003E+03  0.75072379889E+02  0.42528743947E+03  0.15294330000E+03 0. -1.
    8880022    1    1    2    0    0  0.15920717159E+03 -0.35566131003E+03  0.17885995083E+03  0.45521909666E+03  0.15294330000E+03 0.  1.
<mgrwt>
<rscale>  0 0.41860906E+03</rscale>
<asrwt>0</asrwt>
<pdfrwt beam="1">  1        2 0.87264528E-01 0.41860906E+03</pdfrwt>
<pdfrwt beam="2">  1       -2 0.48198016E-01 0.41860906E+03</pdfrwt>
<totfact> 0.22215775E+02</totfact>
</mgrwt>
</event>
<event>
 4    1  0.4880711E-008  0.4912006E+03  0.7818608E-02  0.1016102E+00
         -2   -1    0    0    0  501 -0.00000000000E+00  0.00000000000E+00  0.43003476548E+03  0.43003476549E+03  0.25500000000E-02 0.  1.
          2   -1    0    0  501    0  0.00000000000E+00 -0.00000000000E+00 -0.92047191813E+03  0.92047191814E+03  0.25500000000E-02 0. -1.
    8880022    1    1    2    0    0 -0.40277109576E+03 -0.23592751540E+03 -0.66716170650E+03  0.82848219277E+03  0.15294330000E+03 0.  0.
    8880022    1    1    2    0    0  0.40277109576E+03  0.23592751540E+03  0.17672455385E+03  0.52202449085E+03  0.15294330000E+03 0.  1.
<mgrwt>
<rscale>  0 0.49120057E+03</rscale>
<asrwt>0</asrwt>
<pdfrwt beam="1">  1        2 0.14161106E+00 0.49120057E+03</pdfrwt>
<pdfrwt beam="2">  1       -2 0.66159195E-01 0.49120057E+03</pdfrwt>
<totfact> 0.62106370E+01</totfact>
</mgrwt>
</event>
<event>
 4    1  0.4880711E-008  0.6467465E+03  0.7818608E-02  0.9812903E-01
         -2   -1    0    0    0  501 -0.00000000000E+00  0.00000000000E+00  0.25033176941E+03  0.25033176942E+03  0.25500000000E-02 0.  1.
          2   -1    0    0  501    0  0.00000000000E+00 -0.00000000000E+00 -0.21243798162E+04  0.21243798162E+04  0.25500000000E-02 0. -1.
    8880022    1    1    2    0    0  0.23987572150E+03 -0.58081755111E+03 -0.14856047463E+04  0.16202785269E+04  0.15294330000E+03 0.  0.
    8880022    1    1    2    0    0 -0.23987572150E+03  0.58081755111E+03 -0.38844330053E+03  0.75443305878E+03  0.15294330000E+03 0.  0.
<mgrwt>
<rscale>  0 0.64674651E+03</rscale>
<asrwt>0</asrwt>
<pdfrwt beam="1">  1        2 0.32682765E+00 0.64674651E+03</pdfrwt>
<pdfrwt beam="2">  1       -2 0.38512581E-01 0.64674651E+03</pdfrwt>
<totfact> 0.38039088E+01</totfact>
</mgrwt>
</event>
<event>
 4    1  0.4880711E-008  0.1299328E+04  0.7818608E-02  0.9030098E-01
          2   -1    0    0  501    0  0.00000000000E+00  0.00000000000E+00  0.24891932738E+04  0.24891932738E+04  0.25500000000E-02 0. -1.
         -2   -1    0    0    0  501 -0.00000000000E+00 -0.00000000000E+00 -0.71269811969E+03  0.71269811969E+03  0.25500000000E-02 0.  1.
    8880022    1    1    2    0    0 -0.64070831016E+03 -0.11199795174E+04  0.53618977773E+03  0.14056145947E+04  0.15294330000E+03 0.  0.
    8880022    1    1    2    0    0  0.64070831016E+03  0.11199795174E+04  0.12403053764E+04  0.17962767988E+04  0.15294330000E+03 0.  0.
<mgrwt>
<rscale>  0 0.12993279E+04</rscale>
<asrwt>0</asrwt>
<pdfrwt beam="1">  1        2 0.38295281E+00 0.12993279E+04</pdfrwt>
<pdfrwt beam="2">  1       -2 0.10964586E+00 0.12993279E+04</pdfrwt>
<totfact> 0.22707468E+00</totfact>
</mgrwt>
</event>
<event>
 4    1  0.4880711E-008  0.5483682E+03  0.7818608E-02  0.1001872E+00
         -2   -1    0    0    0  501 -0.00000000000E+00  0.00000000000E+00  0.27391106853E+03  0.27391106854E+03  0.25500000000E-02 0.  1.
          2   -1    0    0  501    0  0.00000000000E+00 -0.00000000000E+00 -0.18050234007E+04  0.18050234007E+04  0.25500000000E-02 0. -1.
    8880022    1    1    2    0    0  0.38054771991E+03  0.36400476816E+03 -0.11491940934E+03  0.56028043160E+03  0.15294330000E+03 0.  0.
    8880022    1    1    2    0    0 -0.38054771991E+03 -0.36400476816E+03 -0.14161929228E+04  0.15186540376E+04  0.15294330000E+03 0.  0.
<mgrwt>
<rscale>  0 0.54836821E+03</rscale>
<asrwt>0</asrwt>
<pdfrwt beam="1">  1        2 0.27769590E+00 0.54836821E+03</pdfrwt>
<pdfrwt beam="2">  1       -2 0.42140166E-01 0.54836821E+03</pdfrwt>
<totfact> 0.48281711E+01</totfact>
</mgrwt>
</event>
<event>
 4    1  0.4880711E-008  0.4592885E+03  0.7818608E-02  0.1024988E+00
          2   -1    0    0  501    0  0.00000000000E+00  0.00000000000E+00  0.38884143499E+03  0.38884143499E+03  0.25500000000E-02 0. -1.
         -2   -1    0    0    0  501 -0.00000000000E+00 -0.00000000000E+00 -0.19044537203E+04  0.19044537203E+04  0.25500000000E-02 0.  1.
    8880022    1    1    2    0    0 -0.28073886221E+03  0.32975741776E+03 -0.17274810378E+04  0.17874945181E+04  0.15294330000E+03 0.  0.
    8880022    1    1    2    0    0  0.28073886221E+03 -0.32975741776E+03  0.21186875245E+03  0.50580063721E+03  0.15294330000E+03 0.  0.
<mgrwt>
<rscale>  0 0.45928849E+03</rscale>
<asrwt>0</asrwt>
<pdfrwt beam="1">  1        2 0.59821760E-01 0.45928849E+03</pdfrwt>
<pdfrwt beam="2">  1       -2 0.29299288E+00 0.45928849E+03</pdfrwt>
<totfact> 0.31551617E+00</totfact>
</mgrwt>
</event>
<event>
 4    1  0.4880711E-008  0.2704747E+03  0.7818608E-02  0.1101008E+00
         -2   -1    0    0    0  501 -0.00000000000E+00  0.00000000000E+00  0.16590244388E+03  0.16590244390E+03  0.25500000000E-02 0.  1.
          2   -1    0    0  501    0  0.00000000000E+00 -0.00000000000E+00 -0.22677684462E+04  0.22677684462E+04  0.25500000000E-02 0. -1.
    8880022    1    1    2    0    0  0.72261738204E+02 -0.21105243629E+03  0.41208370538E+02  0.27359581957E+03  0.15294330000E+03 0.  1.
    8880022    1    1    2    0    0 -0.72261738204E+02  0.21105243629E+03 -0.21430743729E+04  0.21600750706E+04  0.15294330000E+03 0.  0.
<mgrwt>
<rscale>  0 0.27047466E+03</rscale>
<asrwt>0</asrwt>
<pdfrwt beam="1">  1        2 0.34888743E+00 0.27047466E+03</pdfrwt>
<pdfrwt beam="2">  1       -2 0.25523455E-01 0.27047466E+03</pdfrwt>
<totfact> 0.74087405E+01</totfact>
</mgrwt>
</event>
<event>
 4    1  0.4880711E-008  0.1861273E+03  0.7818608E-02  0.1162001E+00
          2   -1    0    0  501    0  0.00000000000E+00  0.00000000000E+00  0.92372019190E+03  0.92372019190E+03  0.25500000000E-02 0. -1.
         -2   -1    0    0    0  501 -0.00000000000E+00 -0.00000000000E+00 -0.28702512353E+03  0.28702512354E+03  0.25500000000E-02 0.  1.
    8880022    1    1    2    0    0  0.87367902830E+02  0.60154673058E+02 -0.24609057555E+03  0.30855138879E+03  0.15294330000E+03 0.  0.
    8880022    1    1    2    0    0 -0.87367902830E+02 -0.60154673058E+02  0.88278564393E+03  0.90219392664E+03  0.15294330000E+03 0. -1.
<mgrwt>
<rscale>  0 0.18612734E+03</rscale>
<asrwt>0</asrwt>
<pdfrwt beam="1">  1        2 0.14211080E+00 0.18612734E+03</pdfrwt>
<pdfrwt beam="2">  1       -2 0.44157711E-01 0.18612734E+03</pdfrwt>
<totfact> 0.14824416E+02</totfact>
</mgrwt>
</event>
<event>
 4    1  0.4880711E-008  0.5150096E+03  0.7818608E-02  0.1009934E+00
         -2   -1    0    0    0  501 -0.00000000000E+00  0.00000000000E+00  0.57799980412E+03  0.57799980413E+03  0.25500000000E-02 0.  1.
          2   -1    0    0  501    0  0.00000000000E+00 -0.00000000000E+00 -0.14070194401E+04  0.14070194401E+04  0.25500000000E-02 0. -1.
    8880022    1    1    2    0    0  0.45170564094E+03 -0.19443563944E+03  0.40023173973E+03  0.65224251812E+03  0.15294330000E+03 0.  0.
    8880022    1    1    2    0    0 -0.45170564094E+03  0.19443563944E+03 -0.12292513757E+04  0.13327767261E+04  0.15294330000E+03 0. -1.
<mgrwt>
<rscale>  0 0.51500957E+03</rscale>
<asrwt>0</asrwt>
<pdfrwt beam="1">  1        2 0.21646453E+00 0.51500957E+03</pdfrwt>
<pdfrwt beam="2">  1       -2 0.88923047E-01 0.51500957E+03</pdfrwt>
<totfact> 0.16498085E+01</totfact>
</mgrwt>
</event>
<event>
 4    1  0.4880711E-008  0.2172980E+03  0.7818608E-02  0.1135914E+00
          2   -1    0    0  501    0  0.00000000000E+00  0.00000000000E+00  0.17309469632E+04  0.17309469632E+04  0.25500000000E-02 0. -1.
         -2   -1    0    0    0  501 -0.00000000000E+00 -0.00000000000E+00 -0.86371521018E+02  0.86371521055E+02  0.25500000000E-02 0.  1.
    8880022    1    1    2    0    0 -0.15267304772E+03  0.22752837969E+02  0.15738798646E+04  0.15888096905E+04  0.15294330000E+03 0.  0.
    8880022    1    1    2    0    0  0.15267304772E+03 -0.22752837969E+02  0.70695577505E+02  0.22850879377E+03  0.15294330000E+03 0.  0.
<mgrwt>
<rscale>  0 0.21729796E+03</rscale>
<asrwt>0</asrwt>
<pdfrwt beam="1">  1        2 0.26629954E+00 0.21729796E+03</pdfrwt>
<pdfrwt beam="2">  1       -2 0.13287926E-01 0.21729796E+03</pdfrwt>
<totfact> 0.43637737E+02</totfact>
</mgrwt>
</event>
<event>
 4    1  0.4880711E-008  0.3218693E+03  0.7818608E-02  0.1074792E+00
          2   -1    0    0  501    0  0.00000000000E+00  0.00000000000E+00  0.12638484337E+04  0.12638484337E+04  0.25500000000E-02 0. -1.
         -2   -1    0    0    0  501 -0.00000000000E+00 -0.00000000000E+00 -0.18649716692E+03  0.18649716694E+03  0.25500000000E-02 0.  1.
    8880022    1    1    2    0    0  0.28093959663E+03  0.35793190802E+02  0.10815712685E+04  0.11284486126E+04  0.15294330000E+03 0. -1.
    8880022    1    1    2    0    0 -0.28093959663E+03 -0.35793190802E+02 -0.42200017325E+01  0.32189698801E+03  0.15294330000E+03 0.  0.
<mgrwt>
<rscale>  0 0.32186933E+03</rscale>
<asrwt>0</asrwt>
<pdfrwt beam="1">  1        2 0.19443822E+00 0.32186933E+03</pdfrwt>
<pdfrwt beam="2">  1       -2 0.28691872E-01 0.32186933E+03</pdfrwt>
<totfact> 0.20416933E+02</totfact>
</mgrwt>
</event>
<event>
 4    1  0.4880711E-008  0.9577251E+03  0.7818608E-02  0.9356166E-01
         -2   -1    0    0    0  501 -0.00000000000E+00  0.00000000000E+00  0.92772096947E+03  0.92772096947E+03  0.25500000000E-02 0.  1.
          2   -1    0    0  501    0  0.00000000000E+00 -0.00000000000E+00 -0.14517291802E+04  0.14517291802E+04  0.25500000000E-02 0. -1.
    8880022    1    1    2    0    0 -0.88215812062E+03 -0.34006274233E+03 -0.93390964294E+03  0.13376937216E+04  0.15294330000E+03 0.  0.
    8880022    1    1    2    0    0  0.88215812062E+03  0.34006274233E+03  0.40990143218E+03  0.10417564282E+04  0.15294330000E+03 0.  0.
<mgrwt>
<rscale>  0 0.95772505E+03</rscale>
<asrwt>0</asrwt>
<pdfrwt beam="1">  1        2 0.22334295E+00 0.95772505E+03</pdfrwt>
<pdfrwt beam="2">  1       -2 0.14272630E+00 0.95772505E+03</pdfrwt>
<totfact> 0.46055071E+00</totfact>
</mgrwt>
</event>
<event>
 4    1  0.4880711E-008  0.5948225E+03  0.7818608E-02  0.9916206E-01
         -2   -1    0    0    0  501 -0.00000000000E+00  0.00000000000E+00  0.69488163922E+03  0.69488163923E+03  0.25500000000E-02 0.  1.
          2   -1    0    0  501    0  0.00000000000E+00 -0.00000000000E+00 -0.25623447595E+04  0.25623447595E+04  0.25500000000E-02 0. -1.
    8880022    1    1    2    0    0 -0.44162837909E+03 -0.36794901551E+03  0.52411559737E+03  0.79278680341E+03  0.15294330000E+03 0.  0.
    8880022    1    1    2    0    0  0.44162837909E+03  0.36794901551E+03 -0.23915787177E+04  0.24644395954E+04  0.15294330000E+03 0.  0.
<mgrwt>
<rscale>  0 0.59482246E+03</rscale>
<asrwt>0</asrwt>
<pdfrwt beam="1">  1        2 0.39420688E+00 0.59482246E+03</pdfrwt>
<pdfrwt beam="2">  1       -2 0.10690487E+00 0.59482246E+03</pdfrwt>
<totfact> 0.24551256E+00</totfact>
</mgrwt>
</event>
<event>
 4    1  0.4880711E-008  0.1409811E+04  0.7818608E-02  0.8946747E-01
         -2   -1    0    0    0  501 -0.00000000000E+00  0.00000000000E+00  0.66754985569E+03  0.66754985569E+03  0.25500000000E-02 0.  1.
          2   -1    0    0  501    0  0.00000000000E+00 -0.00000000000E+00 -0.50202292099E+04  0.50202292099E+04  0.25500000000E-02 0. -1.
    8880022    1    1    2    0    0 -0.45176061878E+03 -0.13266828587E+04 -0.39904612080E+04  0.42321799785E+04  0.15294330000E+03 0.  0.
    8880022    1    1    2    0    0  0.45176061878E+03  0.13266828587E+04 -0.36221814623E+03  0.14555990872E+04  0.15294330000E+03 0.  0.
<mgrwt>
<rscale>  0 0.14098109E+04</rscale>
<asrwt>0</asrwt>
<pdfrwt beam="1">  1        2 0.77234293E+00 0.14098109E+04</pdfrwt>
<pdfrwt beam="2">  1       -2 0.10269998E+00 0.14098109E+04</pdfrwt>
<totfact> 0.25350789E-02</totfact>
</mgrwt>
</event>
<event>
 4    1  0.4880711E-008  0.4812907E+03  0.7818608E-02  0.1018781E+00
          2   -1    0    0  501    0  0.00000000000E+00  0.00000000000E+00  0.13957664732E+04  0.13957664732E+04  0.25500000000E-02 0. -1.
         -2   -1    0    0    0  501 -0.00000000000E+00 -0.00000000000E+00 -0.25166978070E+03  0.25166978071E+03  0.25500000000E-02 0.  1.
    8880022    1    1    2    0    0  0.45567820712E+03  0.24626667912E+02  0.10527542535E+04  0.11575544361E+04  0.15294330000E+03 0.  0.
    8880022    1    1    2    0    0 -0.45567820712E+03 -0.24626667912E+02  0.91342438921E+02  0.48988181776E+03  0.15294330000E+03 0.  0.
<mgrwt>
<rscale>  0 0.48129072E+03</rscale>
<asrwt>0</asrwt>
<pdfrwt beam="1">  1        2 0.21473331E+00 0.48129072E+03</pdfrwt>
<pdfrwt beam="2">  1       -2 0.38718427E-01 0.48129072E+03</pdfrwt>
<totfact> 0.96101923E+01</totfact>
</mgrwt>
</event>
<event>
 4    1  0.4880711E-008  0.2894617E+03  0.7818608E-02  0.1090631E+00
          2   -1    0    0  501    0  0.00000000000E+00  0.00000000000E+00  0.11011658542E+04  0.11011658542E+04  0.25500000000E-02 0. -1.
         -2   -1    0    0    0  501 -0.00000000000E+00 -0.00000000000E+00 -0.16047429127E+03  0.16047429129E+03  0.25500000000E-02 0.  1.
    8880022    1    1    2    0    0  0.24573683298E+03  0.31316845399E+01  0.12907215964E+02  0.28974928433E+03  0.15294330000E+03 0.  0.
    8880022    1    1    2    0    0 -0.24573683298E+03 -0.31316845399E+01  0.92778434695E+03  0.97189086115E+03  0.15294330000E+03 0.  0.
<mgrwt>
<rscale>  0 0.28946166E+03</rscale>
<asrwt>0</asrwt>
<pdfrwt beam="1">  1        2 0.16941013E+00 0.28946166E+03</pdfrwt>
<pdfrwt beam="2">  1       -2 0.24688353E-01 0.28946166E+03</pdfrwt>
<totfact> 0.33319014E+02</totfact>
</mgrwt>
</event>
<event>
 4    1  0.4880711E-008  0.1309748E+04  0.7818608E-02  0.9021870E-01
         -2   -1    0    0    0  501 -0.00000000000E+00  0.00000000000E+00  0.13011109113E+04  0.13011109113E+04  0.25500000000E-02 0.  1.
          2   -1    0    0  501    0  0.00000000000E+00 -0.00000000000E+00 -0.18017800451E+04  0.18017800451E+04  0.25500000000E-02 0. -1.
    8880022    1    1    2    0    0 -0.12068622915E+04  0.48531671213E+03 -0.10538804481E+04  0.16811021842E+04  0.15294330000E+03 0.  0.
    8880022    1    1    2    0    0  0.12068622915E+04 -0.48531671213E+03  0.55321131427E+03  0.14217887723E+04  0.15294330000E+03 0.  0.
<mgrwt>
<rscale>  0 0.13097483E+04</rscale>
<asrwt>0</asrwt>
<pdfrwt beam="1">  1        2 0.27719693E+00 0.13097483E+04</pdfrwt>
<pdfrwt beam="2">  1       -2 0.20017091E+00 0.13097483E+04</pdfrwt>
<totfact> 0.10945601E+00</totfact>
</mgrwt>
</event>
<event>
 4    1  0.4880711E-008  0.1152943E+04  0.7818608E-02  0.9155073E-01
         -2   -1    0    0    0  501 -0.00000000000E+00  0.00000000000E+00  0.13018363869E+04  0.13018363869E+04  0.25500000000E-02 0.  1.
          2   -1    0    0  501    0  0.00000000000E+00 -0.00000000000E+00 -0.16306507067E+04  0.16306507067E+04  0.25500000000E-02 0. -1.
    8880022    1    1    2    0    0 -0.97334091666E+03 -0.59874321996E+03  0.73206764090E+03  0.13657234959E+04  0.15294330000E+03 0.  0.
    8880022    1    1    2    0    0  0.97334091666E+03  0.59874321996E+03 -0.10608819607E+04  0.15667635977E+04  0.15294330000E+03 0.  0.
<mgrwt>
<rscale>  0 0.11529430E+04</rscale>
<asrwt>0</asrwt>
<pdfrwt beam="1">  1        2 0.25086934E+00 0.11529430E+04</pdfrwt>
<pdfrwt beam="2">  1       -2 0.20028252E+00 0.11529430E+04</pdfrwt>
<totfact> 0.13848104E+00</totfact>
</mgrwt>
</event>
<event>
 4    1  0.4880711E-008  0.5364566E+03  0.7818608E-02  0.1004678E+00
          2   -1    0    0  501    0  0.00000000000E+00  0.00000000000E+00  0.74020876510E+03  0.74020876510E+03  0.25500000000E-02 0. -1.
         -2   -1    0    0    0  501 -0.00000000000E+00 -0.00000000000E+00 -0.57875005375E+03  0.57875005375E+03  0.25500000000E-02 0.  1.
    8880022    1    1    2    0    0 -0.22504519218E+02 -0.51369989061E+03  0.45855113273E+03  0.70572999464E+03  0.15294330000E+03 0.  0.
    8880022    1    1    2    0    0  0.22504519218E+02  0.51369989061E+03 -0.29709242138E+03  0.61322882422E+03  0.15294330000E+03 0.  0.
<mgrwt>
<rscale>  0 0.53645660E+03</rscale>
<asrwt>0</asrwt>
<pdfrwt beam="1">  1        2 0.11387827E+00 0.53645660E+03</pdfrwt>
<pdfrwt beam="2">  1       -2 0.89038470E-01 0.53645660E+03</pdfrwt>
<totfact> 0.42725779E+01</totfact>
</mgrwt>
</event>
<event>
 4    1  0.4880711E-008  0.4301145E+03  0.7818608E-02  0.1033824E+00
          2   -1    0    0  501    0  0.00000000000E+00  0.00000000000E+00  0.13520101764E+04  0.13520101764E+04  0.25500000000E-02 0. -1.
         -2   -1    0    0    0  501 -0.00000000000E+00 -0.00000000000E+00 -0.55860483346E+03  0.55860483347E+03  0.25500000000E-02 0.  1.
    8880022    1    1    2    0    0  0.65448278765E+02  0.39664004280E+03  0.12268020171E+04  0.13000160164E+04  0.15294330000E+03 0.  0.
    8880022    1    1    2    0    0 -0.65448278765E+02 -0.39664004280E+03 -0.43339667410E+03  0.61059899352E+03  0.15294330000E+03 0.  0.
<mgrwt>
<rscale>  0 0.43011447E+03</rscale>
<asrwt>0</asrwt>
<pdfrwt beam="1">  1        2 0.20800156E+00 0.43011447E+03</pdfrwt>
<pdfrwt beam="2">  1       -2 0.85939207E-01 0.43011447E+03</pdfrwt>
<totfact> 0.19456824E+01</totfact>
</mgrwt>
</event>
<event>
 4    1  0.4880711E-008  0.5397892E+03  0.7818608E-02  0.1003885E+00
         -2   -1    0    0    0  501 -0.00000000000E+00  0.00000000000E+00  0.35914532479E+03  0.35914532480E+03  0.25500000000E-02 0.  1.
          2   -1    0    0  501    0  0.00000000000E+00 -0.00000000000E+00 -0.23478717826E+04  0.23478717826E+04  0.25500000000E-02 0. -1.
    8880022    1    1    2    0    0  0.23085165738E+03 -0.46334461047E+03 -0.20893304594E+04  0.21579328389E+04  0.15294330000E+03 0.  0.
    8880022    1    1    2    0    0 -0.23085165738E+03  0.46334461047E+03  0.10060400155E+03  0.54908426850E+03  0.15294330000E+03 0.  0.
<mgrwt>
<rscale>  0 0.53978919E+03</rscale>
<asrwt>0</asrwt>
<pdfrwt beam="1">  1        2 0.36121103E+00 0.53978919E+03</pdfrwt>
<pdfrwt beam="2">  1       -2 0.55253128E-01 0.53978919E+03</pdfrwt>
<totfact> 0.14223858E+01</totfact>
</mgrwt>
</event>
<event>
 4    1  0.5699195E-008  0.1393035E+04  0.7818608E-02  0.8958875E-01
          2   -1    0    0  501    0  0.00000000000E+00  0.00000000000E+00  0.21406359812E+04  0.21406359812E+04  0.25500000000E-02 0. -1.
         -2   -1    0    0    0  501 -0.00000000000E+00 -0.00000000000E+00 -0.19353318491E+04  0.19353318491E+04  0.25500000000E-02 0.  1.
    8880022    1    1    2    0    0  0.90008680185E+03  0.10521404773E+04  0.15885508200E+04  0.21128277723E+04  0.15294330000E+03 0.  0.
    8880022    1    1    2    0    0 -0.90008680185E+03 -0.10521404773E+04 -0.13832466879E+04  0.19631400580E+04  0.15294330000E+03 0.  0.
<mgrwt>
<rscale>  0 0.13930354E+04</rscale>
<asrwt>0</asrwt>
<pdfrwt beam="1">  1        2 0.32932861E+00 0.13930354E+04</pdfrwt>
<pdfrwt beam="2">  1       -2 0.29774336E+00 0.13930354E+04</pdfrwt>
<totfact> 0.17394647E-01</totfact>
</mgrwt>
</event>
<event>
 4    1  0.4880711E-008  0.7378140E+03  0.7818608E-02  0.9654665E-01
          2   -1    0    0  501    0  0.00000000000E+00  0.00000000000E+00  0.24227414534E+04  0.24227414534E+04  0.25500000000E-02 0. -1.
         -2   -1    0    0    0  501 -0.00000000000E+00 -0.00000000000E+00 -0.32226516033E+03  0.32226516034E+03  0.25500000000E-02 0.  1.
    8880022    1    1    2    0    0 -0.72082030382E+03  0.37361409286E+02  0.29501899483E+03  0.79461037347E+03  0.15294330000E+03 0. -1.
    8880022    1    1    2    0    0  0.72082030382E+03 -0.37361409286E+02  0.18054572982E+04  0.19503962402E+04  0.15294330000E+03 0.  0.
<mgrwt>
<rscale>  0 0.73781396E+03</rscale>
<asrwt>0</asrwt>
<pdfrwt beam="1">  1        2 0.37272943E+00 0.73781396E+03</pdfrwt>
<pdfrwt beam="2">  1       -2 0.49579259E-01 0.73781396E+03</pdfrwt>
<totfact> 0.15550118E+01</totfact>
</mgrwt>
</event>
<event>
 4    1  0.4880711E-008  0.5991470E+03  0.7818608E-02  0.9907177E-01
          2   -1    0    0  501    0  0.00000000000E+00  0.00000000000E+00  0.12929602988E+04  0.12929602988E+04  0.25500000000E-02 0. -1.
         -2   -1    0    0    0  501 -0.00000000000E+00 -0.00000000000E+00 -0.34422466165E+03  0.34422466166E+03  0.25500000000E-02 0.  1.
    8880022    1    1    2    0    0  0.96256676606E+01  0.57921742996E+03  0.11434107209E+03  0.60995984985E+03  0.15294330000E+03 0.  0.
    8880022    1    1    2    0    0 -0.96256676606E+01 -0.57921742996E+03  0.83439456505E+03  0.10272251106E+04  0.15294330000E+03 0.  0.
<mgrwt>
<rscale>  0 0.59914701E+03</rscale>
<asrwt>0</asrwt>
<pdfrwt beam="1">  1        2 0.19891697E+00 0.59914701E+03</pdfrwt>
<pdfrwt beam="2">  1       -2 0.52957639E-01 0.59914701E+03</pdfrwt>
<totfact> 0.58076846E+01</totfact>
</mgrwt>
</event>
<event>
 4    1  0.4880711E-008  0.9822129E+03  0.7818608E-02  0.9328271E-01
          2   -1    0    0  501    0  0.00000000000E+00  0.00000000000E+00  0.20990510234E+04  0.20990510234E+04  0.25500000000E-02 0. -1.
         -2   -1    0    0    0  501 -0.00000000000E+00 -0.00000000000E+00 -0.74479530918E+03  0.74479530918E+03  0.25500000000E-02 0.  1.
    8880022    1    1    2    0    0 -0.73927574868E+03  0.62834849397E+03  0.15570053873E+04  0.18409258246E+04  0.15294330000E+03 0.  0.
    8880022    1    1    2    0    0  0.73927574868E+03 -0.62834849397E+03 -0.20274967308E+03  0.10029205080E+04  0.15294330000E+03 0.  0.
<mgrwt>
<rscale>  0 0.98221287E+03</rscale>
<asrwt>0</asrwt>
<pdfrwt beam="1">  1        2 0.32293092E+00 0.98221287E+03</pdfrwt>
<pdfrwt beam="2">  1       -2 0.11458389E+00 0.98221287E+03</pdfrwt>
<totfact> 0.35106794E+00</totfact>
</mgrwt>
</event>
<event>
 4    1  0.4880711E-008  0.8809642E+03  0.7818608E-02  0.9449695E-01
          2   -1    0    0  501    0  0.00000000000E+00  0.00000000000E+00  0.66803447255E+03  0.66803447256E+03  0.25500000000E-02 0. -1.
         -2   -1    0    0    0  501 -0.00000000000E+00 -0.00000000000E+00 -0.18481169700E+04  0.18481169700E+04  0.25500000000E-02 0.  1.
    8880022    1    1    2    0    0  0.52822373496E+03 -0.68824846124E+03  0.17664212325E+03  0.89849894340E+03  0.15294330000E+03 0.  0.
    8880022    1    1    2    0    0 -0.52822373496E+03  0.68824846124E+03 -0.13567246207E+04  0.16176524991E+04  0.15294330000E+03 0.  0.
<mgrwt>
<rscale>  0 0.88096419E+03</rscale>
<asrwt>0</asrwt>
<pdfrwt beam="1">  1        2 0.10277454E+00 0.88096419E+03</pdfrwt>
<pdfrwt beam="2">  1       -2 0.28432569E+00 0.88096419E+03</pdfrwt>
<totfact> 0.17541950E+00</totfact>
</mgrwt>
</event>
<event>
 4    1  0.4880711E-008  0.5939179E+03  0.7818608E-02  0.9918105E-01
         -2   -1    0    0    0  501 -0.00000000000E+00  0.00000000000E+00  0.32775033852E+03  0.32775033853E+03  0.25500000000E-02 0.  1.
          2   -1    0    0  501    0  0.00000000000E+00 -0.00000000000E+00 -0.13235134203E+04  0.13235134203E+04  0.25500000000E-02 0. -1.
    8880022    1    1    2    0    0  0.28410828735E+02  0.57318376420E+03 -0.14101170505E+03  0.61042833872E+03  0.15294330000E+03 0.  0.
    8880022    1    1    2    0    0 -0.28410828735E+02 -0.57318376420E+03 -0.85475137674E+03  0.10408354201E+04  0.15294330000E+03 0.  0.
<mgrwt>
<rscale>  0 0.59391789E+03</rscale>
<asrwt>0</asrwt>
<pdfrwt beam="1">  1        2 0.20361745E+00 0.59391789E+03</pdfrwt>
<pdfrwt beam="2">  1       -2 0.50423130E-01 0.59391789E+03</pdfrwt>
<totfact> 0.61704661E+01</totfact>
</mgrwt>
</event>
<event>
 4    1  0.7101776E-008  0.7370649E+03  0.7818608E-02  0.9655865E-01
          2   -1    0    0  501    0  0.00000000000E+00  0.00000000000E+00  0.17878808444E+04  0.17878808444E+04  0.25500000000E-02 0. -1.
         -2   -1    0    0    0  501 -0.00000000000E+00 -0.00000000000E+00 -0.13126565275E+04  0.13126565275E+04  0.25500000000E-02 0.  1.
    8880022    1    1    2    0    0  0.24109310105E+03  0.67951975085E+03 -0.11214312064E+04  0.13419659380E+04  0.15294330000E+03 0.  0.
    8880022    1    1    2    0    0 -0.24109310105E+03 -0.67951975085E+03  0.15966555233E+04  0.17585714339E+04  0.15294330000E+03 0.  0.
<mgrwt>
<rscale>  0 0.73706487E+03</rscale>
<asrwt>0</asrwt>
<pdfrwt beam="1">  1        2 0.27505859E+00 0.73706487E+03</pdfrwt>
<pdfrwt beam="2">  1       -2 0.20194716E+00 0.73706487E+03</pdfrwt>
<totfact> 0.11788148E+00</totfact>
</mgrwt>
</event>
<event>
 4    1  0.4880711E-008  0.8752273E+03  0.7818608E-02  0.9457090E-01
          2   -1    0    0  501    0  0.00000000000E+00  0.00000000000E+00  0.11944490165E+04  0.11944490165E+04  0.25500000000E-02 0. -1.
         -2   -1    0    0    0  501 -0.00000000000E+00 -0.00000000000E+00 -0.10543331943E+04  0.10543331944E+04  0.25500000000E-02 0.  1.
    8880022    1    1    2    0    0 -0.84765601126E+03  0.15527536377E+03  0.77379585783E+03  0.11682392027E+04  0.15294330000E+03 0.  0.
    8880022    1    1    2    0    0  0.84765601126E+03 -0.15527536377E+03 -0.63368003565E+03  0.10805430082E+04  0.15294330000E+03 0.  0.
<mgrwt>
<rscale>  0 0.87522729E+03</rscale>
<asrwt>0</asrwt>
<pdfrwt beam="1">  1        2 0.18376139E+00 0.87522729E+03</pdfrwt>
<pdfrwt beam="2">  1       -2 0.16220511E+00 0.87522729E+03</pdfrwt>
<totfact> 0.46562189E+00</totfact>
</mgrwt>
</event>
<event>
 4    1  0.4880711E-008  0.3750689E+03  0.7818608E-02  0.1052772E+00
         -2   -1    0    0    0  501 -0.00000000000E+00  0.00000000000E+00  0.10052048725E+04  0.10052048725E+04  0.25500000000E-02 0.  1.
          2   -1    0    0  501    0  0.00000000000E+00 -0.00000000000E+00 -0.21202131321E+03  0.21202131323E+03  0.25500000000E-02 0. -1.
    8880022    1    1    2    0    0  0.76550704025E+02  0.33380385051E+03  0.41747353405E+02  0.37738510229E+03  0.15294330000E+03 0.  0.
    8880022    1    1    2    0    0 -0.76550704025E+02 -0.33380385051E+03  0.75143620584E+03  0.83984108340E+03  0.15294330000E+03 0.  0.
<mgrwt>
<rscale>  0 0.37506889E+03</rscale>
<asrwt>0</asrwt>
<pdfrwt beam="1">  1        2 0.32618663E-01 0.37506889E+03</pdfrwt>
<pdfrwt beam="2">  1       -2 0.15464691E+00 0.37506889E+03</pdfrwt>
<totfact> 0.46562448E+01</totfact>
</mgrwt>
</event>
<event>
 4    1  0.4880711E-008  0.4774010E+03  0.7818608E-02  0.1019852E+00
         -2   -1    0    0    0  501 -0.00000000000E+00  0.00000000000E+00  0.72082251578E+02  0.72082251623E+02  0.25500000000E-02 0.  1.
          2   -1    0    0  501    0  0.00000000000E+00 -0.00000000000E+00 -0.38796621624E+04  0.38796621624E+04  0.25500000000E-02 0. -1.
    8880022    1    1    2    0    0  0.42985370097E+03  0.14051997844E+03 -0.27537016218E+04  0.27947780491E+04  0.15294330000E+03 0.  0.
    8880022    1    1    2    0    0 -0.42985370097E+03 -0.14051997844E+03 -0.10538782890E+04  0.11569663650E+04  0.15294330000E+03 0.  0.
<mgrwt>
<rscale>  0 0.47740101E+03</rscale>
<asrwt>0</asrwt>
<pdfrwt beam="1">  1        2 0.59687094E+00 0.47740101E+03</pdfrwt>
<pdfrwt beam="2">  1       -2 0.11089580E-01 0.47740101E+03</pdfrwt>
<totfact> 0.28735372E+01</totfact>
</mgrwt>
</event>
<event>
 4    1  0.4880711E-008  0.5495506E+03  0.7818608E-02  0.1001598E+00
          2   -1    0    0  501    0  0.00000000000E+00  0.00000000000E+00  0.76446274032E+03  0.76446274032E+03  0.25500000000E-02 0. -1.
         -2   -1    0    0    0  501 -0.00000000000E+00 -0.00000000000E+00 -0.10682109636E+04  0.10682109636E+04  0.25500000000E-02 0.  1.
    8880022    1    1    2    0    0  0.49233476872E+03  0.19031739306E+03  0.57554388064E+03  0.79577424321E+03  0.15294330000E+03 0.  0.
    8880022    1    1    2    0    0 -0.49233476872E+03 -0.19031739306E+03 -0.87929210390E+03  0.10368994607E+04  0.15294330000E+03 0.  0.
<mgrwt>
<rscale>  0 0.54955062E+03</rscale>
<asrwt>0</asrwt>
<pdfrwt beam="1">  1        2 0.11760965E+00 0.54955062E+03</pdfrwt>
<pdfrwt beam="2">  1       -2 0.16434015E+00 0.54955062E+03</pdfrwt>
<totfact> 0.89473797E+00</totfact>
</mgrwt>
</event>
<event>
 4    1  0.4880711E-008  0.3315056E+03  0.7818608E-02  0.1070473E+00
          2   -1    0    0  501    0  0.00000000000E+00  0.00000000000E+00  0.58904038875E+03  0.58904038876E+03  0.25500000000E-02 0. -1.
         -2   -1    0    0    0  501 -0.00000000000E+00 -0.00000000000E+00 -0.36082598642E+03  0.36082598643E+03  0.25500000000E-02 0.  1.
    8880022    1    1    2    0    0  0.22442790951E+03  0.19009584839E+03  0.44415755751E+03  0.55423091492E+03  0.15294330000E+03 0.  0.
    8880022    1    1    2    0    0 -0.22442790951E+03 -0.19009584839E+03 -0.21594315518E+03  0.39563546027E+03  0.15294330000E+03 0.  0.
<mgrwt>
<rscale>  0 0.33150561E+03</rscale>
<asrwt>0</asrwt>
<pdfrwt beam="1">  1        2 0.90621597E-01 0.33150561E+03</pdfrwt>
<pdfrwt beam="2">  1       -2 0.55511691E-01 0.33150561E+03</pdfrwt>
<totfact> 0.16075708E+02</totfact>
</mgrwt>
</event>
<event>
 4    1  0.4880711E-008  0.3155436E+03  0.7818608E-02  0.1077719E+00
         -2   -1    0    0    0  501 -0.00000000000E+00  0.00000000000E+00  0.34517572703E+03  0.34517572704E+03  0.25500000000E-02 0.  1.
          2   -1    0    0  501    0  0.00000000000E+00 -0.00000000000E+00 -0.27641786036E+04  0.27641786036E+04  0.25500000000E-02 0. -1.
    8880022    1    1    2    0    0 -0.27567858669E+03 -0.13319964736E+02  0.26182224016E+03  0.41002273483E+03  0.15294330000E+03 0.  0.
    8880022    1    1    2    0    0  0.27567858669E+03  0.13319964736E+02 -0.26808251168E+04  0.26993315958E+04  0.15294330000E+03 0. -1.
<mgrwt>
<rscale>  0 0.31554359E+03</rscale>
<asrwt>0</asrwt>
<pdfrwt beam="1">  1        2 0.42525823E+00 0.31554359E+03</pdfrwt>
<pdfrwt beam="2">  1       -2 0.53103960E-01 0.31554359E+03</pdfrwt>
<totfact> 0.96595084E+00</totfact>
</mgrwt>
</event>
<event>
 4    1  0.4880711E-008  0.2650467E+03  0.7818608E-02  0.1104148E+00
          2   -1    0    0  501    0  0.00000000000E+00  0.00000000000E+00  0.35269231483E+03  0.35269231484E+03  0.25500000000E-02 0. -1.
         -2   -1    0    0    0  501 -0.00000000000E+00 -0.00000000000E+00 -0.27942999477E+03  0.27942999479E+03  0.25500000000E-02 0.  1.
    8880022    1    1    2    0    0 -0.19662060677E+03 -0.90545159333E+02  0.20600774966E+03  0.33569172588E+03  0.15294330000E+03 0. -1.
    8880022    1    1    2    0    0  0.19662060677E+03  0.90545159333E+02 -0.13274542960E+03  0.29643058375E+03  0.15294330000E+03 0.  0.
<mgrwt>
<rscale>  0 0.26504668E+03</rscale>
<asrwt>0</asrwt>
<pdfrwt beam="1">  1        2 0.54260356E-01 0.26504668E+03</pdfrwt>
<pdfrwt beam="2">  1       -2 0.42989230E-01 0.26504668E+03</pdfrwt>
<totfact> 0.47718012E+02</totfact>
</mgrwt>
</event>
<event>
 4    1  0.4880711E-008  0.1036386E+04  0.7818608E-02  0.9269513E-01
          2   -1    0    0  501    0  0.00000000000E+00  0.00000000000E+00  0.98751676091E+03  0.98751676091E+03  0.25500000000E-02 0. -1.
         -2   -1    0    0    0  501 -0.00000000000E+00 -0.00000000000E+00 -0.18323279726E+04  0.18323279726E+04  0.25500000000E-02 0.  1.
    8880022    1    1    2    0    0 -0.28827288289E+03  0.98366845857E+03 -0.13212215735E+04  0.16792030820E+04  0.15294330000E+03 0.  0.
    8880022    1    1    2    0    0  0.28827288289E+03 -0.98366845857E+03  0.47641036176E+03  0.11406416515E+04  0.15294330000E+03 0.  0.
<mgrwt>
<rscale>  0 0.10363863E+04</rscale>
<asrwt>0</asrwt>
<pdfrwt beam="1">  1        2 0.15192566E+00 0.10363863E+04</pdfrwt>
<pdfrwt beam="2">  1       -2 0.28189661E+00 0.10363863E+04</pdfrwt>
<totfact> 0.10482838E+00</totfact>
</mgrwt>
</event>
<event>
 4    1  0.4880711E-008  0.5044736E+03  0.7818608E-02  0.1012618E+00
          2   -1    0    0  501    0  0.00000000000E+00  0.00000000000E+00  0.25567441094E+04  0.25567441094E+04  0.25500000000E-02 0. -1.
         -2   -1    0    0    0  501 -0.00000000000E+00 -0.00000000000E+00 -0.14155498088E+03  0.14155498090E+03  0.25500000000E-02 0.  1.
    8880022    1    1    2    0    0 -0.19271797830E+03  0.44041091354E+03  0.47255786045E+03  0.69123409668E+03  0.15294330000E+03 0.  1.
    8880022    1    1    2    0    0  0.19271797830E+03 -0.44041091354E+03  0.19426312681E+04  0.20070649937E+04  0.15294330000E+03 0.  0.
<mgrwt>
<rscale>  0 0.50447363E+03</rscale>
<asrwt>0</asrwt>
<pdfrwt beam="1">  1        2 0.39334527E+00 0.50447363E+03</pdfrwt>
<pdfrwt beam="2">  1       -2 0.21777688E-01 0.50447363E+03</pdfrwt>
<totfact> 0.64123723E+01</totfact>
</mgrwt>
</event>
<event>
 4    1  0.4880711E-008  0.8557996E+03  0.7818608E-02  0.9482586E-01
         -2   -1    0    0    0  501 -0.00000000000E+00  0.00000000000E+00  0.32748141275E+03  0.32748141276E+03  0.25500000000E-02 0.  1.
          2   -1    0    0  501    0  0.00000000000E+00 -0.00000000000E+00 -0.34092375994E+04  0.34092375994E+04  0.25500000000E-02 0. -1.
    8880022    1    1    2    0    0 -0.83697276786E+03  0.92075773559E+02 -0.44504838148E+03  0.96460410381E+03  0.15294330000E+03 0.  0.
    8880022    1    1    2    0    0  0.83697276786E+03 -0.92075773559E+02 -0.26367078052E+04  0.27721149083E+04  0.15294330000E+03 0.  0.
<mgrwt>
<rscale>  0 0.85579963E+03</rscale>
<asrwt>0</asrwt>
<pdfrwt beam="1">  1        2 0.52449807E+00 0.85579963E+03</pdfrwt>
<pdfrwt beam="2">  1       -2 0.50381758E-01 0.85579963E+03</pdfrwt>
<totfact> 0.37094594E+00</totfact>
</mgrwt>
</event>
<event>
 4    1  0.4880711E-008  0.3697593E+03  0.7818608E-02  0.1054785E+00
         -2   -1    0    0    0  501 -0.00000000000E+00  0.00000000000E+00  0.22282162902E+03  0.22282162904E+03  0.25500000000E-02 0.  1.
          2   -1    0    0  501    0  0.00000000000E+00 -0.00000000000E+00 -0.17280019337E+04  0.17280019337E+04  0.25500000000E-02 0. -1.
    8880022    1    1    2    0    0 -0.15869403538E+03 -0.29689476206E+03 -0.15359080313E+04  0.15797896791E+04  0.15294330000E+03 0. -1.
    8880022    1    1    2    0    0  0.15869403538E+03  0.29689476206E+03  0.30727726613E+02  0.37103388363E+03  0.15294330000E+03 0.  0.
<mgrwt>
<rscale>  0 0.36975931E+03</rscale>
<asrwt>0</asrwt>
<pdfrwt beam="1">  1        2 0.26584644E+00 0.36975931E+03</pdfrwt>
<pdfrwt beam="2">  1       -2 0.34280252E-01 0.36975931E+03</pdfrwt>
<totfact> 0.81479413E+01</totfact>
</mgrwt>
</event>
<event>
 4    1  0.4880711E-008  0.3508593E+03  0.7818608E-02  0.1062263E+00
          2   -1    0    0  501    0  0.00000000000E+00  0.00000000000E+00  0.13662261659E+04  0.13662261659E+04  0.25500000000E-02 0. -1.
         -2   -1    0    0    0  501 -0.00000000000E+00 -0.00000000000E+00 -0.15836194827E+03  0.15836194829E+03  0.25500000000E-02 0.  1.
    8880022    1    1    2    0    0  0.22239274247E+03 -0.22416972060E+03  0.10346656499E+03  0.36579718236E+03  0.15294330000E+03 0.  1.
    8880022    1    1    2    0    0 -0.22239274247E+03  0.22416972060E+03  0.11043976527E+04  0.11587909319E+04  0.15294330000E+03 0.  0.
<mgrwt>
<rscale>  0 0.35085930E+03</rscale>
<asrwt>0</asrwt>
<pdfrwt beam="1">  1        2 0.21018864E+00 0.35085930E+03</pdfrwt>
<pdfrwt beam="2">  1       -2 0.24363377E-01 0.35085930E+03</pdfrwt>
<totfact> 0.23901441E+02</totfact>
</mgrwt>
</event>
<event>
 4    1  0.5495763E-008  0.8072841E+03  0.7818608E-02  0.9549533E-01
          2   -1    0    0  501    0  0.00000000000E+00  0.00000000000E+00  0.12370399509E+04  0.12370399509E+04  0.25500000000E-02 0. -1.
         -2   -1    0    0    0  501 -0.00000000000E+00 -0.00000000000E+00 -0.11629119744E+04  0.11629119744E+04  0.25500000000E-02 0.  1.
    8880022    1    1    2    0    0 -0.70111557187E+03  0.36980117870E+03 -0.85041128621E+03  0.11725642693E+04  0.15294330000E+03 0.  0.
    8880022    1    1    2    0    0  0.70111557187E+03 -0.36980117870E+03  0.92453926275E+03  0.12273876561E+04  0.15294330000E+03 0. -1.
<mgrwt>
<rscale>  0 0.80728409E+03</rscale>
<asrwt>0</asrwt>
<pdfrwt beam="1">  1        2 0.19031384E+00 0.80728409E+03</pdfrwt>
<pdfrwt beam="2">  1       -2 0.17890953E+00 0.80728409E+03</pdfrwt>
<totfact> 0.33750583E+00</totfact>
</mgrwt>
</event>
<event>
 4    1  0.4880711E-008  0.5080344E+03  0.7818608E-02  0.1011703E+00
          2   -1    0    0  501    0  0.00000000000E+00  0.00000000000E+00  0.52495265940E+03  0.52495265941E+03  0.25500000000E-02 0. -1.
         -2   -1    0    0    0  501 -0.00000000000E+00 -0.00000000000E+00 -0.11366545298E+04  0.11366545298E+04  0.25500000000E-02 0.  1.
    8880022    1    1    2    0    0 -0.33617636669E+03  0.34884484877E+03  0.31998671409E+03  0.60040855111E+03  0.15294330000E+03 0.  0.
    8880022    1    1    2    0    0  0.33617636669E+03 -0.34884484877E+03 -0.93168858452E+03  0.10611986381E+04  0.15294330000E+03 0.  0.
<mgrwt>
<rscale>  0 0.50803438E+03</rscale>
<asrwt>0</asrwt>
<pdfrwt beam="1">  1        2 0.80761948E-01 0.50803438E+03</pdfrwt>
<pdfrwt beam="2">  1       -2 0.17486993E+00 0.50803438E+03</pdfrwt>
<totfact> 0.11988613E+01</totfact>
</mgrwt>
</event>
<event>
 4    1  0.4880711E-008  0.1364116E+04  0.7818608E-02  0.8980210E-01
          2   -1    0    0  501    0  0.00000000000E+00  0.00000000000E+00  0.22204524326E+04  0.22204524326E+04  0.25500000000E-02 0. -1.
         -2   -1    0    0    0  501 -0.00000000000E+00 -0.00000000000E+00 -0.15672938501E+04  0.15672938501E+04  0.25500000000E-02 0.  1.
    8880022    1    1    2    0    0 -0.10344677075E+04  0.87595578871E+03 -0.96528518516E+03  0.16711041629E+04  0.15294330000E+03 0.  0.
    8880022    1    1    2    0    0  0.10344677075E+04 -0.87595578871E+03  0.16184437676E+04  0.21166421199E+04  0.15294330000E+03 0.  0.
<mgrwt>
<rscale>  0 0.13641164E+04</rscale>
<asrwt>0</asrwt>
<pdfrwt beam="1">  1        2 0.34160806E+00 0.13641164E+04</pdfrwt>
<pdfrwt beam="2">  1       -2 0.24112213E+00 0.13641164E+04</pdfrwt>
<totfact> 0.34929422E-01</totfact>
</mgrwt>
</event>
<event>
 4    1  0.4880711E-008  0.5840969E+03  0.7818608E-02  0.9938961E-01
          2   -1    0    0  501    0  0.00000000000E+00  0.00000000000E+00  0.26784790112E+04  0.26784790112E+04  0.25500000000E-02 0. -1.
         -2   -1    0    0    0  501 -0.00000000000E+00 -0.00000000000E+00 -0.79146539121E+03  0.79146539121E+03  0.25500000000E-02 0.  1.
    8880022    1    1    2    0    0 -0.20222841624E+03 -0.52619500019E+03  0.25327501890E+04  0.25992292479E+04  0.15294330000E+03 0.  0.
    8880022    1    1    2    0    0  0.20222841624E+03  0.52619500019E+03 -0.64573656903E+03  0.87071515443E+03  0.15294330000E+03 0.  0.
<mgrwt>
<rscale>  0 0.58409688E+03</rscale>
<asrwt>0</asrwt>
<pdfrwt beam="1">  1        2 0.41207369E+00 0.58409688E+03</pdfrwt>
<pdfrwt beam="2">  1       -2 0.12176391E+00 0.58409688E+03</pdfrwt>
<totfact> 0.15395022E+00</totfact>
</mgrwt>
</event>
<event>
 4    1  0.4880711E-008  0.2878996E+03  0.7818608E-02  0.1091451E+00
         -2   -1    0    0    0  501 -0.00000000000E+00  0.00000000000E+00  0.11256118742E+03  0.11256118744E+03  0.25500000000E-02 0.  1.
          2   -1    0    0  501    0  0.00000000000E+00 -0.00000000000E+00 -0.18864555905E+04  0.18864555905E+04  0.25500000000E-02 0. -1.
    8880022    1    1    2    0    0  0.23437106929E+03 -0.67562838650E+02 -0.16673684029E+04  0.16920412464E+04  0.15294330000E+03 0.  0.
    8880022    1    1    2    0    0 -0.23437106929E+03  0.67562838650E+02 -0.10652600020E+03  0.30697553163E+03  0.15294330000E+03 0.  0.
<mgrwt>
<rscale>  0 0.28789961E+03</rscale>
<asrwt>0</asrwt>
<pdfrwt beam="1">  1        2 0.29022391E+00 0.28789961E+03</pdfrwt>
<pdfrwt beam="2">  1       -2 0.17317107E-01 0.28789961E+03</pdfrwt>
<totfact> 0.22967452E+02</totfact>
</mgrwt>
</event>
<event>
 4    1  0.4880711E-008  0.8991334E+03  0.7818608E-02  0.9426665E-01
         -2   -1    0    0    0  501 -0.00000000000E+00  0.00000000000E+00  0.29654687962E+03  0.29654687963E+03  0.25500000000E-02 0.  1.
          2   -1    0    0  501    0  0.00000000000E+00 -0.00000000000E+00 -0.31452263756E+04  0.31452263756E+04  0.25500000000E-02 0. -1.
    8880022    1    1    2    0    0 -0.12527440534E+03 -0.87712919065E+03 -0.20524790917E+04  0.22407836505E+04  0.15294330000E+03 0.  0.
    8880022    1    1    2    0    0  0.12527440534E+03  0.87712919065E+03 -0.79620040428E+03  0.12009896047E+04  0.15294330000E+03 0.  0.
<mgrwt>
<rscale>  0 0.89913344E+03</rscale>
<asrwt>0</asrwt>
<pdfrwt beam="1">  1        2 0.48388096E+00 0.89913344E+03</pdfrwt>
<pdfrwt beam="2">  1       -2 0.45622599E-01 0.89913344E+03</pdfrwt>
<totfact> 0.66841973E+00</totfact>
</mgrwt>
</event>
<event>
 4    1  0.4880711E-008  0.2659327E+03  0.7818608E-02  0.1103630E+00
          2   -1    0    0  501    0  0.00000000000E+00  0.00000000000E+00  0.49141461537E+03  0.49141461538E+03  0.25500000000E-02 0. -1.
         -2   -1    0    0    0  501 -0.00000000000E+00 -0.00000000000E+00 -0.69057069365E+03  0.69057069366E+03  0.25500000000E-02 0.  1.
    8880022    1    1    2    0    0 -0.75130392571E+02  0.20416655100E+03 -0.62539712200E+03  0.67958941255E+03  0.15294330000E+03 0.  0.
    8880022    1    1    2    0    0  0.75130392571E+02 -0.20416655100E+03  0.42624104372E+03  0.50239589648E+03  0.15294330000E+03 0. -1.
<mgrwt>
<rscale>  0 0.26593272E+03</rscale>
<asrwt>0</asrwt>
<pdfrwt beam="1">  1        2 0.75602248E-01 0.26593272E+03</pdfrwt>
<pdfrwt beam="2">  1       -2 0.10624165E+00 0.26593272E+03</pdfrwt>
<totfact> 0.47844091E+01</totfact>
</mgrwt>
</event>
<event>
 4    1  0.4880711E-008  0.8752733E+03  0.7818608E-02  0.9457030E-01
         -2   -1    0    0    0  501 -0.00000000000E+00  0.00000000000E+00  0.95200696795E+03  0.95200696795E+03  0.25500000000E-02 0.  1.
          2   -1    0    0  501    0  0.00000000000E+00 -0.00000000000E+00 -0.85332290347E+03  0.85332290347E+03  0.25500000000E-02 0. -1.
    8880022    1    1    2    0    0  0.77621985906E+03 -0.37442555365E+03  0.26475927667E+03  0.91444020713E+03  0.15294330000E+03 0.  0.
    8880022    1    1    2    0    0 -0.77621985906E+03  0.37442555365E+03 -0.16607521219E+03  0.89088966429E+03  0.15294330000E+03 0.  0.
<mgrwt>
<rscale>  0 0.87527334E+03</rscale>
<asrwt>0</asrwt>
<pdfrwt beam="1">  1        2 0.13128045E+00 0.87527334E+03</pdfrwt>
<pdfrwt beam="2">  1       -2 0.14646261E+00 0.87527334E+03</pdfrwt>
<totfact> 0.10106486E+01</totfact>
</mgrwt>
</event>
<event>
 4    1  0.4880711E-008  0.8555683E+03  0.7818608E-02  0.9482894E-01
         -2   -1    0    0    0  501 -0.00000000000E+00  0.00000000000E+00  0.10769240968E+04  0.10769240968E+04  0.25500000000E-02 0.  1.
          2   -1    0    0  501    0  0.00000000000E+00 -0.00000000000E+00 -0.16616787753E+04  0.16616787753E+04  0.25500000000E-02 0. -1.
    8880022    1    1    2    0    0  0.47539374437E+03 -0.69469862982E+03  0.76024883908E+03  0.11445415452E+04  0.15294330000E+03 0.  0.
    8880022    1    1    2    0    0 -0.47539374437E+03  0.69469862982E+03 -0.13450035176E+04  0.15940613269E+04  0.15294330000E+03 0.  0.
<mgrwt>
<rscale>  0 0.85556826E+03</rscale>
<asrwt>0</asrwt>
<pdfrwt beam="1">  1        2 0.25564289E+00 0.85556826E+03</pdfrwt>
<pdfrwt beam="2">  1       -2 0.16568063E+00 0.85556826E+03</pdfrwt>
<totfact> 0.23906899E+00</totfact>
</mgrwt>
</event>
<event>
 4    1  0.4880711E-008  0.5234182E+03  0.7818608E-02  0.1007841E+00
          2   -1    0    0  501    0  0.00000000000E+00  0.00000000000E+00  0.11664683630E+04  0.11664683630E+04  0.25500000000E-02 0. -1.
         -2   -1    0    0    0  501 -0.00000000000E+00 -0.00000000000E+00 -0.30158626533E+03  0.30158626534E+03  0.25500000000E-02 0.  1.
    8880022    1    1    2    0    0 -0.35359900458E+03  0.35432011016E+03  0.77768593729E+03  0.93742309902E+03  0.15294330000E+03 0.  0.
    8880022    1    1    2    0    0  0.35359900458E+03 -0.35432011016E+03  0.87196160386E+02  0.53063152932E+03  0.15294330000E+03 0.  0.
<mgrwt>
<rscale>  0 0.52341824E+03</rscale>
<asrwt>0</asrwt>
<pdfrwt beam="1">  1        2 0.17945667E+00 0.52341824E+03</pdfrwt>
<pdfrwt beam="2">  1       -2 0.46397887E-01 0.52341824E+03</pdfrwt>
<totfact> 0.90699856E+01</totfact>
</mgrwt>
</event>
<event>
 4    1  0.4880711E-008  0.8160730E+03  0.7818608E-02  0.9537039E-01
         -2   -1    0    0    0  501 -0.00000000000E+00  0.00000000000E+00  0.39588543490E+03  0.39588543491E+03  0.25500000000E-02 0.  1.
          2   -1    0    0  501    0  0.00000000000E+00 -0.00000000000E+00 -0.23244011696E+04  0.23244011696E+04  0.25500000000E-02 0. -1.
    8880022    1    1    2    0    0 -0.33835201388E+03 -0.72670589444E+03 -0.16791662549E+04  0.18669693374E+04  0.15294330000E+03 0.  0.
    8880022    1    1    2    0    0  0.33835201388E+03  0.72670589444E+03 -0.24934947989E+03  0.85331726716E+03  0.15294330000E+03 0.  0.
<mgrwt>
<rscale>  0 0.81607303E+03</rscale>
<asrwt>0</asrwt>
<pdfrwt beam="1">  1        2 0.35760017E+00 0.81607303E+03</pdfrwt>
<pdfrwt beam="2">  1       -2 0.60905453E-01 0.81607303E+03</pdfrwt>
<totfact> 0.11380648E+01</totfact>
</mgrwt>
</event>
<event>
 4    1  0.4880711E-008  0.5148656E+03  0.7818608E-02  0.1009970E+00
          2   -1    0    0  501    0  0.00000000000E+00  0.00000000000E+00  0.43444011572E+03  0.43444011573E+03  0.25500000000E-02 0. -1.
         -2   -1    0    0    0  501 -0.00000000000E+00 -0.00000000000E+00 -0.12011246279E+04  0.12011246279E+04  0.25500000000E-02 0.  1.
    8880022    1    1    2    0    0 -0.25624935084E+03  0.41956068692E+03  0.19026838866E+03  0.54889763395E+03  0.15294330000E+03 0.  0.
    8880022    1    1    2    0    0  0.25624935084E+03 -0.41956068692E+03 -0.95695290084E+03  0.10866671097E+04  0.15294330000E+03 0.  0.
<mgrwt>
<rscale>  0 0.51486557E+03</rscale>
<asrwt>0</asrwt>
<pdfrwt beam="1">  1        2 0.66836941E-01 0.51486557E+03</pdfrwt>
<pdfrwt beam="2">  1       -2 0.18478840E+00 0.51486557E+03</pdfrwt>
<totfact> 0.12720718E+01</totfact>
</mgrwt>
</event>
<event>
 4    1  0.4880711E-008  0.1018091E+04  0.7818608E-02  0.9288923E-01
          2   -1    0    0  501    0  0.00000000000E+00  0.00000000000E+00  0.26543519449E+04  0.26543519449E+04  0.25500000000E-02 0. -1.
         -2   -1    0    0    0  501 -0.00000000000E+00 -0.00000000000E+00 -0.45864861399E+03  0.45864861400E+03  0.25500000000E-02 0.  1.
    8880022    1    1    2    0    0  0.80825278392E+03 -0.59987020901E+03  0.16978593622E+04  0.19797057603E+04  0.15294330000E+03 0.  0.
    8880022    1    1    2    0    0 -0.80825278392E+03  0.59987020901E+03  0.49784396866E+03  0.11332947986E+04  0.15294330000E+03 0.  0.
<mgrwt>
<rscale>  0 0.10180906E+04</rscale>
<asrwt>0</asrwt>
<pdfrwt beam="1">  1        2 0.40836185E+00 0.10180906E+04</pdfrwt>
<pdfrwt beam="2">  1       -2 0.70561324E-01 0.10180906E+04</pdfrwt>
<totfact> 0.52236854E+00</totfact>
</mgrwt>
</event>
<event>
 4    1  0.4880711E-008  0.3556699E+03  0.7818608E-02  0.1060312E+00
         -2   -1    0    0    0  501 -0.00000000000E+00  0.00000000000E+00  0.15072527286E+03  0.15072527288E+03  0.25500000000E-02 0.  1.
          2   -1    0    0  501    0  0.00000000000E+00 -0.00000000000E+00 -0.13793145659E+04  0.13793145659E+04  0.25500000000E-02 0. -1.
    8880022    1    1    2    0    0 -0.11601968295E+03 -0.29941414352E+03 -0.13560840121E+03  0.38064509410E+03  0.15294330000E+03 0.  0.
    8880022    1    1    2    0    0  0.11601968295E+03  0.29941414352E+03 -0.10929808918E+04  0.11493947447E+04  0.15294330000E+03 0.  0.
<mgrwt>
<rscale>  0 0.35566986E+03</rscale>
<asrwt>0</asrwt>
<pdfrwt beam="1">  1        2 0.21220223E+00 0.35566986E+03</pdfrwt>
<pdfrwt beam="2">  1       -2 0.23188505E-01 0.35566986E+03</pdfrwt>
<totfact> 0.25635575E+02</totfact>
</mgrwt>
</event>
<event>
 4    1  0.4880711E-008  0.3950784E+03  0.7818608E-02  0.1045497E+00
          2   -1    0    0  501    0  0.00000000000E+00  0.00000000000E+00  0.72388393028E+03  0.72388393028E+03  0.25500000000E-02 0. -1.
         -2   -1    0    0    0  501 -0.00000000000E+00 -0.00000000000E+00 -0.87823024053E+03  0.87823024053E+03  0.25500000000E-02 0.  1.
    8880022    1    1    2    0    0  0.33064877856E+03  0.15286158886E+03 -0.77297720125E+03  0.86809025267E+03  0.15294330000E+03 0.  0.
    8880022    1    1    2    0    0 -0.33064877856E+03 -0.15286158886E+03  0.61863089099E+03  0.73402391815E+03  0.15294330000E+03 0. -1.
<mgrwt>
<rscale>  0 0.39507839E+03</rscale>
<asrwt>0</asrwt>
<pdfrwt beam="1">  1        2 0.11136676E+00 0.39507839E+03</pdfrwt>
<pdfrwt beam="2">  1       -2 0.13511235E+00 0.39507839E+03</pdfrwt>
<totfact> 0.16452754E+01</totfact>
</mgrwt>
</event>
<event>
 4    1  0.4880711E-008  0.4642415E+03  0.7818608E-02  0.1023558E+00
         -2   -1    0    0    0  501 -0.00000000000E+00  0.00000000000E+00  0.17480668796E+03  0.17480668798E+03  0.25500000000E-02 0.  1.
          2   -1    0    0  501    0  0.00000000000E+00 -0.00000000000E+00 -0.27495920232E+04  0.27495920232E+04  0.25500000000E-02 0. -1.
    8880022    1    1    2    0    0 -0.40473431096E+03  0.16828138596E+03 -0.23733690029E+04  0.24183466592E+04  0.15294330000E+03 0.  0.
    8880022    1    1    2    0    0  0.40473431096E+03 -0.16828138596E+03 -0.20141633236E+03  0.50605205195E+03  0.15294330000E+03 0.  0.
<mgrwt>
<rscale>  0 0.46424147E+03</rscale>
<asrwt>0</asrwt>
<pdfrwt beam="1">  1        2 0.42301413E+00 0.46424147E+03</pdfrwt>
<pdfrwt beam="2">  1       -2 0.26893339E-01 0.46424147E+03</pdfrwt>
<totfact> 0.34472897E+01</totfact>
</mgrwt>
</event>
<event>
 4    1  0.4880711E-008  0.4670366E+03  0.7818608E-02  0.1022760E+00
         -2   -1    0    0    0  501 -0.00000000000E+00  0.00000000000E+00  0.18515318175E+03  0.18515318177E+03  0.25500000000E-02 0.  1.
          2   -1    0    0  501    0  0.00000000000E+00 -0.00000000000E+00 -0.13915565307E+04  0.13915565307E+04  0.25500000000E-02 0. -1.
    8880022    1    1    2    0    0  0.44086947336E+03  0.19120581643E+02 -0.29441537352E+03  0.55209016869E+03  0.15294330000E+03 0.  0.
    8880022    1    1    2    0    0 -0.44086947336E+03 -0.19120581643E+02 -0.91198797545E+03  0.10246195438E+04  0.15294330000E+03 0.  0.
<mgrwt>
<rscale>  0 0.46703655E+03</rscale>
<asrwt>0</asrwt>
<pdfrwt beam="1">  1        2 0.21408561E+00 0.46703655E+03</pdfrwt>
<pdfrwt beam="2">  1       -2 0.28485106E-01 0.46703655E+03</pdfrwt>
<totfact> 0.17206163E+02</totfact>
</mgrwt>
</event>
<event>
 4    1  0.4880711E-008  0.4150708E+03  0.7818608E-02  0.1038683E+00
          2   -1    0    0  501    0  0.00000000000E+00  0.00000000000E+00  0.88027350353E+03  0.88027350354E+03  0.25500000000E-02 0. -1.
         -2   -1    0    0    0  501 -0.00000000000E+00 -0.00000000000E+00 -0.30203485025E+03  0.30203485026E+03  0.25500000000E-02 0.  1.
    8880022    1    1    2    0    0 -0.17468260141E+03  0.34406118373E+03  0.63985263671E+03  0.76268942507E+03  0.15294330000E+03 0.  0.
    8880022    1    1    2    0    0  0.17468260141E+03 -0.34406118373E+03 -0.61613983432E+02  0.41961892873E+03  0.15294330000E+03 0.  0.
<mgrwt>
<rscale>  0 0.41507079E+03</rscale>
<asrwt>0</asrwt>
<pdfrwt beam="1">  1        2 0.13542669E+00 0.41507079E+03</pdfrwt>
<pdfrwt beam="2">  1       -2 0.46466900E-01 0.41507079E+03</pdfrwt>
<totfact> 0.13809360E+02</totfact>
</mgrwt>
</event>
<event>
 4    1  0.4880711E-008  0.8608665E+03  0.7818608E-02  0.9475867E-01
          2   -1    0    0  501    0  0.00000000000E+00  0.00000000000E+00  0.27434268574E+03  0.27434268576E+03  0.25500000000E-02 0. -1.
         -2   -1    0    0    0  501 -0.00000000000E+00 -0.00000000000E+00 -0.33729954982E+04  0.33729954982E+04  0.25500000000E-02 0.  1.
    8880022    1    1    2    0    0 -0.75930423449E+03 -0.37570802002E+03 -0.73553416921E+03  0.11322992555E+04  0.15294330000E+03 0.  0.
    8880022    1    1    2    0    0  0.75930423449E+03  0.37570802002E+03 -0.23631186432E+04  0.25150389285E+04  0.15294330000E+03 0.  0.
<mgrwt>
<rscale>  0 0.86086648E+03</rscale>
<asrwt>0</asrwt>
<pdfrwt beam="1">  1        2 0.42206570E-01 0.86086648E+03</pdfrwt>
<pdfrwt beam="2">  1       -2 0.51892235E+00 0.86086648E+03</pdfrwt>
<totfact> 0.15836156E-01</totfact>
</mgrwt>
</event>
<event>
 4    1  0.4880711E-008  0.3407479E+03  0.7818608E-02  0.1066478E+00
         -2   -1    0    0    0  501 -0.00000000000E+00  0.00000000000E+00  0.10770540965E+03  0.10770540968E+03  0.25500000000E-02 0.  1.
          2   -1    0    0  501    0  0.00000000000E+00 -0.00000000000E+00 -0.35177114900E+04  0.35177114900E+04  0.25500000000E-02 0. -1.
    8880022    1    1    2    0    0 -0.28932833031E+03 -0.94903031034E+02 -0.19539269330E+03  0.39279438085E+03  0.15294330000E+03 0.  0.
    8880022    1    1    2    0    0  0.28932833031E+03  0.94903031034E+02 -0.32146133871E+04  0.32326225188E+04  0.15294330000E+03 0. -1.
<mgrwt>
<rscale>  0 0.34074788E+03</rscale>
<asrwt>0</asrwt>
<pdfrwt beam="1">  1        2 0.54118629E+00 0.34074788E+03</pdfrwt>
<pdfrwt beam="2">  1       -2 0.16570066E-01 0.34074788E+03</pdfrwt>
<totfact> 0.27896428E+01</totfact>
</mgrwt>
</event>
<event>
 4    1  0.4880711E-008  0.6740677E+03  0.7818608E-02  0.9762637E-01
          2   -1    0    0  501    0  0.00000000000E+00  0.00000000000E+00  0.75872541368E+03  0.75872541368E+03  0.25500000000E-02 0. -1.
         -2   -1    0    0    0  501 -0.00000000000E+00 -0.00000000000E+00 -0.19173398366E+04  0.19173398366E+04  0.25500000000E-02 0.  1.
    8880022    1    1    2    0    0  0.19612190726E+03 -0.62650764896E+03 -0.16888768259E+04  0.18184257540E+04  0.15294330000E+03 0.  0.
    8880022    1    1    2    0    0 -0.19612190726E+03  0.62650764896E+03  0.53026240293E+03  0.85763949634E+03  0.15294330000E+03 0.  0.
<mgrwt>
<rscale>  0 0.67406772E+03</rscale>
<asrwt>0</asrwt>
<pdfrwt beam="1">  1        2 0.11672699E+00 0.67406772E+03</pdfrwt>
<pdfrwt beam="2">  1       -2 0.29497536E+00 0.67406772E+03</pdfrwt>
<totfact> 0.13322301E+00</totfact>
</mgrwt>
</event>
<event>
 4    1  0.4880711E-008  0.6276919E+03  0.7818608E-02  0.9849563E-01
          2   -1    0    0  501    0  0.00000000000E+00  0.00000000000E+00  0.95999429888E+03  0.95999429888E+03  0.25500000000E-02 0. -1.
         -2   -1    0    0    0  501 -0.00000000000E+00 -0.00000000000E+00 -0.63735785167E+03  0.63735785168E+03  0.25500000000E-02 0.  1.
    8880022    1    1    2    0    0  0.52813293215E+03  0.30278880579E+03  0.63789866430E+03  0.89493676529E+03  0.15294330000E+03 0.  0.
    8880022    1    1    2    0    0 -0.52813293215E+03 -0.30278880579E+03 -0.31526221709E+03  0.70241538527E+03  0.15294330000E+03 0.  0.
<mgrwt>
<rscale>  0 0.62769189E+03</rscale>
<asrwt>0</asrwt>
<pdfrwt beam="1">  1        2 0.14769143E+00 0.62769189E+03</pdfrwt>
<pdfrwt beam="2">  1       -2 0.98055054E-01 0.62769189E+03</pdfrwt>
<totfact> 0.23823206E+01</totfact>
</mgrwt>
</event>
<event>
 4    1  0.4880711E-008  0.4080935E+03  0.7818608E-02  0.1041013E+00
         -2   -1    0    0    0  501 -0.00000000000E+00  0.00000000000E+00  0.11902790811E+03  0.11902790813E+03  0.25500000000E-02 0.  1.
          2   -1    0    0  501    0  0.00000000000E+00 -0.00000000000E+00 -0.17675423582E+04  0.17675423582E+04  0.25500000000E-02 0. -1.
    8880022    1    1    2    0    0  0.28611134060E+03  0.24756606460E+03 -0.12548844086E+04  0.13195738659E+04  0.15294330000E+03 0. -1.
    8880022    1    1    2    0    0 -0.28611134060E+03 -0.24756606460E+03 -0.39363004154E+03  0.56699640050E+03  0.15294330000E+03 0.  0.
<mgrwt>
<rscale>  0 0.40809350E+03</rscale>
<asrwt>0</asrwt>
<pdfrwt beam="1">  1        2 0.27192957E+00 0.40809350E+03</pdfrwt>
<pdfrwt beam="2">  1       -2 0.18311987E-01 0.40809350E+03</pdfrwt>
<totfact> 0.23647844E+02</totfact>
</mgrwt>
</event>
<event>
 4    1  0.4880711E-008  0.5238104E+03  0.7818608E-02  0.1007744E+00
         -2   -1    0    0    0  501 -0.00000000000E+00  0.00000000000E+00  0.70035632300E+03  0.70035632300E+03  0.25500000000E-02 0.  1.
          2   -1    0    0  501    0  0.00000000000E+00 -0.00000000000E+00 -0.61984791282E+03  0.61984791283E+03  0.25500000000E-02 0. -1.
    8880022    1    1    2    0    0 -0.27988877903E+03  0.41550922272E+03  0.44067068002E+03  0.68452022909E+03  0.15294330000E+03 0.  0.
    8880022    1    1    2    0    0  0.27988877903E+03 -0.41550922272E+03 -0.36016226984E+03  0.63568400674E+03  0.15294330000E+03 0.  0.
<mgrwt>
<rscale>  0 0.52381036E+03</rscale>
<asrwt>0</asrwt>
<pdfrwt beam="1">  1        2 0.95361218E-01 0.52381036E+03</pdfrwt>
<pdfrwt beam="2">  1       -2 0.10774713E+00 0.52381036E+03</pdfrwt>
<totfact> 0.34072188E+01</totfact>
</mgrwt>
</event>
<event>
 4    1  0.4880711E-008  0.2628355E+03  0.7818608E-02  0.1105451E+00
          2   -1    0    0  501    0  0.00000000000E+00  0.00000000000E+00  0.15741352348E+04  0.15741352348E+04  0.25500000000E-02 0. -1.
         -2   -1    0    0    0  501 -0.00000000000E+00 -0.00000000000E+00 -0.63927716226E+03  0.63927716227E+03  0.25500000000E-02 0.  1.
    8880022    1    1    2    0    0  0.13294705998E+02 -0.21334031112E+03  0.15354725364E+04  0.15578056363E+04  0.15294330000E+03 0. -1.
    8880022    1    1    2    0    0 -0.13294705998E+02  0.21334031112E+03 -0.60061446384E+03  0.65560676075E+03  0.15294330000E+03 0.  0.
<mgrwt>
<rscale>  0 0.26283548E+03</rscale>
<asrwt>0</asrwt>
<pdfrwt beam="1">  1        2 0.24217465E+00 0.26283548E+03</pdfrwt>
<pdfrwt beam="2">  1       -2 0.98350333E-01 0.26283548E+03</pdfrwt>
<totfact> 0.11353536E+01</totfact>
</mgrwt>
</event>
<event>
 4    1  0.4880711E-008  0.8815631E+03  0.7818608E-02  0.9448927E-01
         -2   -1    0    0    0  501 -0.00000000000E+00  0.00000000000E+00  0.86627351816E+03  0.86627351816E+03  0.25500000000E-02 0.  1.
          2   -1    0    0  501    0  0.00000000000E+00 -0.00000000000E+00 -0.97868988018E+03  0.97868988019E+03  0.25500000000E-02 0. -1.
    8880022    1    1    2    0    0  0.83764603830E+03  0.22827807411E+03 -0.32252194361E+03  0.93870859255E+03  0.15294330000E+03 0.  0.
    8880022    1    1    2    0    0 -0.83764603830E+03 -0.22827807411E+03  0.21010558159E+03  0.90625480580E+03  0.15294330000E+03 0.  0.
<mgrwt>
<rscale>  0 0.88156305E+03</rscale>
<asrwt>0</asrwt>
<pdfrwt beam="1">  1        2 0.15056767E+00 0.88156305E+03</pdfrwt>
<pdfrwt beam="2">  1       -2 0.13327285E+00 0.88156305E+03</pdfrwt>
<totfact> 0.10630973E+01</totfact>
</mgrwt>
</event>
<event>
 4    1  0.4880711E-008  0.6777824E+03  0.7818608E-02  0.9756000E-01
          2   -1    0    0  501    0  0.00000000000E+00  0.00000000000E+00  0.46491269307E+04  0.46491269307E+04  0.25500000000E-02 0. -1.
         -2   -1    0    0    0  501 -0.00000000000E+00 -0.00000000000E+00 -0.13622516266E+03  0.13622516268E+03  0.25500000000E-02 0.  1.
    8880022    1    1    2    0    0  0.10425967599E+03  0.65201786038E+03  0.10025359400E+04  0.12101517815E+04  0.15294330000E+03 0.  0.
    8880022    1    1    2    0    0 -0.10425967599E+03 -0.65201786038E+03  0.35103658280E+04  0.35752003119E+04  0.15294330000E+03 0.  0.
<mgrwt>
<rscale>  0 0.67778243E+03</rscale>
<asrwt>0</asrwt>
<pdfrwt beam="1">  1        2 0.71525017E+00 0.67778243E+03</pdfrwt>
<pdfrwt beam="2">  1       -2 0.20957721E-01 0.67778243E+03</pdfrwt>
<totfact> 0.19919301E+00</totfact>
</mgrwt>
</event>
<event>
 4    1  0.4880711E-008  0.3840682E+03  0.7818608E-02  0.1049440E+00
         -2   -1    0    0    0  501 -0.00000000000E+00  0.00000000000E+00  0.20440871303E+03  0.20440871305E+03  0.25500000000E-02 0.  1.
          2   -1    0    0  501    0  0.00000000000E+00 -0.00000000000E+00 -0.11539210253E+04  0.11539210253E+04  0.25500000000E-02 0. -1.
    8880022    1    1    2    0    0  0.33070643176E+02 -0.35074648082E+03 -0.59062943362E+02  0.38858312565E+03  0.15294330000E+03 0.  0.
    8880022    1    1    2    0    0 -0.33070643176E+02  0.35074648082E+03 -0.89044936894E+03  0.96974661274E+03  0.15294330000E+03 0.  0.
<mgrwt>
<rscale>  0 0.38406824E+03</rscale>
<asrwt>0</asrwt>
<pdfrwt beam="1">  1        2 0.17752631E+00 0.38406824E+03</pdfrwt>
<pdfrwt beam="2">  1       -2 0.31447495E-01 0.38406824E+03</pdfrwt>
<totfact> 0.19791100E+02</totfact>
</mgrwt>
</event>
<event>
 4    1  0.4880711E-008  0.8586410E+03  0.7818608E-02  0.9478812E-01
         -2   -1    0    0    0  501 -0.00000000000E+00  0.00000000000E+00  0.12281241523E+04  0.12281241523E+04  0.25500000000E-02 0.  1.
          2   -1    0    0  501    0  0.00000000000E+00 -0.00000000000E+00 -0.79657796444E+03  0.79657796445E+03  0.25500000000E-02 0. -1.
    8880022    1    1    2    0    0  0.65779606415E+03 -0.53026138028E+03 -0.28672380397E+03  0.90524857703E+03  0.15294330000E+03 0.  0.
    8880022    1    1    2    0    0 -0.65779606415E+03  0.53026138028E+03  0.71826999184E+03  0.11194535397E+04  0.15294330000E+03 0.  0.
<mgrwt>
<rscale>  0 0.85864105E+03</rscale>
<asrwt>0</asrwt>
<pdfrwt beam="1">  1        2 0.12255046E+00 0.85864105E+03</pdfrwt>
<pdfrwt beam="2">  1       -2 0.18894218E+00 0.85864105E+03</pdfrwt>
<totfact> 0.54964872E+00</totfact>
</mgrwt>
</event>
<event>
 4    1  0.4880711E-008  0.2799491E+03  0.7818608E-02  0.1095717E+00
         -2   -1    0    0    0  501 -0.00000000000E+00  0.00000000000E+00  0.80632258285E+02  0.80632258326E+02  0.25500000000E-02 0.  1.
          2   -1    0    0  501    0  0.00000000000E+00 -0.00000000000E+00 -0.17649958788E+04  0.17649958788E+04  0.25500000000E-02 0. -1.
    8880022    1    1    2    0    0  0.22407507793E+03 -0.69066606704E+02 -0.14607509281E+04  0.14873347854E+04  0.15294330000E+03 0.  0.
    8880022    1    1    2    0    0 -0.22407507793E+03  0.69066606704E+02 -0.22361269241E+03  0.35829335178E+03  0.15294330000E+03 0.  1.
<mgrwt>
<rscale>  0 0.27994908E+03</rscale>
<asrwt>0</asrwt>
<pdfrwt beam="1">  1        2 0.27153780E+00 0.27994908E+03</pdfrwt>
<pdfrwt beam="2">  1       -2 0.12404964E-01 0.27994908E+03</pdfrwt>
<totfact> 0.46323226E+02</totfact>
</mgrwt>
</event>
<event>
 4    1  0.4880711E-008  0.4606567E+03  0.7818608E-02  0.1024591E+00
         -2   -1    0    0    0  501 -0.00000000000E+00  0.00000000000E+00  0.29773491600E+03  0.29773491601E+03  0.25500000000E-02 0.  1.
          2   -1    0    0  501    0  0.00000000000E+00 -0.00000000000E+00 -0.92913619901E+03  0.92913619901E+03  0.25500000000E-02 0. -1.
    8880022    1    1    2    0    0 -0.40021400633E+03 -0.16923861811E+03 -0.61174997019E+03  0.76579542945E+03  0.15294330000E+03 0.  0.
    8880022    1    1    2    0    0  0.40021400633E+03  0.16923861811E+03 -0.19651312818E+02  0.46107568558E+03  0.15294330000E+03 0.  0.
<mgrwt>
<rscale>  0 0.46065672E+03</rscale>
<asrwt>0</asrwt>
<pdfrwt beam="1">  1        2 0.14294403E+00 0.46065672E+03</pdfrwt>
<pdfrwt beam="2">  1       -2 0.45805372E-01 0.46065672E+03</pdfrwt>
<totfact> 0.13128955E+02</totfact>
</mgrwt>
</event>
<event>
 4    1  0.4880711E-008  0.6681885E+03  0.7818608E-02  0.9773236E-01
         -2   -1    0    0    0  501 -0.00000000000E+00  0.00000000000E+00  0.24148767515E+03  0.24148767516E+03  0.25500000000E-02 0.  1.
          2   -1    0    0  501    0  0.00000000000E+00 -0.00000000000E+00 -0.24191992739E+04  0.24191992739E+04  0.25500000000E-02 0. -1.
    8880022    1    1    2    0    0  0.63984778322E+03  0.11695737655E+03 -0.44290976662E+03  0.80165137560E+03  0.15294330000E+03 0.  0.
    8880022    1    1    2    0    0 -0.63984778322E+03 -0.11695737655E+03 -0.17348018322E+04  0.18590355735E+04  0.15294330000E+03 0.  0.
<mgrwt>
<rscale>  0 0.66818850E+03</rscale>
<asrwt>0</asrwt>
<pdfrwt beam="1">  1        2 0.37218449E+00 0.66818850E+03</pdfrwt>
<pdfrwt beam="2">  1       -2 0.37151952E-01 0.66818850E+03</pdfrwt>
<totfact> 0.27929196E+01</totfact>
</mgrwt>
</event>
<event>
 4    1  0.4880711E-008  0.4124841E+03  0.7818608E-02  0.1039541E+00
         -2   -1    0    0    0  501 -0.00000000000E+00  0.00000000000E+00  0.46483167777E+03  0.46483167777E+03  0.25500000000E-02 0.  1.
          2   -1    0    0  501    0  0.00000000000E+00 -0.00000000000E+00 -0.41715126583E+03  0.41715126584E+03  0.25500000000E-02 0. -1.
    8880022    1    1    2    0    0  0.28929910766E+03 -0.25111257789E+03 -0.13053472083E+03  0.43264589080E+03  0.15294330000E+03 0.  0.
    8880022    1    1    2    0    0 -0.28929910766E+03  0.25111257789E+03  0.17821513277E+03  0.44933705281E+03  0.15294330000E+03 0.  0.
<mgrwt>
<rscale>  0 0.41248413E+03</rscale>
<asrwt>0</asrwt>
<pdfrwt beam="1">  1        2 0.64177118E-01 0.41248413E+03</pdfrwt>
<pdfrwt beam="2">  1       -2 0.71512566E-01 0.41248413E+03</pdfrwt>
<totfact> 0.13846414E+02</totfact>
</mgrwt>
</event>
<event>
 4    1  0.4880711E-008  0.7250331E+03  0.7818608E-02  0.9675355E-01
          2   -1    0    0  501    0  0.00000000000E+00  0.00000000000E+00  0.12247556430E+04  0.12247556430E+04  0.25500000000E-02 0. -1.
         -2   -1    0    0    0  501 -0.00000000000E+00 -0.00000000000E+00 -0.13282121032E+04  0.13282121033E+04  0.25500000000E-02 0.  1.
    8880022    1    1    2    0    0 -0.24413375187E+02  0.70829744163E+03 -0.11019060577E+04  0.13190412775E+04  0.15294330000E+03 0.  1.
    8880022    1    1    2    0    0  0.24413375187E+02 -0.70829744163E+03  0.99844959747E+03  0.12339264688E+04  0.15294330000E+03 0.  0.
<mgrwt>
<rscale>  0 0.72503306E+03</rscale>
<asrwt>0</asrwt>
<pdfrwt beam="1">  1        2 0.18842395E+00 0.72503306E+03</pdfrwt>
<pdfrwt beam="2">  1       -2 0.20434032E+00 0.72503306E+03</pdfrwt>
<totfact> 0.23548137E+00</totfact>
</mgrwt>
</event>
<event>
 4    1  0.4880711E-008  0.2434250E+03  0.7818608E-02  0.1117532E+00
         -2   -1    0    0    0  501 -0.00000000000E+00  0.00000000000E+00  0.54090173087E+03  0.54090173088E+03  0.25500000000E-02 0.  1.
          2   -1    0    0  501    0  0.00000000000E+00 -0.00000000000E+00 -0.12849026824E+04  0.12849026824E+04  0.25500000000E-02 0. -1.
    8880022    1    1    2    0    0 -0.57521147360E+02  0.18043115757E+03  0.50111815682E+03  0.55711322469E+03  0.15294330000E+03 0.  0.
    8880022    1    1    2    0    0  0.57521147360E+02 -0.18043115757E+03 -0.12451191084E+04  0.12686911886E+04  0.15294330000E+03 0.  0.
<mgrwt>
<rscale>  0 0.24342502E+03</rscale>
<asrwt>0</asrwt>
<pdfrwt beam="1">  1        2 0.19767734E+00 0.24342502E+03</pdfrwt>
<pdfrwt beam="2">  1       -2 0.83215651E-01 0.24342502E+03</pdfrwt>
<totfact> 0.23974761E+01</totfact>
</mgrwt>
</event>
<event>
 4    1  0.4880711E-008  0.4184706E+03  0.7818608E-02  0.1037565E+00
          2   -1    0    0  501    0  0.00000000000E+00  0.00000000000E+00  0.15798384556E+04  0.15798384556E+04  0.25500000000E-02 0. -1.
         -2   -1    0    0    0  501 -0.00000000000E+00 -0.00000000000E+00 -0.16857431857E+03  0.16857431859E+03  0.25500000000E-02 0.  1.
    8880022    1    1    2    0    0  0.37154392442E+03  0.11696621669E+03  0.12172142736E+04  0.12871395513E+04  0.15294330000E+03 0.  0.
    8880022    1    1    2    0    0 -0.37154392442E+03 -0.11696621669E+03  0.19404986336E+03  0.46127322284E+03  0.15294330000E+03 0.  0.
<mgrwt>
<rscale>  0 0.41847059E+03</rscale>
<asrwt>0</asrwt>
<pdfrwt beam="1">  1        2 0.24305207E+00 0.41847059E+03</pdfrwt>
<pdfrwt beam="2">  1       -2 0.25934511E-01 0.41847059E+03</pdfrwt>
<totfact> 0.16184263E+02</totfact>
</mgrwt>
</event>
<event>
 4    1  0.4880711E-008  0.4842410E+03  0.7818608E-02  0.1017976E+00
          2   -1    0    0  501    0  0.00000000000E+00  0.00000000000E+00  0.54869927622E+03  0.54869927623E+03  0.25500000000E-02 0. -1.
         -2   -1    0    0    0  501 -0.00000000000E+00 -0.00000000000E+00 -0.57981469101E+03  0.57981469102E+03  0.25500000000E-02 0.  1.
    8880022    1    1    2    0    0 -0.45945369692E+03 -0.11822614694E+00  0.27378323103E+03  0.55627926817E+03  0.15294330000E+03 0.  1.
    8880022    1    1    2    0    0  0.45945369692E+03  0.11822614694E+00 -0.30489864582E+03  0.57223469908E+03  0.15294330000E+03 0.  0.
<mgrwt>
<rscale>  0 0.48424102E+03</rscale>
<asrwt>0</asrwt>
<pdfrwt beam="1">  1        2 0.84415274E-01 0.48424102E+03</pdfrwt>
<pdfrwt beam="2">  1       -2 0.89202260E-01 0.48424102E+03</pdfrwt>
<totfact> 0.61546153E+01</totfact>
</mgrwt>
</event>
<event>
 4    1  0.4880711E-008  0.5259260E+03  0.7818608E-02  0.1007225E+00
          2   -1    0    0  501    0  0.00000000000E+00  0.00000000000E+00  0.12594399147E+04  0.12594399147E+04  0.25500000000E-02 0. -1.
         -2   -1    0    0    0  501 -0.00000000000E+00 -0.00000000000E+00 -0.36101541317E+03  0.36101541318E+03  0.25500000000E-02 0.  1.
    8880022    1    1    2    0    0 -0.49647544265E+03 -0.81967298282E+02 -0.57850726685E+02  0.52909815983E+03  0.15294330000E+03 0.  0.
    8880022    1    1    2    0    0  0.49647544265E+03  0.81967298282E+02  0.95627522823E+03  0.10913571681E+04  0.15294330000E+03 0.  0.
<mgrwt>
<rscale>  0 0.52592600E+03</rscale>
<asrwt>0</asrwt>
<pdfrwt beam="1">  1        2 0.19375999E+00 0.52592600E+03</pdfrwt>
<pdfrwt beam="2">  1       -2 0.55540832E-01 0.52592600E+03</pdfrwt>
<totfact> 0.55548491E+01</totfact>
</mgrwt>
</event>
<event>
 4    1  0.4880711E-008  0.4054019E+03  0.7818608E-02  0.1041925E+00
          2   -1    0    0  501    0  0.00000000000E+00  0.00000000000E+00  0.37928769294E+03  0.37928769295E+03  0.25500000000E-02 0. -1.
         -2   -1    0    0    0  501 -0.00000000000E+00 -0.00000000000E+00 -0.17778549242E+04  0.17778549242E+04  0.25500000000E-02 0.  1.
    8880022    1    1    2    0    0  0.36051510978E+03  0.10482314633E+03 -0.16372509355E+04  0.16866953831E+04  0.15294330000E+03 0.  1.
    8880022    1    1    2    0    0 -0.36051510978E+03 -0.10482314633E+03  0.23868370424E+03  0.47044723410E+03  0.15294330000E+03 0.  0.
<mgrwt>
<rscale>  0 0.40540189E+03</rscale>
<asrwt>0</asrwt>
<pdfrwt beam="1">  1        2 0.58351954E-01 0.40540189E+03</pdfrwt>
<pdfrwt beam="2">  1       -2 0.27351614E+00 0.40540189E+03</pdfrwt>
<totfact> 0.42839661E+00</totfact>
</mgrwt>
</event>
<event>
 4    1  0.4880711E-008  0.3736176E+03  0.7818608E-02  0.1053318E+00
         -2   -1    0    0    0  501 -0.00000000000E+00  0.00000000000E+00  0.22618031760E+03  0.22618031761E+03  0.25500000000E-02 0.  1.
          2   -1    0    0  501    0  0.00000000000E+00 -0.00000000000E+00 -0.16277479430E+04  0.16277479430E+04  0.25500000000E-02 0. -1.
    8880022    1    1    2    0    0  0.33982810806E+03  0.26745276329E+02 -0.14311754292E+04  0.14791393494E+04  0.15294330000E+03 0.  0.
    8880022    1    1    2    0    0 -0.33982810806E+03 -0.26745276329E+02  0.29607803877E+02  0.37478891112E+03  0.15294330000E+03 0.  0.
<mgrwt>
<rscale>  0 0.37361759E+03</rscale>
<asrwt>0</asrwt>
<pdfrwt beam="1">  1        2 0.25042275E+00 0.37361759E+03</pdfrwt>
<pdfrwt beam="2">  1       -2 0.34796973E-01 0.37361759E+03</pdfrwt>
<totfact> 0.89556731E+01</totfact>
</mgrwt>
</event>
<event>
 4    1  0.4880711E-008  0.8581441E+03  0.7818608E-02  0.9479471E-01
         -2   -1    0    0    0  501 -0.00000000000E+00  0.00000000000E+00  0.14883669806E+04  0.14883669806E+04  0.25500000000E-02 0.  1.
          2   -1    0    0  501    0  0.00000000000E+00 -0.00000000000E+00 -0.11158279042E+04  0.11158279042E+04  0.25500000000E-02 0. -1.
    8880022    1    1    2    0    0 -0.54457864149E+03 -0.64533222896E+03 -0.78515289185E+03  0.11631321073E+04  0.15294330000E+03 0.  0.
    8880022    1    1    2    0    0  0.54457864149E+03  0.64533222896E+03  0.11576919682E+04  0.14410627776E+04  0.15294330000E+03 0.  1.
<mgrwt>
<rscale>  0 0.85814406E+03</rscale>
<asrwt>0</asrwt>
<pdfrwt beam="1">  1        2 0.17166583E+00 0.85814406E+03</pdfrwt>
<pdfrwt beam="2">  1       -2 0.22897954E+00 0.85814406E+03</pdfrwt>
<totfact> 0.18735910E+00</totfact>
</mgrwt>
</event>
<event>
 4    1  0.4880711E-008  0.4204362E+03  0.7818608E-02  0.1036924E+00
         -2   -1    0    0    0  501 -0.00000000000E+00  0.00000000000E+00  0.20321975785E+03  0.20321975787E+03  0.25500000000E-02 0.  1.
          2   -1    0    0  501    0  0.00000000000E+00 -0.00000000000E+00 -0.14120602808E+04  0.14120602808E+04  0.25500000000E-02 0. -1.
    8880022    1    1    2    0    0  0.25746743101E+03 -0.29510247982E+03 -0.10394436167E+03  0.43309471823E+03  0.15294330000E+03 0.  0.
    8880022    1    1    2    0    0 -0.25746743101E+03  0.29510247982E+03 -0.11048961612E+04  0.11821853204E+04  0.15294330000E+03 0.  0.
<mgrwt>
<rscale>  0 0.42043621E+03</rscale>
<asrwt>0</asrwt>
<pdfrwt beam="1">  1        2 0.21724004E+00 0.42043621E+03</pdfrwt>
<pdfrwt beam="2">  1       -2 0.31264579E-01 0.42043621E+03</pdfrwt>
<totfact> 0.14211057E+02</totfact>
</mgrwt>
</event>
<event>
 4    1  0.4880711E-008  0.1054701E+04  0.7818608E-02  0.9250504E-01
         -2   -1    0    0    0  501 -0.00000000000E+00  0.00000000000E+00  0.11013984104E+04  0.11013984104E+04  0.25500000000E-02 0.  1.
          2   -1    0    0  501    0  0.00000000000E+00 -0.00000000000E+00 -0.12520036977E+04  0.12520036978E+04  0.25500000000E-02 0. -1.
    8880022    1    1    2    0    0 -0.29905541302E+03  0.99978396520E+03 -0.59265866744E+03  0.12098091032E+04  0.15294330000E+03 0.  0.
    8880022    1    1    2    0    0  0.29905541302E+03 -0.99978396520E+03  0.44205338013E+03  0.11435930050E+04  0.15294330000E+03 0.  0.
<mgrwt>
<rscale>  0 0.10547008E+04</rscale>
<asrwt>0</asrwt>
<pdfrwt beam="1">  1        2 0.19261595E+00 0.10547008E+04</pdfrwt>
<pdfrwt beam="2">  1       -2 0.16944591E+00 0.10547008E+04</pdfrwt>
<totfact> 0.37389218E+00</totfact>
</mgrwt>
</event>
<event>
 4    1  0.4880711E-008  0.1359417E+04  0.7818608E-02  0.8983730E-01
         -2   -1    0    0    0  501 -0.00000000000E+00  0.00000000000E+00  0.22174169463E+04  0.22174169463E+04  0.25500000000E-02 0.  1.
          2   -1    0    0  501    0  0.00000000000E+00 -0.00000000000E+00 -0.84379271993E+03  0.84379271993E+03  0.25500000000E-02 0. -1.
    8880022    1    1    2    0    0 -0.86371291707E+02  0.13480218387E+04  0.51701575803E+03  0.14544139111E+04  0.15294330000E+03 0.  0.
    8880022    1    1    2    0    0  0.86371291707E+02 -0.13480218387E+04  0.85660846836E+03  0.16067957552E+04  0.15294330000E+03 0.  0.
<mgrwt>
<rscale>  0 0.13594170E+04</rscale>
<asrwt>0</asrwt>
<pdfrwt beam="1">  1        2 0.12981427E+00 0.13594170E+04</pdfrwt>
<pdfrwt beam="2">  1       -2 0.34114106E+00 0.13594170E+04</pdfrwt>
<totfact> 0.54779953E-01</totfact>
</mgrwt>
</event>
<event>
 4    1  0.4880711E-008  0.3255462E+03  0.7818608E-02  0.1073125E+00
         -2   -1    0    0    0  501 -0.00000000000E+00  0.00000000000E+00  0.61011793541E+03  0.61011793542E+03  0.25500000000E-02 0.  1.
          2   -1    0    0  501    0  0.00000000000E+00 -0.00000000000E+00 -0.28309262222E+03  0.28309262223E+03  0.25500000000E-02 0. -1.
    8880022    1    1    2    0    0 -0.28737589540E+03  0.19405672538E+01  0.44112857000E+03  0.54824696930E+03  0.15294330000E+03 0.  0.
    8880022    1    1    2    0    0  0.28737589540E+03 -0.19405672538E+01 -0.11410325681E+03  0.34496358835E+03  0.15294330000E+03 0.  0.
<mgrwt>
<rscale>  0 0.32554619E+03</rscale>
<asrwt>0</asrwt>
<pdfrwt beam="1">  1        2 0.43552712E-01 0.32554619E+03</pdfrwt>
<pdfrwt beam="2">  1       -2 0.93864296E-01 0.32554619E+03</pdfrwt>
<totfact> 0.11607151E+02</totfact>
</mgrwt>
</event>
<event>
 4    1  0.4880711E-008  0.1769955E+03  0.7818608E-02  0.1170743E+00
         -2   -1    0    0    0  501 -0.00000000000E+00  0.00000000000E+00  0.16814076697E+03  0.16814076699E+03  0.25500000000E-02 0.  1.
          2   -1    0    0  501    0  0.00000000000E+00 -0.00000000000E+00 -0.49361210325E+03  0.49361210326E+03  0.25500000000E-02 0. -1.
    8880022    1    1    2    0    0  0.66989189383E+02 -0.58721456007E+02  0.98330773358E+02  0.20247556617E+03  0.15294330000E+03 0.  1.
    8880022    1    1    2    0    0 -0.66989189383E+02  0.58721456007E+02 -0.42380210964E+03  0.45927730408E+03  0.15294330000E+03 0.  0.
<mgrwt>
<rscale>  0 0.17699552E+03</rscale>
<asrwt>0</asrwt>
<pdfrwt beam="1">  1        2 0.75940323E-01 0.17699552E+03</pdfrwt>
<pdfrwt beam="2">  1       -2 0.25867811E-01 0.17699552E+03</pdfrwt>
<totfact> 0.84555717E+02</totfact>
</mgrwt>
</event>
<event>
 4    1  0.4880711E-008  0.7658510E+03  0.7818608E-02  0.9610806E-01
          2   -1    0    0  501    0  0.00000000000E+00  0.00000000000E+00  0.82513390321E+03  0.82513390321E+03  0.25500000000E-02 0. -1.
         -2   -1    0    0    0  501 -0.00000000000E+00 -0.00000000000E+00 -0.87669316477E+03  0.87669316477E+03  0.25500000000E-02 0.  1.
    8880022    1    1    2    0    0 -0.33129462854E+02 -0.74969230982E+03 -0.39589747159E+03  0.86212677823E+03  0.15294330000E+03 0.  0.
    8880022    1    1    2    0    0  0.33129462854E+02  0.74969230982E+03  0.34433821003E+03  0.83970028976E+03  0.15294330000E+03 0.  0.
<mgrwt>
<rscale>  0 0.76585101E+03</rscale>
<asrwt>0</asrwt>
<pdfrwt beam="1">  1        2 0.12694368E+00 0.76585101E+03</pdfrwt>
<pdfrwt beam="2">  1       -2 0.13487587E+00 0.76585101E+03</pdfrwt>
<totfact> 0.13248180E+01</totfact>
</mgrwt>
</event>
<event>
 4    1  0.4880711E-008  0.1123418E+04  0.7818608E-02  0.9182663E-01
         -2   -1    0    0    0  501 -0.00000000000E+00  0.00000000000E+00  0.88617680743E+03  0.88617680743E+03  0.25500000000E-02 0.  1.
          2   -1    0    0  501    0  0.00000000000E+00 -0.00000000000E+00 -0.15240867480E+04  0.15240867480E+04  0.25500000000E-02 0. -1.
    8880022    1    1    2    0    0  0.69155093132E+03  0.87202872419E+03 -0.10391935649E+02  0.11234662575E+04  0.15294330000E+03 0.  0.
    8880022    1    1    2    0    0 -0.69155093132E+03 -0.87202872419E+03 -0.62751800493E+03  0.12867972979E+04  0.15294330000E+03 0.  0.
<mgrwt>
<rscale>  0 0.11234182E+04</rscale>
<asrwt>0</asrwt>
<pdfrwt beam="1">  1        2 0.23447488E+00 0.11234182E+04</pdfrwt>
<pdfrwt beam="2">  1       -2 0.13633489E+00 0.11234182E+04</pdfrwt>
<totfact> 0.46400927E+00</totfact>
</mgrwt>
</event>
<event>
 4    1  0.4880711E-008  0.6819078E+03  0.7818608E-02  0.9748682E-01
          2   -1    0    0  501    0  0.00000000000E+00  0.00000000000E+00  0.22339058557E+04  0.22339058557E+04  0.25500000000E-02 0. -1.
         -2   -1    0    0    0  501 -0.00000000000E+00 -0.00000000000E+00 -0.23577430346E+03  0.23577430348E+03  0.25500000000E-02 0.  1.
    8880022    1    1    2    0    0 -0.65404267136E+03 -0.11762117288E+03  0.57642589434E+03  0.89289698227E+03  0.15294330000E+03 0.  0.
    8880022    1    1    2    0    0  0.65404267136E+03  0.11762117288E+03  0.14217056579E+04  0.15767831769E+04  0.15294330000E+03 0.  0.
<mgrwt>
<rscale>  0 0.68190777E+03</rscale>
<asrwt>0</asrwt>
<pdfrwt beam="1">  1        2 0.34367783E+00 0.68190777E+03</pdfrwt>
<pdfrwt beam="2">  1       -2 0.36272969E-01 0.68190777E+03</pdfrwt>
<totfact> 0.36976470E+01</totfact>
</mgrwt>
</event>
<event>
 4    1  0.4880711E-008  0.1117216E+04  0.7818608E-02  0.9188572E-01
          2   -1    0    0  501    0  0.00000000000E+00  0.00000000000E+00  0.19106614230E+04  0.19106614230E+04  0.25500000000E-02 0. -1.
         -2   -1    0    0    0  501 -0.00000000000E+00 -0.00000000000E+00 -0.90880718522E+03  0.90880718522E+03  0.25500000000E-02 0.  1.
    8880022    1    1    2    0    0  0.97061688327E+03 -0.53167953226E+03  0.12484613048E+04  0.16753589292E+04  0.15294330000E+03 0.  0.
    8880022    1    1    2    0    0 -0.97061688327E+03  0.53167953226E+03 -0.24660706700E+03  0.11441096790E+04  0.15294330000E+03 0.  0.
<mgrwt>
<rscale>  0 0.11172161E+04</rscale>
<asrwt>0</asrwt>
<pdfrwt beam="1">  1        2 0.29394791E+00 0.11172161E+04</pdfrwt>
<pdfrwt beam="2">  1       -2 0.13981649E+00 0.11172161E+04</pdfrwt>
<totfact> 0.26529168E+00</totfact>
</mgrwt>
</event>
<event>
 4    1  0.4880711E-008  0.2121469E+03  0.7818608E-02  0.1139877E+00
          2   -1    0    0  501    0  0.00000000000E+00  0.00000000000E+00  0.20404520517E+03  0.20404520518E+03  0.25500000000E-02 0. -1.
         -2   -1    0    0    0  501 -0.00000000000E+00 -0.00000000000E+00 -0.27746199405E+03  0.27746199406E+03  0.25500000000E-02 0.  1.
    8880022    1    1    2    0    0  0.14186053022E+03  0.38603543459E+02 -0.14572577950E+03  0.25737579417E+03  0.15294330000E+03 0.  0.
    8880022    1    1    2    0    0 -0.14186053022E+03 -0.38603543459E+02  0.72308990609E+02  0.22413140507E+03  0.15294330000E+03 0.  0.
<mgrwt>
<rscale>  0 0.21214688E+03</rscale>
<asrwt>0</asrwt>
<pdfrwt beam="1">  1        2 0.31391570E-01 0.21214688E+03</pdfrwt>
<pdfrwt beam="2">  1       -2 0.42686461E-01 0.21214688E+03</pdfrwt>
<totfact> 0.87405085E+02</totfact>
</mgrwt>
</event>
<event>
 4    1  0.4880711E-008  0.8225598E+03  0.7818608E-02  0.9527925E-01
         -2   -1    0    0    0  501 -0.00000000000E+00  0.00000000000E+00  0.38873833852E+03  0.38873833853E+03  0.25500000000E-02 0.  1.
          2   -1    0    0  501    0  0.00000000000E+00 -0.00000000000E+00 -0.30969660216E+04  0.30969660216E+04  0.25500000000E-02 0. -1.
    8880022    1    1    2    0    0  0.42080095044E+03  0.69002865503E+03 -0.25075525027E+04  0.26390195512E+04  0.15294330000E+03 0.  0.
    8880022    1    1    2    0    0 -0.42080095044E+03 -0.69002865503E+03 -0.20067518035E+03  0.84668480893E+03  0.15294330000E+03 0.  0.
<mgrwt>
<rscale>  0 0.82255981E+03</rscale>
<asrwt>0</asrwt>
<pdfrwt beam="1">  1        2 0.47645630E+00 0.82255981E+03</pdfrwt>
<pdfrwt beam="2">  1       -2 0.59805900E-01 0.82255981E+03</pdfrwt>
<totfact> 0.41596596E+00</totfact>
</mgrwt>
</event>
<event>
 4    1  0.4880711E-008  0.5030681E+03  0.7818608E-02  0.1012981E+00
         -2   -1    0    0    0  501 -0.00000000000E+00  0.00000000000E+00  0.35734713865E+03  0.35734713866E+03  0.25500000000E-02 0.  1.
          2   -1    0    0  501    0  0.00000000000E+00 -0.00000000000E+00 -0.21204544587E+04  0.21204544587E+04  0.25500000000E-02 0. -1.
    8880022    1    1    2    0    0  0.42252774246E+03  0.22617734632E+03  0.12950577798E+03  0.51947019614E+03  0.15294330000E+03 0.  1.
    8880022    1    1    2    0    0 -0.42252774246E+03 -0.22617734632E+03 -0.18926130981E+04  0.19583314012E+04  0.15294330000E+03 0.  0.
<mgrwt>
<rscale>  0 0.50306812E+03</rscale>
<asrwt>0</asrwt>
<pdfrwt beam="1">  1        2 0.32622375E+00 0.50306812E+03</pdfrwt>
<pdfrwt beam="2">  1       -2 0.54976484E-01 0.50306812E+03</pdfrwt>
<totfact> 0.19285160E+01</totfact>
</mgrwt>
</event>
<event>
 4    1  0.4880711E-008  0.3936340E+03  0.7818608E-02  0.1046007E+00
          2   -1    0    0  501    0  0.00000000000E+00  0.00000000000E+00  0.11842739346E+04  0.11842739346E+04  0.25500000000E-02 0. -1.
         -2   -1    0    0    0  501 -0.00000000000E+00 -0.00000000000E+00 -0.68343001366E+03  0.68343001367E+03  0.25500000000E-02 0.  1.
    8880022    1    1    2    0    0  0.80345000734E+01  0.36261760994E+03 -0.58929595234E+03  0.70867302523E+03  0.15294330000E+03 0.  0.
    8880022    1    1    2    0    0 -0.80345000734E+01 -0.36261760994E+03  0.10901398733E+04  0.11590309230E+04  0.15294330000E+03 0.  0.
<mgrwt>
<rscale>  0 0.39363401E+03</rscale>
<asrwt>0</asrwt>
<pdfrwt beam="1">  1        2 0.18219599E+00 0.39363401E+03</pdfrwt>
<pdfrwt beam="2">  1       -2 0.10514308E+00 0.39363401E+03</pdfrwt>
<totfact> 0.15308765E+01</totfact>
</mgrwt>
</event>
<event>
 4    1  0.4880711E-008  0.5536401E+03  0.7818608E-02  0.1000655E+00
          2   -1    0    0  501    0  0.00000000000E+00  0.00000000000E+00  0.36595058724E+04  0.36595058724E+04  0.25500000000E-02 0. -1.
         -2   -1    0    0    0  501 -0.00000000000E+00 -0.00000000000E+00 -0.38184944801E+03  0.38184944802E+03  0.25500000000E-02 0.  1.
    8880022    1    1    2    0    0  0.42754806260E+03 -0.31674644398E+03 -0.14652782262E+03  0.57270211404E+03  0.15294330000E+03 0.  0.
    8880022    1    1    2    0    0 -0.42754806260E+03  0.31674644398E+03  0.34241842470E+04  0.34686532064E+04  0.15294330000E+03 0.  0.
<mgrwt>
<rscale>  0 0.55364005E+03</rscale>
<asrwt>0</asrwt>
<pdfrwt beam="1">  1        2 0.56300093E+00 0.55364005E+03</pdfrwt>
<pdfrwt beam="2">  1       -2 0.58746066E-01 0.55364005E+03</pdfrwt>
<totfact> 0.19537420E+00</totfact>
</mgrwt>
</event>
<event>
 4    1  0.5000018E-008  0.3996240E+03  0.7818608E-02  0.1043910E+00
          2   -1    0    0  501    0  0.00000000000E+00  0.00000000000E+00  0.30027877963E+04  0.30027877963E+04  0.25500000000E-02 0. -1.
         -2   -1    0    0    0  501 -0.00000000000E+00 -0.00000000000E+00 -0.45026537766E+03  0.45026537767E+03  0.25500000000E-02 0.  1.
    8880022    1    1    2    0    0 -0.36754740296E+03  0.34879996027E+02 -0.34509678938E+03  0.52800677515E+03  0.15294330000E+03 0.  1.
    8880022    1    1    2    0    0  0.36754740296E+03 -0.34879996027E+02  0.28976192080E+04  0.29250463988E+04  0.15294330000E+03 0.  0.
<mgrwt>
<rscale>  0 0.39962402E+03</rscale>
<asrwt>0</asrwt>
<pdfrwt beam="1">  1        2 0.46196736E+00 0.39962402E+03</pdfrwt>
<pdfrwt beam="2">  1       -2 0.69271596E-01 0.39962402E+03</pdfrwt>
<totfact> 0.38753422E+00</totfact>
</mgrwt>
</event>
<event>
 4    1  0.4880711E-008  0.2274864E+03  0.7818608E-02  0.1128422E+00
          2   -1    0    0  501    0  0.00000000000E+00  0.00000000000E+00  0.54527987798E+03  0.54527987799E+03  0.25500000000E-02 0. -1.
         -2   -1    0    0    0  501 -0.00000000000E+00 -0.00000000000E+00 -0.59766178341E+03  0.59766178341E+03  0.25500000000E-02 0.  1.
    8880022    1    1    2    0    0  0.34988247040E+02 -0.16472471170E+03 -0.55032826441E+03  0.59549245142E+03  0.15294330000E+03 0.  1.
    8880022    1    1    2    0    0 -0.34988247040E+02  0.16472471170E+03  0.49794635898E+03  0.54744920999E+03  0.15294330000E+03 0.  0.
<mgrwt>
<rscale>  0 0.22748640E+03</rscale>
<asrwt>0</asrwt>
<pdfrwt beam="1">  1        2 0.83889212E-01 0.22748640E+03</pdfrwt>
<pdfrwt beam="2">  1       -2 0.91947967E-01 0.22748640E+03</pdfrwt>
<totfact> 0.59934971E+01</totfact>
</mgrwt>
</event>
<event>
 4    1  0.4880711E-008  0.5344089E+03  0.7818608E-02  0.1005168E+00
          2   -1    0    0  501    0  0.00000000000E+00  0.00000000000E+00  0.18392735047E+04  0.18392735047E+04  0.25500000000E-02 0. -1.
         -2   -1    0    0    0  501 -0.00000000000E+00 -0.00000000000E+00 -0.27652584127E+03  0.27652584128E+03  0.25500000000E-02 0.  1.
    8880022    1    1    2    0    0  0.32488366600E+03 -0.39579271381E+03  0.80855884131E+02  0.54049106908E+03  0.15294330000E+03 0.  1.
    8880022    1    1    2    0    0 -0.32488366600E+03  0.39579271381E+03  0.14818917793E+04  0.15753082769E+04  0.15294330000E+03 0.  0.
<mgrwt>
<rscale>  0 0.53440895E+03</rscale>
<asrwt>0</asrwt>
<pdfrwt beam="1">  1        2 0.28296517E+00 0.53440895E+03</pdfrwt>
<pdfrwt beam="2">  1       -2 0.42542435E-01 0.53440895E+03</pdfrwt>
<totfact> 0.45521118E+01</totfact>
</mgrwt>
</event>
<event>
 4    1  0.4880711E-008  0.5914667E+03  0.7818608E-02  0.9923270E-01
          2   -1    0    0  501    0  0.00000000000E+00  0.00000000000E+00  0.33862177158E+04  0.33862177158E+04  0.25500000000E-02 0. -1.
         -2   -1    0    0    0  501 -0.00000000000E+00 -0.00000000000E+00 -0.13305093713E+03  0.13305093715E+03  0.25500000000E-02 0.  1.
    8880022    1    1    2    0    0 -0.35684371539E+03  0.44621040381E+03  0.24585100460E+04  0.25286566515E+04  0.15294330000E+03 0.  0.
    8880022    1    1    2    0    0  0.35684371539E+03 -0.44621040381E+03  0.79465673260E+03  0.99061200142E+03  0.15294330000E+03 0.  0.
<mgrwt>
<rscale>  0 0.59146666E+03</rscale>
<asrwt>0</asrwt>
<pdfrwt beam="1">  1        2 0.52095662E+00 0.59146666E+03</pdfrwt>
<pdfrwt beam="2">  1       -2 0.20469373E-01 0.59146666E+03</pdfrwt>
<totfact> 0.22068233E+01</totfact>
</mgrwt>
</event>
<event>
 4    1  0.4880711E-008  0.6553357E+03  0.7818608E-02  0.9796818E-01
         -2   -1    0    0    0  501 -0.00000000000E+00  0.00000000000E+00  0.72363294675E+03  0.72363294676E+03  0.25500000000E-02 0.  1.
          2   -1    0    0  501    0  0.00000000000E+00 -0.00000000000E+00 -0.23047593709E+04  0.23047593709E+04  0.25500000000E-02 0. -1.
    8880022    1    1    2    0    0  0.61830287857E+03 -0.15419052830E+03  0.51419263650E+03  0.83298192604E+03  0.15294330000E+03 0.  0.
    8880022    1    1    2    0    0 -0.61830287857E+03  0.15419052830E+03 -0.20953190606E+04  0.21954103916E+04  0.15294330000E+03 0.  0.
<mgrwt>
<rscale>  0 0.65533566E+03</rscale>
<asrwt>0</asrwt>
<pdfrwt beam="1">  1        2 0.35457836E+00 0.65533566E+03</pdfrwt>
<pdfrwt beam="2">  1       -2 0.11132815E+00 0.65533566E+03</pdfrwt>
<totfact> 0.30604544E+00</totfact>
</mgrwt>
</event>
<event>
 4    1  0.4880711E-008  0.4684612E+03  0.7818608E-02  0.1022355E+00
          2   -1    0    0  501    0  0.00000000000E+00  0.00000000000E+00  0.11438436904E+04  0.11438436904E+04  0.25500000000E-02 0. -1.
         -2   -1    0    0    0  501 -0.00000000000E+00 -0.00000000000E+00 -0.21119423102E+03  0.21119423103E+03  0.25500000000E-02 0.  1.
    8880022    1    1    2    0    0  0.26188054233E+03 -0.35704730544E+03  0.26132016878E+03  0.53641782260E+03  0.15294330000E+03 0.  0.
    8880022    1    1    2    0    0 -0.26188054233E+03  0.35704730544E+03  0.67132929056E+03  0.81862009879E+03  0.15294330000E+03 0.  0.
<mgrwt>
<rscale>  0 0.46846115E+03</rscale>
<asrwt>0</asrwt>
<pdfrwt beam="1">  1        2 0.17597595E+00 0.46846115E+03</pdfrwt>
<pdfrwt beam="2">  1       -2 0.32491420E-01 0.46846115E+03</pdfrwt>
<totfact> 0.18704293E+02</totfact>
</mgrwt>
</event>
<event>
 4    1  0.4880711E-008  0.7458717E+03  0.7818608E-02  0.9641849E-01
          2   -1    0    0  501    0  0.00000000000E+00  0.00000000000E+00  0.22841878593E+04  0.22841878593E+04  0.25500000000E-02 0. -1.
         -2   -1    0    0    0  501 -0.00000000000E+00 -0.00000000000E+00 -0.75257909156E+03  0.75257909156E+03  0.25500000000E-02 0.  1.
    8880022    1    1    2    0    0  0.53174230934E+03 -0.50018297932E+03  0.20145521297E+04  0.21481957156E+04  0.15294330000E+03 0.  0.
    8880022    1    1    2    0    0 -0.53174230934E+03  0.50018297932E+03 -0.48294336191E+03  0.88857123528E+03  0.15294330000E+03 0.  1.
<mgrwt>
<rscale>  0 0.74587167E+03</rscale>
<asrwt>0</asrwt>
<pdfrwt beam="1">  1        2 0.35141351E+00 0.74587167E+03</pdfrwt>
<pdfrwt beam="2">  1       -2 0.11578140E+00 0.74587167E+03</pdfrwt>
<totfact> 0.28048088E+00</totfact>
</mgrwt>
</event>
<event>
 4    1  0.4880711E-008  0.2059209E+03  0.7818608E-02  0.1144838E+00
         -2   -1    0    0    0  501 -0.00000000000E+00  0.00000000000E+00  0.60849636094E+02  0.60849636148E+02  0.25500000000E-02 0.  1.
          2   -1    0    0  501    0  0.00000000000E+00 -0.00000000000E+00 -0.94798363155E+03  0.94798363155E+03  0.25500000000E-02 0. -1.
    8880022    1    1    2    0    0 -0.38216628324E+02 -0.13248115709E+03 -0.18394802903E+03  0.27611645743E+03  0.15294330000E+03 0. -1.
    8880022    1    1    2    0    0  0.38216628324E+02  0.13248115709E+03 -0.70318596642E+03  0.73271681027E+03  0.15294330000E+03 0.  0.
<mgrwt>
<rscale>  0 0.20592091E+03</rscale>
<asrwt>0</asrwt>
<pdfrwt beam="1">  1        2 0.14584363E+00 0.20592091E+03</pdfrwt>
<pdfrwt beam="2">  1       -2 0.93614832E-02 0.20592091E+03</pdfrwt>
<totfact> 0.20793361E+03</totfact>
</mgrwt>
</event>
<event>
 4    1  0.4880711E-008  0.2752903E+03  0.7818608E-02  0.1098289E+00
         -2   -1    0    0    0  501 -0.00000000000E+00  0.00000000000E+00  0.41525736464E+03  0.41525736464E+03  0.25500000000E-02 0.  1.
          2   -1    0    0  501    0  0.00000000000E+00 -0.00000000000E+00 -0.11278554459E+04  0.11278554459E+04  0.25500000000E-02 0. -1.
    8880022    1    1    2    0    0  0.10931772757E+03  0.20110375571E+03 -0.10626790113E+04  0.10977574505E+04  0.15294330000E+03 0.  0.
    8880022    1    1    2    0    0 -0.10931772757E+03 -0.20110375571E+03  0.35008093002E+03  0.44535536003E+03  0.15294330000E+03 0.  0.
<mgrwt>
<rscale>  0 0.27529028E+03</rscale>
<asrwt>0</asrwt>
<pdfrwt beam="1">  1        2 0.17351622E+00 0.27529028E+03</pdfrwt>
<pdfrwt beam="2">  1       -2 0.63885749E-01 0.27529028E+03</pdfrwt>
<totfact> 0.51724176E+01</totfact>
</mgrwt>
</event>
<event>
 4    1  0.4880711E-008  0.4879049E+03  0.7818608E-02  0.1016985E+00
         -2   -1    0    0    0  501 -0.00000000000E+00  0.00000000000E+00  0.19991175527E+03  0.19991175529E+03  0.25500000000E-02 0.  1.
          2   -1    0    0  501    0  0.00000000000E+00 -0.00000000000E+00 -0.20180734136E+04  0.20180734136E+04  0.25500000000E-02 0. -1.
    8880022    1    1    2    0    0  0.40227302413E+03 -0.22986078468E+03 -0.19902981509E+03  0.52693840872E+03  0.15294330000E+03 0.  0.
    8880022    1    1    2    0    0 -0.40227302413E+03  0.22986078468E+03 -0.16191318432E+04  0.16910467601E+04  0.15294330000E+03 0.  0.
<mgrwt>
<rscale>  0 0.48790493E+03</rscale>
<asrwt>0</asrwt>
<pdfrwt beam="1">  1        2 0.31047282E+00 0.48790493E+03</pdfrwt>
<pdfrwt beam="2">  1       -2 0.30755656E-01 0.48790493E+03</pdfrwt>
<totfact> 0.68199422E+01</totfact>
</mgrwt>
</event>
<event>
 4    1  0.4880711E-008  0.4495710E+03  0.7818608E-02  0.1027850E+00
          2   -1    0    0  501    0  0.00000000000E+00  0.00000000000E+00  0.12446538560E+04  0.12446538560E+04  0.25500000000E-02 0. -1.
         -2   -1    0    0    0  501 -0.00000000000E+00 -0.00000000000E+00 -0.90779608610E+03  0.90779608611E+03  0.25500000000E-02 0.  1.
    8880022    1    1    2    0    0 -0.41586004804E+03 -0.76045237584E+02  0.11436578744E+04  0.12288480152E+04  0.15294330000E+03 0.  0.
    8880022    1    1    2    0    0  0.41586004804E+03  0.76045237584E+02 -0.80680010453E+03  0.92360192691E+03  0.15294330000E+03 0.  0.
<mgrwt>
<rscale>  0 0.44957103E+03</rscale>
<asrwt>0</asrwt>
<pdfrwt beam="1">  1        2 0.19148521E+00 0.44957103E+03</pdfrwt>
<pdfrwt beam="2">  1       -2 0.13966094E+00 0.44957103E+03</pdfrwt>
<totfact> 0.69351145E+00</totfact>
</mgrwt>
</event>
<event>
 4    1  0.4880711E-008  0.3274142E+03  0.7818608E-02  0.1072287E+00
          2   -1    0    0  501    0  0.00000000000E+00  0.00000000000E+00  0.52895535482E+04  0.52895535482E+04  0.25500000000E-02 0. -1.
         -2   -1    0    0    0  501 -0.00000000000E+00 -0.00000000000E+00 -0.42601732028E+02  0.42601732105E+02  0.25500000000E-02 0.  1.
    8880022    1    1    2    0    0  0.73842145396E+02  0.27992095742E+03  0.69303884526E+03  0.76648737687E+03  0.15294330000E+03 0.  0.
    8880022    1    1    2    0    0 -0.73842145396E+02 -0.27992095742E+03  0.45539129709E+04  0.45656679034E+04  0.15294330000E+03 0.  0.
<mgrwt>
<rscale>  0 0.32741420E+03</rscale>
<asrwt>0</asrwt>
<pdfrwt beam="1">  1        2 0.81377741E+00 0.32741420E+03</pdfrwt>
<pdfrwt beam="2">  1       -2 0.65541131E-02 0.32741420E+03</pdfrwt>
<totfact> 0.26056200E+00</totfact>
</mgrwt>
</event>
<event>
 4    1  0.4880711E-008  0.5843123E+03  0.7818608E-02  0.9938498E-01
         -2   -1    0    0    0  501 -0.00000000000E+00  0.00000000000E+00  0.27240356831E+04  0.27240356831E+04  0.25500000000E-02 0.  1.
          2   -1    0    0  501    0  0.00000000000E+00 -0.00000000000E+00 -0.25342043653E+03  0.25342043655E+03  0.25500000000E-02 0. -1.
    8880022    1    1    2    0    0 -0.54356096033E+03  0.15023551681E+03  0.17692664632E+03  0.61051119506E+03  0.15294330000E+03 0.  0.
    8880022    1    1    2    0    0  0.54356096033E+03 -0.15023551681E+03  0.22936886002E+04  0.23669449246E+04  0.15294330000E+03 0.  0.
<mgrwt>
<rscale>  0 0.58431231E+03</rscale>
<asrwt>0</asrwt>
<pdfrwt beam="1">  1        2 0.38987757E-01 0.58431231E+03</pdfrwt>
<pdfrwt beam="2">  1       -2 0.41908244E+00 0.58431231E+03</pdfrwt>
<totfact> 0.80988740E-01</totfact>
</mgrwt>
</event>
<event>
 4    1  0.4880711E-008  0.2132525E+03  0.7818608E-02  0.1139016E+00
          2   -1    0    0  501    0  0.00000000000E+00  0.00000000000E+00  0.12209270634E+04  0.12209270634E+04  0.25500000000E-02 0. -1.
         -2   -1    0    0    0  501 -0.00000000000E+00 -0.00000000000E+00 -0.94302052665E+02  0.94302052700E+02  0.25500000000E-02 0.  1.
    8880022    1    1    2    0    0  0.71338500908E+02 -0.13036789871E+03  0.10748241826E+04  0.10957753635E+04  0.15294330000E+03 0. -1.
    8880022    1    1    2    0    0 -0.71338500908E+02  0.13036789871E+03  0.51800828147E+02  0.21945375262E+03  0.15294330000E+03 0.  0.
<mgrwt>
<rscale>  0 0.21325249E+03</rscale>
<asrwt>0</asrwt>
<pdfrwt beam="1">  1        2 0.18783493E+00 0.21325249E+03</pdfrwt>
<pdfrwt beam="2">  1       -2 0.14508008E-01 0.21325249E+03</pdfrwt>
<totfact> 0.70945211E+02</totfact>
</mgrwt>
</event>
<event>
 4    1  0.5851699E-008  0.8623154E+03  0.7818608E-02  0.9473955E-01
          2   -1    0    0  501    0  0.00000000000E+00  0.00000000000E+00  0.15977525129E+04  0.15977525129E+04  0.25500000000E-02 0. -1.
         -2   -1    0    0    0  501 -0.00000000000E+00 -0.00000000000E+00 -0.93994688433E+03  0.93994688434E+03  0.25500000000E-02 0.  1.
    8880022    1    1    2    0    0  0.38013148529E+03 -0.75874649009E+03  0.12304736589E+04  0.15025489212E+04  0.15294330000E+03 0.  0.
    8880022    1    1    2    0    0 -0.38013148529E+03  0.75874649009E+03 -0.57266803025E+03  0.10351504761E+04  0.15294330000E+03 0.  0.
<mgrwt>
<rscale>  0 0.86231539E+03</rscale>
<asrwt>0</asrwt>
<pdfrwt beam="1">  1        2 0.24580808E+00 0.86231539E+03</pdfrwt>
<pdfrwt beam="2">  1       -2 0.14460721E+00 0.86231539E+03</pdfrwt>
<totfact> 0.37322695E+00</totfact>
</mgrwt>
</event>
<event>
 4    1  0.4880711E-008  0.1045735E+04  0.7818608E-02  0.9259759E-01
         -2   -1    0    0    0  501 -0.00000000000E+00  0.00000000000E+00  0.76283886428E+03  0.76283886429E+03  0.25500000000E-02 0.  1.
          2   -1    0    0  501    0  0.00000000000E+00 -0.00000000000E+00 -0.18483757405E+04  0.18483757405E+04  0.25500000000E-02 0. -1.
    8880022    1    1    2    0    0  0.75365306885E+03 -0.70864426110E+03 -0.11612897324E+04  0.15627396240E+04  0.15294330000E+03 0.  0.
    8880022    1    1    2    0    0 -0.75365306885E+03  0.70864426110E+03  0.75752856191E+02  0.10484749807E+04  0.15294330000E+03 0.  0.
<mgrwt>
<rscale>  0 0.10457348E+04</rscale>
<asrwt>0</asrwt>
<pdfrwt beam="1">  1        2 0.28436550E+00 0.10457348E+04</pdfrwt>
<pdfrwt beam="2">  1       -2 0.11735983E+00 0.10457348E+04</pdfrwt>
<totfact> 0.45142879E+00</totfact>
</mgrwt>
</event>
<event>
 4    1  0.4880711E-008  0.3900116E+03  0.7818608E-02  0.1047294E+00
          2   -1    0    0  501    0  0.00000000000E+00  0.00000000000E+00  0.28656902396E+04  0.28656902396E+04  0.25500000000E-02 0. -1.
         -2   -1    0    0    0  501 -0.00000000000E+00 -0.00000000000E+00 -0.76636759031E+02  0.76636759074E+02  0.25500000000E-02 0.  1.
    8880022    1    1    2    0    0 -0.35533347722E+03  0.49553531617E+02  0.57887309255E+03  0.69799938597E+03  0.15294330000E+03 0.  1.
    8880022    1    1    2    0    0  0.35533347722E+03 -0.49553531617E+02  0.22101803880E+04  0.22443276127E+04  0.15294330000E+03 0.  0.
<mgrwt>
<rscale>  0 0.39001165E+03</rscale>
<asrwt>0</asrwt>
<pdfrwt beam="1">  1        2 0.44087534E+00 0.39001165E+03</pdfrwt>
<pdfrwt beam="2">  1       -2 0.11790273E-01 0.39001165E+03</pdfrwt>
<totfact> 0.12323807E+02</totfact>
</mgrwt>
</event>
<event>
 4    1  0.4880711E-008  0.1626211E+03  0.7818608E-02  0.1185769E+00
          2   -1    0    0  501    0  0.00000000000E+00  0.00000000000E+00  0.25640111380E+04  0.25640111380E+04  0.25500000000E-02 0. -1.
         -2   -1    0    0    0  501 -0.00000000000E+00 -0.00000000000E+00 -0.27770929253E+02  0.27770929370E+02  0.25500000000E-02 0.  1.
    8880022    1    1    2    0    0 -0.55243018088E+02  0.14808930597E+01  0.22955569526E+04  0.23013099226E+04  0.15294330000E+03 0. -1.
    8880022    1    1    2    0    0  0.55243018088E+02 -0.14808930597E+01  0.24068325608E+03  0.29047214473E+03  0.15294330000E+03 0.  0.
<mgrwt>
<rscale>  0 0.16262115E+03</rscale>
<asrwt>0</asrwt>
<pdfrwt beam="1">  1        2 0.39446319E+00 0.16262115E+03</pdfrwt>
<pdfrwt beam="2">  1       -2 0.42724513E-02 0.16262115E+03</pdfrwt>
<totfact> 0.94016964E+02</totfact>
</mgrwt>
</event>
<event>
 4    1  0.4880711E-008  0.2755935E+03  0.7818608E-02  0.1098120E+00
          2   -1    0    0  501    0  0.00000000000E+00  0.00000000000E+00  0.34262628168E+03  0.34262628169E+03  0.25500000000E-02 0. -1.
         -2   -1    0    0    0  501 -0.00000000000E+00 -0.00000000000E+00 -0.36411107225E+03  0.36411107226E+03  0.25500000000E-02 0.  1.
    8880022    1    1    2    0    0  0.14476968153E+03 -0.17776906060E+03 -0.23175690368E+03  0.36008751022E+03  0.15294330000E+03 0.  1.
    8880022    1    1    2    0    0 -0.14476968153E+03  0.17776906060E+03  0.21027211311E+03  0.34664984374E+03  0.15294330000E+03 0. -1.
<mgrwt>
<rscale>  0 0.27559346E+03</rscale>
<asrwt>0</asrwt>
<pdfrwt beam="1">  1        2 0.52711736E-01 0.27559346E+03</pdfrwt>
<pdfrwt beam="2">  1       -2 0.56017088E-01 0.27559346E+03</pdfrwt>
<totfact> 0.29026481E+02</totfact>
</mgrwt>
</event>
<event>
 4    1  0.4880711E-008  0.5402161E+03  0.7818608E-02  0.1003784E+00
         -2   -1    0    0    0  501 -0.00000000000E+00  0.00000000000E+00  0.14596086789E+04  0.14596086789E+04  0.25500000000E-02 0.  1.
          2   -1    0    0  501    0  0.00000000000E+00 -0.00000000000E+00 -0.38091319965E+03  0.38091319966E+03  0.25500000000E-02 0. -1.
    8880022    1    1    2    0    0  0.43229778321E+03  0.28558789465E+03 -0.94968273143E+02  0.54850017763E+03  0.15294330000E+03 0.  0.
    8880022    1    1    2    0    0 -0.43229778321E+03 -0.28558789465E+03  0.11736637523E+04  0.12920217009E+04  0.15294330000E+03 0.  0.
<mgrwt>
<rscale>  0 0.54021613E+03</rscale>
<asrwt>0</asrwt>
<pdfrwt beam="1">  1        2 0.58602030E-01 0.54021613E+03</pdfrwt>
<pdfrwt beam="2">  1       -2 0.22455518E+00 0.54021613E+03</pdfrwt>
<totfact> 0.81690963E+00</totfact>
</mgrwt>
</event>
<event>
 4    1  0.4880711E-008  0.6483268E+03  0.7818608E-02  0.9809924E-01
          2   -1    0    0  501    0  0.00000000000E+00  0.00000000000E+00  0.24595792356E+04  0.24595792357E+04  0.25500000000E-02 0. -1.
         -2   -1    0    0    0  501 -0.00000000000E+00 -0.00000000000E+00 -0.53988063343E+03  0.53988063344E+03  0.25500000000E-02 0.  1.
    8880022    1    1    2    0    0 -0.61137814021E+03 -0.15216028274E+03 -0.28000151059E+03  0.70620710908E+03  0.15294330000E+03 0.  0.
    8880022    1    1    2    0    0  0.61137814021E+03  0.15216028274E+03  0.21997001128E+04  0.22932527600E+04  0.15294330000E+03 0.  0.
<mgrwt>
<rscale>  0 0.64832680E+03</rscale>
<asrwt>0</asrwt>
<pdfrwt beam="1">  1        2 0.37839681E+00 0.64832680E+03</pdfrwt>
<pdfrwt beam="2">  1       -2 0.83058559E-01 0.64832680E+03</pdfrwt>
<totfact> 0.49894088E+00</totfact>
</mgrwt>
</event>
<event>
 4    1  0.4880711E-008  0.7987601E+03  0.7818608E-02  0.9561814E-01
          2   -1    0    0  501    0  0.00000000000E+00  0.00000000000E+00  0.83017079064E+03  0.83017079065E+03  0.25500000000E-02 0. -1.
         -2   -1    0    0    0  501 -0.00000000000E+00 -0.00000000000E+00 -0.11056046198E+04  0.11056046198E+04  0.25500000000E-02 0.  1.
    8880022    1    1    2    0    0 -0.77081461218E+03  0.14307657253E+03 -0.67213725742E+03  0.10439282628E+04  0.15294330000E+03 0.  0.
    8880022    1    1    2    0    0  0.77081461218E+03 -0.14307657253E+03  0.39670342822E+03  0.89184714774E+03  0.15294330000E+03 0.  0.
<mgrwt>
<rscale>  0 0.79876012E+03</rscale>
<asrwt>0</asrwt>
<pdfrwt beam="1">  1        2 0.12771858E+00 0.79876012E+03</pdfrwt>
<pdfrwt beam="2">  1       -2 0.17009302E+00 0.79876012E+03</pdfrwt>
<totfact> 0.70611195E+00</totfact>
</mgrwt>
</event>
<event>
 4    1  0.4880711E-008  0.9481907E+03  0.7818608E-02  0.9367268E-01
          2   -1    0    0  501    0  0.00000000000E+00  0.00000000000E+00  0.76012972282E+03  0.76012972283E+03  0.25500000000E-02 0. -1.
         -2   -1    0    0    0  501 -0.00000000000E+00 -0.00000000000E+00 -0.38341383078E+04  0.38341383078E+04  0.25500000000E-02 0.  1.
    8880022    1    1    2    0    0  0.33852860700E+03 -0.87239461856E+03 -0.34472389511E+04  0.35752653086E+04  0.15294330000E+03 0.  0.
    8880022    1    1    2    0    0 -0.33852860700E+03  0.87239461856E+03  0.37323036610E+03  0.10190027220E+04  0.15294330000E+03 0.  0.
<mgrwt>
<rscale>  0 0.94819072E+03</rscale>
<asrwt>0</asrwt>
<pdfrwt beam="1">  1        2 0.11694304E+00 0.94819072E+03</pdfrwt>
<pdfrwt beam="2">  1       -2 0.58986742E+00 0.94819072E+03</pdfrwt>
<totfact> 0.20346424E-02</totfact>
</mgrwt>
</event>
<event>
 4    1  0.4880711E-008  0.5148446E+03  0.7818608E-02  0.1009975E+00
          2   -1    0    0  501    0  0.00000000000E+00  0.00000000000E+00  0.53501334257E+03  0.53501334257E+03  0.25500000000E-02 0. -1.
         -2   -1    0    0    0  501 -0.00000000000E+00 -0.00000000000E+00 -0.11772507899E+04  0.11772507899E+04  0.25500000000E-02 0.  1.
    8880022    1    1    2    0    0 -0.49000045214E+03  0.39659068789E+02 -0.97265625384E+03  0.11005113021E+04  0.15294330000E+03 0.  1.
    8880022    1    1    2    0    0  0.49000045214E+03 -0.39659068789E+02  0.33041880649E+03  0.61175283042E+03  0.15294330000E+03 0.  0.
<mgrwt>
<rscale>  0 0.51484458E+03</rscale>
<asrwt>0</asrwt>
<pdfrwt beam="1">  1        2 0.82309745E-01 0.51484458E+03</pdfrwt>
<pdfrwt beam="2">  1       -2 0.18111551E+00 0.51484458E+03</pdfrwt>
<totfact> 0.10615939E+01</totfact>
</mgrwt>
</event>
<event>
 4    1  0.4880711E-008  0.2757704E+03  0.7818608E-02  0.1098022E+00
          2   -1    0    0  501    0  0.00000000000E+00  0.00000000000E+00  0.57559628778E+03  0.57559628778E+03  0.25500000000E-02 0. -1.
         -2   -1    0    0    0  501 -0.00000000000E+00 -0.00000000000E+00 -0.38803644670E+03  0.38803644671E+03  0.25500000000E-02 0.  1.
    8880022    1    1    2    0    0 -0.21278415549E+03  0.85910339951E+02  0.48506392626E+03  0.55797522248E+03  0.15294330000E+03 0.  0.
    8880022    1    1    2    0    0  0.21278415549E+03 -0.85910339951E+02 -0.29750408518E+03  0.40565751201E+03  0.15294330000E+03 0.  0.
<mgrwt>
<rscale>  0 0.27577044E+03</rscale>
<asrwt>0</asrwt>
<pdfrwt beam="1">  1        2 0.88553276E-01 0.27577044E+03</pdfrwt>
<pdfrwt beam="2">  1       -2 0.59697915E-01 0.27577044E+03</pdfrwt>
<totfact> 0.14298833E+02</totfact>
</mgrwt>
</event>
<event>
 4    1  0.4880711E-008  0.4767095E+03  0.7818608E-02  0.1020043E+00
          2   -1    0    0  501    0  0.00000000000E+00  0.00000000000E+00  0.12202609857E+04  0.12202609857E+04  0.25500000000E-02 0. -1.
         -2   -1    0    0    0  501 -0.00000000000E+00 -0.00000000000E+00 -0.12487730369E+04  0.12487730369E+04  0.25500000000E-02 0.  1.
    8880022    1    1    2    0    0  0.35092546853E+03  0.28409786204E+03  0.11244932926E+04  0.12213668973E+04  0.15294330000E+03 0.  0.
    8880022    1    1    2    0    0 -0.35092546853E+03 -0.28409786204E+03 -0.11530053438E+04  0.12476671253E+04  0.15294330000E+03 0.  0.
<mgrwt>
<rscale>  0 0.47670948E+03</rscale>
<asrwt>0</asrwt>
<pdfrwt beam="1">  1        2 0.18773246E+00 0.47670948E+03</pdfrwt>
<pdfrwt beam="2">  1       -2 0.19211893E+00 0.47670948E+03</pdfrwt>
<totfact> 0.29942731E+00</totfact>
</mgrwt>
</event>
<event>
 4    1  0.4880711E-008  0.2657358E+03  0.7818608E-02  0.1103745E+00
         -2   -1    0    0    0  501 -0.00000000000E+00  0.00000000000E+00  0.11964225275E+03  0.11964225277E+03  0.25500000000E-02 0.  1.
          2   -1    0    0  501    0  0.00000000000E+00 -0.00000000000E+00 -0.14665181139E+04  0.14665181139E+04  0.25500000000E-02 0. -1.
    8880022    1    1    2    0    0  0.21701878589E+03 -0.11256306106E+02 -0.12864920028E+04  0.13136503279E+04  0.15294330000E+03 0. -1.
    8880022    1    1    2    0    0 -0.21701878589E+03  0.11256306106E+02 -0.60383858399E+02  0.27251003877E+03  0.15294330000E+03 0.  0.
<mgrwt>
<rscale>  0 0.26573579E+03</rscale>
<asrwt>0</asrwt>
<pdfrwt beam="1">  1        2 0.22561816E+00 0.26573579E+03</pdfrwt>
<pdfrwt beam="2">  1       -2 0.18406501E-01 0.26573579E+03</pdfrwt>
<totfact> 0.34719194E+02</totfact>
</mgrwt>
</event>
<event>
 4    1  0.4880711E-008  0.2257087E+03  0.7818608E-02  0.1129697E+00
         -2   -1    0    0    0  501 -0.00000000000E+00  0.00000000000E+00  0.16710245593E+03  0.16710245595E+03  0.25500000000E-02 0.  1.
          2   -1    0    0  501    0  0.00000000000E+00 -0.00000000000E+00 -0.64939474426E+03  0.64939474427E+03  0.25500000000E-02 0. -1.
    8880022    1    1    2    0    0  0.82605878348E+02  0.14397587708E+03  0.56212701705E+02  0.23260332149E+03  0.15294330000E+03 0.  0.
    8880022    1    1    2    0    0 -0.82605878348E+02 -0.14397587708E+03 -0.53850499003E+03  0.58389387873E+03  0.15294330000E+03 0. -1.
<mgrwt>
<rscale>  0 0.22570874E+03</rscale>
<asrwt>0</asrwt>
<pdfrwt beam="1">  1        2 0.99906883E-01 0.22570874E+03</pdfrwt>
<pdfrwt beam="2">  1       -2 0.25708070E-01 0.22570874E+03</pdfrwt>
<totfact> 0.62494564E+02</totfact>
</mgrwt>
</event>
<event>
 4    1  0.4880711E-008  0.5829249E+03  0.7818608E-02  0.9941479E-01
          2   -1    0    0  501    0  0.00000000000E+00  0.00000000000E+00  0.33049565059E+04  0.33049565059E+04  0.25500000000E-02 0. -1.
         -2   -1    0    0    0  501 -0.00000000000E+00 -0.00000000000E+00 -0.15165833970E+03  0.15165833972E+03  0.25500000000E-02 0.  1.
    8880022    1    1    2    0    0  0.55691687265E+03 -0.79078086016E+02  0.25574648372E+04  0.26230569558E+04  0.15294330000E+03 0.  0.
    8880022    1    1    2    0    0 -0.55691687265E+03  0.79078086016E+02  0.59583332893E+03  0.83355788978E+03  0.15294330000E+03 0.  0.
<mgrwt>
<rscale>  0 0.58292487E+03</rscale>
<asrwt>0</asrwt>
<pdfrwt beam="1">  1        2 0.50845479E+00 0.58292487E+03</pdfrwt>
<pdfrwt beam="2">  1       -2 0.23332055E-01 0.58292487E+03</pdfrwt>
<totfact> 0.19834288E+01</totfact>
</mgrwt>
</event>
<event>
 4    1  0.6630237E-008  0.6805382E+03  0.7818608E-02  0.9751106E-01
          2   -1    0    0  501    0  0.00000000000E+00  0.00000000000E+00  0.17607740886E+04  0.17607740886E+04  0.25500000000E-02 0. -1.
         -2   -1    0    0    0  501 -0.00000000000E+00 -0.00000000000E+00 -0.83947015086E+03  0.83947015086E+03  0.25500000000E-02 0.  1.
    8880022    1    1    2    0    0 -0.27200012712E+03 -0.60477806028E+03  0.15380086885E+04  0.16818451030E+04  0.15294330000E+03 0.  0.
    8880022    1    1    2    0    0  0.27200012712E+03  0.60477806028E+03 -0.61670475076E+03  0.91839913653E+03  0.15294330000E+03 0.  0.
<mgrwt>
<rscale>  0 0.68053819E+03</rscale>
<asrwt>0</asrwt>
<pdfrwt beam="1">  1        2 0.27088832E+00 0.68053819E+03</pdfrwt>
<pdfrwt beam="2">  1       -2 0.12914926E+00 0.68053819E+03</pdfrwt>
<totfact> 0.41798130E+00</totfact>
</mgrwt>
</event>
<event>
 4    1  0.4880711E-008  0.5414857E+03  0.7818608E-02  0.1003484E+00
         -2   -1    0    0    0  501 -0.00000000000E+00  0.00000000000E+00  0.95604449841E+03  0.95604449841E+03  0.25500000000E-02 0.  1.
          2   -1    0    0  501    0  0.00000000000E+00 -0.00000000000E+00 -0.41641571054E+03  0.41641571055E+03  0.25500000000E-02 0. -1.
    8880022    1    1    2    0    0  0.51590039869E+02  0.51686903391E+03 -0.82447444159E+02  0.54772654171E+03  0.15294330000E+03 0.  0.
    8880022    1    1    2    0    0 -0.51590039869E+02 -0.51686903391E+03  0.62207623203E+03  0.82473366725E+03  0.15294330000E+03 0.  0.
<mgrwt>
<rscale>  0 0.54148572E+03</rscale>
<asrwt>0</asrwt>
<pdfrwt beam="1">  1        2 0.64063957E-01 0.54148572E+03</pdfrwt>
<pdfrwt beam="2">  1       -2 0.14708377E+00 0.54148572E+03</pdfrwt>
<totfact> 0.24759691E+01</totfact>
</mgrwt>
</event>
<event>
 4    1  0.4880711E-008  0.6263890E+03  0.7818608E-02  0.9852121E-01
         -2   -1    0    0    0  501 -0.00000000000E+00  0.00000000000E+00  0.18865193948E+03  0.18865193949E+03  0.25500000000E-02 0.  1.
          2   -1    0    0  501    0  0.00000000000E+00 -0.00000000000E+00 -0.54308731953E+04  0.54308731953E+04  0.25500000000E-02 0. -1.
    8880022    1    1    2    0    0 -0.28691703382E+03  0.53539715571E+03 -0.48282262404E+04  0.48686889180E+04  0.15294330000E+03 0.  0.
    8880022    1    1    2    0    0  0.28691703382E+03 -0.53539715571E+03 -0.41399501540E+03  0.75083621678E+03  0.15294330000E+03 0.  0.
<mgrwt>
<rscale>  0 0.62638898E+03</rscale>
<asrwt>0</asrwt>
<pdfrwt beam="1">  1        2 0.83551884E+00 0.62638898E+03</pdfrwt>
<pdfrwt beam="2">  1       -2 0.29023379E-01 0.62638898E+03</pdfrwt>
<totfact> 0.11127508E-01</totfact>
</mgrwt>
</event>
<event>
 4    1  0.4880711E-008  0.4191928E+03  0.7818608E-02  0.1037329E+00
         -2   -1    0    0    0  501 -0.00000000000E+00  0.00000000000E+00  0.11306514891E+04  0.11306514891E+04  0.25500000000E-02 0.  1.
          2   -1    0    0  501    0  0.00000000000E+00 -0.00000000000E+00 -0.58344173209E+03  0.58344173210E+03  0.25500000000E-02 0. -1.
    8880022    1    1    2    0    0  0.35405595617E+03  0.16424177583E+03 -0.46046947596E+03  0.62269958433E+03  0.15294330000E+03 0. -1.
    8880022    1    1    2    0    0 -0.35405595617E+03 -0.16424177583E+03  0.10076792329E+04  0.10913936368E+04  0.15294330000E+03 0.  0.
<mgrwt>
<rscale>  0 0.41919284E+03</rscale>
<asrwt>0</asrwt>
<pdfrwt beam="1">  1        2 0.89760267E-01 0.41919284E+03</pdfrwt>
<pdfrwt beam="2">  1       -2 0.17394638E+00 0.41919284E+03</pdfrwt>
<totfact> 0.10917278E+01</totfact>
</mgrwt>
</event>
<event>
 4    1  0.4880711E-008  0.4628953E+03  0.7818608E-02  0.1023945E+00
         -2   -1    0    0    0  501 -0.00000000000E+00  0.00000000000E+00  0.13821595414E+03  0.13821595416E+03  0.25500000000E-02 0.  1.
          2   -1    0    0  501    0  0.00000000000E+00 -0.00000000000E+00 -0.32616176824E+04  0.32616176824E+04  0.25500000000E-02 0. -1.
    8880022    1    1    2    0    0  0.30128653269E+03 -0.31639661210E+03 -0.27930473427E+04  0.28311456167E+04  0.15294330000E+03 0.  0.
    8880022    1    1    2    0    0 -0.30128653269E+03  0.31639661210E+03 -0.33035438550E+03  0.56868801989E+03  0.15294330000E+03 0.  1.
<mgrwt>
<rscale>  0 0.46289528E+03</rscale>
<asrwt>0</asrwt>
<pdfrwt beam="1">  1        2 0.50178728E+00 0.46289528E+03</pdfrwt>
<pdfrwt beam="2">  1       -2 0.21263995E-01 0.46289528E+03</pdfrwt>
<totfact> 0.25665172E+01</totfact>
</mgrwt>
</event>
<event>
 4    1  0.4880711E-008  0.4301104E+03  0.7818608E-02  0.1033825E+00
          2   -1    0    0  501    0  0.00000000000E+00  0.00000000000E+00  0.58242230123E+03  0.58242230124E+03  0.25500000000E-02 0. -1.
         -2   -1    0    0    0  501 -0.00000000000E+00 -0.00000000000E+00 -0.50677745456E+03  0.50677745457E+03  0.25500000000E-02 0.  1.
    8880022    1    1    2    0    0 -0.23487537476E+03 -0.32624659129E+03  0.37053473851E+03  0.56770672486E+03  0.15294330000E+03 0.  0.
    8880022    1    1    2    0    0  0.23487537476E+03  0.32624659129E+03 -0.29488989183E+03  0.52149303094E+03  0.15294330000E+03 0.  1.
<mgrwt>
<rscale>  0 0.43011037E+03</rscale>
<asrwt>0</asrwt>
<pdfrwt beam="1">  1        2 0.89603430E-01 0.43011037E+03</pdfrwt>
<pdfrwt beam="2">  1       -2 0.77965763E-01 0.43011037E+03</pdfrwt>
<totfact> 0.78144979E+01</totfact>
</mgrwt>
</event>
<event>
 4    1  0.4880711E-008  0.2480624E+03  0.7818608E-02  0.1114536E+00
         -2   -1    0    0    0  501 -0.00000000000E+00  0.00000000000E+00  0.59456162546E+02  0.59456162601E+02  0.25500000000E-02 0.  1.
          2   -1    0    0  501    0  0.00000000000E+00 -0.00000000000E+00 -0.21102007531E+04  0.21102007531E+04  0.25500000000E-02 0. -1.
    8880022    1    1    2    0    0  0.78599351960E+02  0.17878875989E+03 -0.17997474726E+04  0.18167624768E+04  0.15294330000E+03 0.  0.
    8880022    1    1    2    0    0 -0.78599351960E+02 -0.17878875989E+03 -0.25099711789E+03  0.35289443889E+03  0.15294330000E+03 0.  0.
<mgrwt>
<rscale>  0 0.24806235E+03</rscale>
<asrwt>0</asrwt>
<pdfrwt beam="1">  1        2 0.32464621E+00 0.24806235E+03</pdfrwt>
<pdfrwt beam="2">  1       -2 0.91471036E-02 0.24806235E+03</pdfrwt>
<totfact> 0.50007702E+02</totfact>
</mgrwt>
</event>
<event>
 4    1  0.4880711E-008  0.6565166E+03  0.7818608E-02  0.9794628E-01
         -2   -1    0    0    0  501 -0.00000000000E+00  0.00000000000E+00  0.25834157303E+03  0.25834157304E+03  0.25500000000E-02 0.  1.
          2   -1    0    0  501    0  0.00000000000E+00 -0.00000000000E+00 -0.31851058350E+04  0.31851058350E+04  0.25500000000E-02 0. -1.
    8880022    1    1    2    0    0  0.19152752263E+03 -0.60904808857E+03 -0.27527965706E+03  0.71189388867E+03  0.15294330000E+03 0.  0.
    8880022    1    1    2    0    0 -0.19152752263E+03  0.60904808857E+03 -0.26514846049E+04  0.27315535194E+04  0.15294330000E+03 0.  0.
<mgrwt>
<rscale>  0 0.65651658E+03</rscale>
<asrwt>0</asrwt>
<pdfrwt beam="1">  1        2 0.49001625E+00 0.65651658E+03</pdfrwt>
<pdfrwt beam="2">  1       -2 0.39744860E-01 0.65651658E+03</pdfrwt>
<totfact> 0.86588709E+00</totfact>
</mgrwt>
</event>
<event>
 4    1  0.4880711E-008  0.3745183E+03  0.7818608E-02  0.1052979E+00
          2   -1    0    0  501    0  0.00000000000E+00  0.00000000000E+00  0.10014450047E+04  0.10014450047E+04  0.25500000000E-02 0. -1.
         -2   -1    0    0    0  501 -0.00000000000E+00 -0.00000000000E+00 -0.21856185286E+03  0.21856185287E+03  0.25500000000E-02 0.  1.
    8880022    1    1    2    0    0 -0.15334503688E+03  0.30554473344E+03  0.75702017668E+03  0.84459664064E+03  0.15294330000E+03 0.  0.
    8880022    1    1    2    0    0  0.15334503688E+03 -0.30554473344E+03  0.25862975150E+02  0.37541021692E+03  0.15294330000E+03 0.  0.
<mgrwt>
<rscale>  0 0.37451827E+03</rscale>
<asrwt>0</asrwt>
<pdfrwt beam="1">  1        2 0.15406846E+00 0.37451827E+03</pdfrwt>
<pdfrwt beam="2">  1       -2 0.33624901E-01 0.37451827E+03</pdfrwt>
<totfact> 0.21618246E+02</totfact>
</mgrwt>
</event>
<event>
 4    1  0.4880711E-008  0.5881559E+03  0.7818608E-02  0.9930288E-01
         -2   -1    0    0    0  501 -0.00000000000E+00  0.00000000000E+00  0.19859313148E+04  0.19859313148E+04  0.25500000000E-02 0.  1.
          2   -1    0    0  501    0  0.00000000000E+00 -0.00000000000E+00 -0.98257744874E+03  0.98257744874E+03  0.25500000000E-02 0. -1.
    8880022    1    1    2    0    0 -0.56611573069E+03  0.45263005033E+02  0.18479556803E+04  0.19392956478E+04  0.15294330000E+03 0.  0.
    8880022    1    1    2    0    0  0.56611573069E+03 -0.45263005033E+02 -0.84460181420E+03  0.10292131158E+04  0.15294330000E+03 0. -1.
<mgrwt>
<rscale>  0 0.58815594E+03</rscale>
<asrwt>0</asrwt>
<pdfrwt beam="1">  1        2 0.15116576E+00 0.58815594E+03</pdfrwt>
<pdfrwt beam="2">  1       -2 0.30552789E+00 0.58815594E+03</pdfrwt>
<totfact> 0.82518174E-01</totfact>
</mgrwt>
</event>
<event>
 4    1  0.4880711E-008  0.3885769E+03  0.7818608E-02  0.1047808E+00
          2   -1    0    0  501    0  0.00000000000E+00  0.00000000000E+00  0.15668542427E+04  0.15668542427E+04  0.25500000000E-02 0. -1.
         -2   -1    0    0    0  501 -0.00000000000E+00 -0.00000000000E+00 -0.63802200110E+03  0.63802200111E+03  0.25500000000E-02 0.  1.
    8880022    1    1    2    0    0  0.32828359480E+03 -0.14081981863E+03 -0.55136010136E+03  0.67452943177E+03  0.15294330000E+03 0.  0.
    8880022    1    1    2    0    0 -0.32828359480E+03  0.14081981863E+03  0.14801923429E+04  0.15303468120E+04  0.15294330000E+03 0. -1.
<mgrwt>
<rscale>  0 0.38857688E+03</rscale>
<asrwt>0</asrwt>
<pdfrwt beam="1">  1        2 0.24105450E+00 0.38857688E+03</pdfrwt>
<pdfrwt beam="2">  1       -2 0.98157230E-01 0.38857688E+03</pdfrwt>
<totfact> 0.11038801E+01</totfact>
</mgrwt>
</event>
<event>
 4    1  0.4880711E-008  0.4782320E+03  0.7818608E-02  0.1019622E+00
          2   -1    0    0  501    0  0.00000000000E+00  0.00000000000E+00  0.24023349662E+04  0.24023349662E+04  0.25500000000E-02 0. -1.
         -2   -1    0    0    0  501 -0.00000000000E+00 -0.00000000000E+00 -0.33853396037E+03  0.33853396038E+03  0.25500000000E-02 0.  1.
    8880022    1    1    2    0    0 -0.40409378344E+03  0.20499360388E+03  0.21937696049E+04  0.22452908266E+04  0.15294330000E+03 0.  0.
    8880022    1    1    2    0    0  0.40409378344E+03 -0.20499360388E+03 -0.12996859909E+03  0.49557810001E+03  0.15294330000E+03 0.  0.
<mgrwt>
<rscale>  0 0.47823197E+03</rscale>
<asrwt>0</asrwt>
<pdfrwt beam="1">  1        2 0.36959000E+00 0.47823197E+03</pdfrwt>
<pdfrwt beam="2">  1       -2 0.52082147E-01 0.47823197E+03</pdfrwt>
<totfact> 0.15201367E+01</totfact>
</mgrwt>
</event>
<event>
 4    1  0.4880711E-008  0.4314571E+03  0.7818608E-02  0.1033401E+00
         -2   -1    0    0    0  501 -0.00000000000E+00  0.00000000000E+00  0.24570775787E+04  0.24570775787E+04  0.25500000000E-02 0.  1.
          2   -1    0    0  501    0  0.00000000000E+00 -0.00000000000E+00 -0.28513793014E+03  0.28513793015E+03  0.25500000000E-02 0. -1.
    8880022    1    1    2    0    0 -0.12297942989E+03  0.38423904580E+03 -0.88945505144E+02  0.44052984053E+03  0.15294330000E+03 0. -1.
    8880022    1    1    2    0    0  0.12297942989E+03 -0.38423904580E+03  0.22608851537E+04  0.23016856684E+04  0.15294330000E+03 0.  0.
<mgrwt>
<rscale>  0 0.43145711E+03</rscale>
<asrwt>0</asrwt>
<pdfrwt beam="1">  1        2 0.43867372E-01 0.43145711E+03</pdfrwt>
<pdfrwt beam="2">  1       -2 0.37801195E+00 0.43145711E+03</pdfrwt>
<totfact> 0.13598416E+00</totfact>
</mgrwt>
</event>
<event>
 4    1  0.6048240E-008  0.5989356E+03  0.7818608E-02  0.9907617E-01
         -2   -1    0    0    0  501 -0.00000000000E+00  0.00000000000E+00  0.11351863945E+04  0.11351863945E+04  0.25500000000E-02 0.  1.
          2   -1    0    0  501    0  0.00000000000E+00 -0.00000000000E+00 -0.20689061155E+04  0.20689061155E+04  0.25500000000E-02 0. -1.
    8880022    1    1    2    0    0  0.24021051928E+03 -0.52690707417E+03 -0.19414911733E+04  0.20317755258E+04  0.15294330000E+03 0.  0.
    8880022    1    1    2    0    0 -0.24021051928E+03  0.52690707417E+03  0.10077714522E+04  0.11723169842E+04  0.15294330000E+03 0.  0.
<mgrwt>
<rscale>  0 0.59893557E+03</rscale>
<asrwt>0</asrwt>
<pdfrwt beam="1">  1        2 0.31829325E+00 0.59893557E+03</pdfrwt>
<pdfrwt beam="2">  1       -2 0.17464406E+00 0.59893557E+03</pdfrwt>
<totfact> 0.13027587E+00</totfact>
</mgrwt>
</event>
<event>
 4    1  0.4880711E-008  0.9206470E+03  0.7818608E-02  0.9400133E-01
          2   -1    0    0  501    0  0.00000000000E+00  0.00000000000E+00  0.26874553306E+04  0.26874553306E+04  0.25500000000E-02 0. -1.
         -2   -1    0    0    0  501 -0.00000000000E+00 -0.00000000000E+00 -0.43479826834E+03  0.43479826835E+03  0.25500000000E-02 0.  1.
    8880022    1    1    2    0    0 -0.90760426670E+03  0.21302586802E+02  0.30821184356E+03  0.97086842500E+03  0.15294330000E+03 0.  0.
    8880022    1    1    2    0    0  0.90760426670E+03 -0.21302586802E+02  0.19444452187E+04  0.21513851740E+04  0.15294330000E+03 0.  0.
<mgrwt>
<rscale>  0 0.92064703E+03</rscale>
<asrwt>0</asrwt>
<pdfrwt beam="1">  1        2 0.41345466E+00 0.92064703E+03</pdfrwt>
<pdfrwt beam="2">  1       -2 0.66892042E-01 0.92064703E+03</pdfrwt>
<totfact> 0.56903962E+00</totfact>
</mgrwt>
</event>
<event>
 4    1  0.4880711E-008  0.8446964E+03  0.7818608E-02  0.9497483E-01
          2   -1    0    0  501    0  0.00000000000E+00  0.00000000000E+00  0.11038727514E+04  0.11038727514E+04  0.25500000000E-02 0. -1.
         -2   -1    0    0    0  501 -0.00000000000E+00 -0.00000000000E+00 -0.80099805681E+03  0.80099805681E+03  0.25500000000E-02 0.  1.
    8880022    1    1    2    0    0  0.66995796910E+02  0.82802898669E+03 -0.26703000329E+03  0.88589904350E+03  0.15294330000E+03 0.  0.
    8880022    1    1    2    0    0 -0.66995796910E+02 -0.82802898669E+03  0.56990469786E+03  0.10189717647E+04  0.15294330000E+03 0.  0.
<mgrwt>
<rscale>  0 0.84469645E+03</rscale>
<asrwt>0</asrwt>
<pdfrwt beam="1">  1        2 0.16982658E+00 0.84469645E+03</pdfrwt>
<pdfrwt beam="2">  1       -2 0.12323047E+00 0.84469645E+03</pdfrwt>
<totfact> 0.10848304E+01</totfact>
</mgrwt>
</event>
<event>
 4    1  0.4880711E-008  0.3836119E+03  0.7818608E-02  0.1049607E+00
          2   -1    0    0  501    0  0.00000000000E+00  0.00000000000E+00  0.84434913304E+03  0.84434913304E+03  0.25500000000E-02 0. -1.
         -2   -1    0    0    0  501 -0.00000000000E+00 -0.00000000000E+00 -0.69050772394E+03  0.69050772394E+03  0.25500000000E-02 0.  1.
    8880022    1    1    2    0    0  0.74975593820E+02 -0.34372237528E+03 -0.58662651740E+03  0.70091992044E+03  0.15294330000E+03 0.  0.
    8880022    1    1    2    0    0 -0.74975593820E+02  0.34372237528E+03  0.74046792650E+03  0.83393693654E+03  0.15294330000E+03 0. -1.
<mgrwt>
<rscale>  0 0.38361187E+03</rscale>
<asrwt>0</asrwt>
<pdfrwt beam="1">  1        2 0.12989987E+00 0.38361187E+03</pdfrwt>
<pdfrwt beam="2">  1       -2 0.10623196E+00 0.38361187E+03</pdfrwt>
<totfact> 0.24380884E+01</totfact>
</mgrwt>
</event>
<event>
 4    1  0.4880711E-008  0.3352896E+03  0.7818608E-02  0.1068820E+00
          2   -1    0    0  501    0  0.00000000000E+00  0.00000000000E+00  0.13841903100E+04  0.13841903100E+04  0.25500000000E-02 0. -1.
         -2   -1    0    0    0  501 -0.00000000000E+00 -0.00000000000E+00 -0.23919888555E+03  0.23919888557E+03  0.25500000000E-02 0.  1.
    8880022    1    1    2    0    0  0.19131201199E+03  0.22896983752E+03 -0.87160080338E+02  0.34643326204E+03  0.15294330000E+03 0.  0.
    8880022    1    1    2    0    0 -0.19131201199E+03 -0.22896983752E+03  0.12321515048E+04  0.12769559336E+04  0.15294330000E+03 0. -1.
<mgrwt>
<rscale>  0 0.33528961E+03</rscale>
<asrwt>0</asrwt>
<pdfrwt beam="1">  1        2 0.21295236E+00 0.33528961E+03</pdfrwt>
<pdfrwt beam="2">  1       -2 0.36799828E-01 0.33528961E+03</pdfrwt>
<totfact> 0.11002603E+02</totfact>
</mgrwt>
</event>
<event>
 4    1  0.4880711E-008  0.5502782E+03  0.7818608E-02  0.1001430E+00
         -2   -1    0    0    0  501 -0.00000000000E+00  0.00000000000E+00  0.47284776760E+03  0.47284776761E+03  0.25500000000E-02 0.  1.
          2   -1    0    0  501    0  0.00000000000E+00 -0.00000000000E+00 -0.71369658450E+03  0.71369658450E+03  0.25500000000E-02 0. -1.
    8880022    1    1    2    0    0  0.46534376581E+03 -0.25073822497E+03  0.69715813109E+02  0.55467686580E+03  0.15294330000E+03 0.  1.
    8880022    1    1    2    0    0 -0.46534376581E+03  0.25073822497E+03 -0.31056463001E+03  0.63186748632E+03  0.15294330000E+03 0. -1.
<mgrwt>
<rscale>  0 0.55027823E+03</rscale>
<asrwt>0</asrwt>
<pdfrwt beam="1">  1        2 0.10979948E+00 0.55027823E+03</pdfrwt>
<pdfrwt beam="2">  1       -2 0.72745810E-01 0.55027823E+03</pdfrwt>
<totfact> 0.70270466E+01</totfact>
</mgrwt>
</event>
<event>
 4    1  0.4880711E-008  0.4612743E+03  0.7818608E-02  0.1024412E+00
          2   -1    0    0  501    0  0.00000000000E+00  0.00000000000E+00  0.29278442191E+04  0.29278442191E+04  0.25500000000E-02 0. -1.
         -2   -1    0    0    0  501 -0.00000000000E+00 -0.00000000000E+00 -0.11249290518E+03  0.11249290521E+03  0.25500000000E-02 0.  1.
    8880022    1    1    2    0    0  0.24273164226E+03 -0.36119758642E+03  0.50323189073E+03  0.68265389140E+03  0.15294330000E+03 0.  0.
    8880022    1    1    2    0    0 -0.24273164226E+03  0.36119758642E+03  0.23121194232E+04  0.23576832329E+04  0.15294330000E+03 0.  0.
<mgrwt>
<rscale>  0 0.46127432E+03</rscale>
<asrwt>0</asrwt>
<pdfrwt beam="1">  1        2 0.45043759E+00 0.46127432E+03</pdfrwt>
<pdfrwt beam="2">  1       -2 0.17306600E-01 0.46127432E+03</pdfrwt>
<totfact> 0.58755752E+01</totfact>
</mgrwt>
</event>
<event>
 4    1  0.4880711E-008  0.8335537E+03  0.7818608E-02  0.9512680E-01
         -2   -1    0    0    0  501 -0.00000000000E+00  0.00000000000E+00  0.33585462839E+03  0.33585462840E+03  0.25500000000E-02 0.  1.
          2   -1    0    0  501    0  0.00000000000E+00 -0.00000000000E+00 -0.24272304679E+04  0.24272304679E+04  0.25500000000E-02 0. -1.
    8880022    1    1    2    0    0 -0.49073512305E+03 -0.65620051617E+03 -0.15765956099E+04  0.17833859505E+04  0.15294330000E+03 0.  0.
    8880022    1    1    2    0    0  0.49073512305E+03  0.65620051617E+03 -0.51478022964E+03  0.97969914579E+03  0.15294330000E+03 0.  0.
<mgrwt>
<rscale>  0 0.83355368E+03</rscale>
<asrwt>0</asrwt>
<pdfrwt beam="1">  1        2 0.37342006E+00 0.83355368E+03</pdfrwt>
<pdfrwt beam="2">  1       -2 0.51669945E-01 0.83355368E+03</pdfrwt>
<totfact> 0.14008107E+01</totfact>
</mgrwt>
</event>
<event>
 4    1  0.4880711E-008  0.6711310E+03  0.7818608E-02  0.9767917E-01
         -2   -1    0    0    0  501 -0.00000000000E+00  0.00000000000E+00  0.10844112946E+04  0.10844112946E+04  0.25500000000E-02 0.  1.
          2   -1    0    0  501    0  0.00000000000E+00 -0.00000000000E+00 -0.45438162272E+03  0.45438162273E+03  0.25500000000E-02 0. -1.
    8880022    1    1    2    0    0  0.62112125906E+03 -0.20306030012E+03  0.89531409427E+02  0.67707653203E+03  0.15294330000E+03 0.  0.
    8880022    1    1    2    0    0 -0.62112125906E+03  0.20306030012E+03  0.54049826241E+03  0.86171638526E+03  0.15294330000E+03 0.  0.
<mgrwt>
<rscale>  0 0.67113095E+03</rscale>
<asrwt>0</asrwt>
<pdfrwt beam="1">  1        2 0.69904866E-01 0.67113095E+03</pdfrwt>
<pdfrwt beam="2">  1       -2 0.16683250E+00 0.67113095E+03</pdfrwt>
<totfact> 0.15793698E+01</totfact>
</mgrwt>
</event>
<event>
 4    1  0.4880711E-008  0.8876747E+03  0.7818608E-02  0.9441121E-01
          2   -1    0    0  501    0  0.00000000000E+00  0.00000000000E+00  0.81783493435E+03  0.81783493435E+03  0.25500000000E-02 0. -1.
         -2   -1    0    0    0  501 -0.00000000000E+00 -0.00000000000E+00 -0.21700925983E+04  0.21700925983E+04  0.25500000000E-02 0.  1.
    8880022    1    1    2    0    0  0.87431099722E+03  0.12446437651E+02 -0.17901287246E+04  0.19981309109E+04  0.15294330000E+03 0.  0.
    8880022    1    1    2    0    0 -0.87431099722E+03 -0.12446437651E+02  0.43787106060E+03  0.98979662173E+03  0.15294330000E+03 0.  0.
<mgrwt>
<rscale>  0 0.88767465E+03</rscale>
<asrwt>0</asrwt>
<pdfrwt beam="1">  1        2 0.12582076E+00 0.88767465E+03</pdfrwt>
<pdfrwt beam="2">  1       -2 0.33386040E+00 0.88767465E+03</pdfrwt>
<totfact> 0.67475107E-01</totfact>
</mgrwt>
</event>
<event>
 4    1  0.4880711E-008  0.7411650E+03  0.7818608E-02  0.9649314E-01
          2   -1    0    0  501    0  0.00000000000E+00  0.00000000000E+00  0.20476531986E+04  0.20476531986E+04  0.25500000000E-02 0. -1.
         -2   -1    0    0    0  501 -0.00000000000E+00 -0.00000000000E+00 -0.48966738173E+03  0.48966738174E+03  0.25500000000E-02 0.  1.
    8880022    1    1    2    0    0 -0.71465987669E+03  0.12326854521E+03 -0.74068373944E+02  0.74485679873E+03  0.15294330000E+03 0.  0.
    8880022    1    1    2    0    0  0.71465987669E+03 -0.12326854521E+03  0.16320541908E+04  0.17924637816E+04  0.15294330000E+03 0.  0.
<mgrwt>
<rscale>  0 0.74116498E+03</rscale>
<asrwt>0</asrwt>
<pdfrwt beam="1">  1        2 0.31502357E+00 0.74116498E+03</pdfrwt>
<pdfrwt beam="2">  1       -2 0.75333442E-01 0.74116498E+03</pdfrwt>
<totfact> 0.10314379E+01</totfact>
</mgrwt>
</event>
<event>
 4    1  0.4880711E-008  0.7107530E+03  0.7818608E-02  0.9699018E-01
         -2   -1    0    0    0  501 -0.00000000000E+00  0.00000000000E+00  0.38143475262E+03  0.38143475263E+03  0.25500000000E-02 0.  1.
          2   -1    0    0  501    0  0.00000000000E+00 -0.00000000000E+00 -0.23778034775E+04  0.23778034775E+04  0.25500000000E-02 0. -1.
    8880022    1    1    2    0    0 -0.60833597630E+03  0.33422365343E+03 -0.79915395940E+02  0.71523159473E+03  0.15294330000E+03 0.  0.
    8880022    1    1    2    0    0  0.60833597630E+03 -0.33422365343E+03 -0.19164533290E+04  0.20440066354E+04  0.15294330000E+03 0.  0.
<mgrwt>
<rscale>  0 0.71075296E+03</rscale>
<asrwt>0</asrwt>
<pdfrwt beam="1">  1        2 0.36581591E+00 0.71075296E+03</pdfrwt>
<pdfrwt beam="2">  1       -2 0.58682271E-01 0.71075296E+03</pdfrwt>
<totfact> 0.11683771E+01</totfact>
</mgrwt>
</event>
<event>
 4    1  0.4880711E-008  0.1897331E+03  0.7818608E-02  0.1158702E+00
         -2   -1    0    0    0  501 -0.00000000000E+00  0.00000000000E+00  0.27728980602E+03  0.27728980604E+03  0.25500000000E-02 0.  1.
          2   -1    0    0  501    0  0.00000000000E+00 -0.00000000000E+00 -0.10837703322E+04  0.10837703322E+04  0.25500000000E-02 0. -1.
    8880022    1    1    2    0    0 -0.42595438685E+01 -0.11220010519E+03  0.23523023560E+03  0.30221172061E+03  0.15294330000E+03 0.  1.
    8880022    1    1    2    0    0  0.42595438685E+01  0.11220010519E+03 -0.10417107618E+04  0.10588484177E+04  0.15294330000E+03 0.  0.
<mgrwt>
<rscale>  0 0.18973313E+03</rscale>
<asrwt>0</asrwt>
<pdfrwt beam="1">  1        2 0.16673390E+00 0.18973313E+03</pdfrwt>
<pdfrwt beam="2">  1       -2 0.42659971E-01 0.18973313E+03</pdfrwt>
<totfact> 0.12666257E+02</totfact>
</mgrwt>
</event>
<event>
 4    1  0.4880711E-008  0.5116858E+03  0.7818608E-02  0.1010773E+00
          2   -1    0    0  501    0  0.00000000000E+00  0.00000000000E+00  0.25531589467E+04  0.25531589467E+04  0.25500000000E-02 0. -1.
         -2   -1    0    0    0  501 -0.00000000000E+00 -0.00000000000E+00 -0.15587024095E+03  0.15587024098E+03  0.25500000000E-02 0.  1.
    8880022    1    1    2    0    0  0.48575602571E+03 -0.49716741328E+02  0.40640808844E+03  0.65344460993E+03  0.15294330000E+03 0.  0.
    8880022    1    1    2    0    0 -0.48575602571E+03  0.49716741328E+02  0.19908806173E+04  0.20555845777E+04  0.15294330000E+03 0.  0.
<mgrwt>
<rscale>  0 0.51168577E+03</rscale>
<asrwt>0</asrwt>
<pdfrwt beam="1">  1        2 0.39279365E+00 0.51168577E+03</pdfrwt>
<pdfrwt beam="2">  1       -2 0.23980039E-01 0.51168577E+03</pdfrwt>
<totfact> 0.54249161E+01</totfact>
</mgrwt>
</event>
<event>
 4    1  0.4880711E-008  0.6059442E+03  0.7818608E-02  0.9893150E-01
         -2   -1    0    0    0  501 -0.00000000000E+00  0.00000000000E+00  0.92368416500E+03  0.92368416500E+03  0.25500000000E-02 0.  1.
          2   -1    0    0  501    0  0.00000000000E+00 -0.00000000000E+00 -0.52562584303E+03  0.52562584304E+03  0.25500000000E-02 0. -1.
    8880022    1    1    2    0    0  0.14087916516E+03  0.56914827093E+03 -0.15874104370E+03  0.62639210200E+03  0.15294330000E+03 0.  0.
    8880022    1    1    2    0    0 -0.14087916516E+03 -0.56914827093E+03  0.55679936566E+03  0.82291790605E+03  0.15294330000E+03 0.  0.
<mgrwt>
<rscale>  0 0.60594418E+03</rscale>
<asrwt>0</asrwt>
<pdfrwt beam="1">  1        2 0.80865515E-01 0.60594418E+03</pdfrwt>
<pdfrwt beam="2">  1       -2 0.14210525E+00 0.60594418E+03</pdfrwt>
<totfact> 0.20617249E+01</totfact>
</mgrwt>
</event>
<event>
 4    1  0.4880711E-008  0.6983215E+03  0.7818608E-02  0.9720107E-01
         -2   -1    0    0    0  501 -0.00000000000E+00  0.00000000000E+00  0.83317615658E+03  0.83317615658E+03  0.25500000000E-02 0.  1.
          2   -1    0    0  501    0  0.00000000000E+00 -0.00000000000E+00 -0.22088303981E+04  0.22088303981E+04  0.25500000000E-02 0. -1.
    8880022    1    1    2    0    0 -0.60723153497E+03  0.30908102201E+03 -0.19918343570E+04  0.21107005884E+04  0.15294330000E+03 0.  0.
    8880022    1    1    2    0    0  0.60723153497E+03 -0.30908102201E+03  0.61618011542E+03  0.93130596631E+03  0.15294330000E+03 0.  1.
<mgrwt>
<rscale>  0 0.69832146E+03</rscale>
<asrwt>0</asrwt>
<pdfrwt beam="1">  1        2 0.33982006E+00 0.69832146E+03</pdfrwt>
<pdfrwt beam="2">  1       -2 0.12818095E+00 0.69832146E+03</pdfrwt>
<totfact> 0.24190952E+00</totfact>
</mgrwt>
</event>
<event>
 4    1  0.4880711E-008  0.9360016E+03  0.7818608E-02  0.9381664E-01
         -2   -1    0    0    0  501 -0.00000000000E+00  0.00000000000E+00  0.95425645615E+03  0.95425645615E+03  0.25500000000E-02 0.  1.
          2   -1    0    0  501    0  0.00000000000E+00 -0.00000000000E+00 -0.19145410587E+04  0.19145410587E+04  0.25500000000E-02 0. -1.
    8880022    1    1    2    0    0 -0.30952088759E+03  0.87000235406E+03 -0.15149609850E+04  0.17807879478E+04  0.15294330000E+03 0.  0.
    8880022    1    1    2    0    0  0.30952088759E+03 -0.87000235406E+03  0.55467638240E+03  0.10880095671E+04  0.15294330000E+03 0.  0.
<mgrwt>
<rscale>  0 0.93600156E+03</rscale>
<asrwt>0</asrwt>
<pdfrwt beam="1">  1        2 0.29454478E+00 0.93600156E+03</pdfrwt>
<pdfrwt beam="2">  1       -2 0.14680869E+00 0.93600156E+03</pdfrwt>
<totfact> 0.23769416E+00</totfact>
</mgrwt>
</event>
<event>
 4    1  0.4880711E-008  0.8492740E+03  0.7818608E-02  0.9491312E-01
          2   -1    0    0  501    0  0.00000000000E+00  0.00000000000E+00  0.16358676858E+04  0.16358676858E+04  0.25500000000E-02 0. -1.
         -2   -1    0    0    0  501 -0.00000000000E+00 -0.00000000000E+00 -0.74355730954E+03  0.74355730954E+03  0.25500000000E-02 0.  1.
    8880022    1    1    2    0    0 -0.29438284403E+03  0.78180141755E+03  0.12051782762E+04  0.14743544505E+04  0.15294330000E+03 0.  0.
    8880022    1    1    2    0    0  0.29438284403E+03 -0.78180141755E+03 -0.31286789992E+03  0.90507054485E+03  0.15294330000E+03 0.  0.
<mgrwt>
<rscale>  0 0.84927402E+03</rscale>
<asrwt>0</asrwt>
<pdfrwt beam="1">  1        2 0.25167195E+00 0.84927402E+03</pdfrwt>
<pdfrwt beam="2">  1       -2 0.11439343E+00 0.84927402E+03</pdfrwt>
<totfact> 0.64469316E+00</totfact>
</mgrwt>
</event>
<event>
 4    1  0.4880711E-008  0.6180823E+03  0.7818608E-02  0.9868585E-01
          2   -1    0    0  501    0  0.00000000000E+00  0.00000000000E+00  0.84472391791E+03  0.84472391792E+03  0.25500000000E-02 0. -1.
         -2   -1    0    0    0  501 -0.00000000000E+00 -0.00000000000E+00 -0.58821395447E+03  0.58821395447E+03  0.25500000000E-02 0.  1.
    8880022    1    1    2    0    0  0.22663802170E+03  0.55431878700E+03  0.47271814511E+03  0.77813122816E+03  0.15294330000E+03 0.  0.
    8880022    1    1    2    0    0 -0.22663802170E+03 -0.55431878700E+03 -0.21620818166E+03  0.65480664423E+03  0.15294330000E+03 0.  0.
<mgrwt>
<rscale>  0 0.61808233E+03</rscale>
<asrwt>0</asrwt>
<pdfrwt beam="1">  1        2 0.12995753E+00 0.61808233E+03</pdfrwt>
<pdfrwt beam="2">  1       -2 0.90494455E-01 0.61808233E+03</pdfrwt>
<totfact> 0.34322467E+01</totfact>
</mgrwt>
</event>
<event>
 4    1  0.4880711E-008  0.3991659E+03  0.7818608E-02  0.1044069E+00
          2   -1    0    0  501    0  0.00000000000E+00  0.00000000000E+00  0.23997742890E+04  0.23997742891E+04  0.25500000000E-02 0. -1.
         -2   -1    0    0    0  501 -0.00000000000E+00 -0.00000000000E+00 -0.12782872590E+03  0.12782872592E+03  0.25500000000E-02 0.  1.
    8880022    1    1    2    0    0 -0.34328084754E+03  0.13453640482E+03  0.20121005452E+04  0.20513122730E+04  0.15294330000E+03 0.  0.
    8880022    1    1    2    0    0  0.34328084754E+03 -0.13453640482E+03  0.25984501800E+03  0.47629074199E+03  0.15294330000E+03 0.  0.
<mgrwt>
<rscale>  0 0.39916593E+03</rscale>
<asrwt>0</asrwt>
<pdfrwt beam="1">  1        2 0.36919604E+00 0.39916593E+03</pdfrwt>
<pdfrwt beam="2">  1       -2 0.19665958E-01 0.39916593E+03</pdfrwt>
<totfact> 0.95737770E+01</totfact>
</mgrwt>
</event>
<event>
 4    1  0.4880711E-008  0.5799706E+03  0.7818608E-02  0.9947855E-01
         -2   -1    0    0    0  501 -0.00000000000E+00  0.00000000000E+00  0.18716446587E+03  0.18716446588E+03  0.25500000000E-02 0.  1.
          2   -1    0    0  501    0  0.00000000000E+00 -0.00000000000E+00 -0.35536203269E+04  0.35536203269E+04  0.25500000000E-02 0. -1.
    8880022    1    1    2    0    0  0.46550181620E+03 -0.31029387021E+03 -0.36825906244E+03  0.68700845473E+03  0.15294330000E+03 0.  0.
    8880022    1    1    2    0    0 -0.46550181620E+03  0.31029387021E+03 -0.29981967986E+04  0.30537763380E+04  0.15294330000E+03 0. -1.
<mgrwt>
<rscale>  0 0.57997059E+03</rscale>
<asrwt>0</asrwt>
<pdfrwt beam="1">  1        2 0.54671077E+00 0.57997059E+03</pdfrwt>
<pdfrwt beam="2">  1       -2 0.28794536E-01 0.57997059E+03</pdfrwt>
<totfact> 0.92692342E+00</totfact>
</mgrwt>
</event>
<event>
 4    1  0.4880711E-008  0.3500434E+03  0.7818608E-02  0.1062597E+00
         -2   -1    0    0    0  501 -0.00000000000E+00  0.00000000000E+00  0.98331458529E+03  0.98331458530E+03  0.25500000000E-02 0.  1.
          2   -1    0    0  501    0  0.00000000000E+00 -0.00000000000E+00 -0.91174590410E+03  0.91174590410E+03  0.25500000000E-02 0. -1.
    8880022    1    1    2    0    0  0.28599146424E+03  0.13171039856E+03 -0.84461792803E+03  0.91428105311E+03  0.15294330000E+03 0.  0.
    8880022    1    1    2    0    0 -0.28599146424E+03 -0.13171039856E+03  0.91618660923E+03  0.98077943629E+03  0.15294330000E+03 0.  0.
<mgrwt>
<rscale>  0 0.35004343E+03</rscale>
<asrwt>0</asrwt>
<pdfrwt beam="1">  1        2 0.14026860E+00 0.35004343E+03</pdfrwt>
<pdfrwt beam="2">  1       -2 0.15127917E+00 0.35004343E+03</pdfrwt>
<totfact> 0.91979123E+00</totfact>
</mgrwt>
</event>
<event>
 4    1  0.4880711E-008  0.2989398E+03  0.7818608E-02  0.1085772E+00
         -2   -1    0    0    0  501 -0.00000000000E+00  0.00000000000E+00  0.55087275621E+03  0.55087275622E+03  0.25500000000E-02 0.  1.
          2   -1    0    0  501    0  0.00000000000E+00 -0.00000000000E+00 -0.40484386127E+03  0.40484386128E+03  0.25500000000E-02 0. -1.
    8880022    1    1    2    0    0  0.12860879596E+03 -0.22233556295E+03  0.44294331177E+03  0.53438165706E+03  0.15294330000E+03 0.  0.
    8880022    1    1    2    0    0 -0.12860879596E+03  0.22233556295E+03 -0.29691441682E+03  0.42133496043E+03  0.15294330000E+03 0. -1.
<mgrwt>
<rscale>  0 0.29893976E+03</rscale>
<asrwt>0</asrwt>
<pdfrwt beam="1">  1        2 0.62283671E-01 0.29893976E+03</pdfrwt>
<pdfrwt beam="2">  1       -2 0.84749655E-01 0.29893976E+03</pdfrwt>
<totfact> 0.99350020E+01</totfact>
</mgrwt>
</event>
<event>
 4    1  0.4880711E-008  0.4880942E+03  0.7818608E-02  0.1016934E+00
          2   -1    0    0  501    0  0.00000000000E+00  0.00000000000E+00  0.44040642482E+04  0.44040642482E+04  0.25500000000E-02 0. -1.
         -2   -1    0    0    0  501 -0.00000000000E+00 -0.00000000000E+00 -0.12754458000E+03  0.12754458003E+03  0.25500000000E-02 0.  1.
    8880022    1    1    2    0    0 -0.80587214163E+02  0.45645368071E+03  0.41881844817E+03  0.64315224268E+03  0.15294330000E+03 0.  0.
    8880022    1    1    2    0    0  0.80587214163E+02 -0.45645368071E+03  0.38577012201E+04  0.38884565856E+04  0.15294330000E+03 0.  0.
<mgrwt>
<rscale>  0 0.48809417E+03</rscale>
<asrwt>0</asrwt>
<pdfrwt beam="1">  1        2 0.67754819E+00 0.48809417E+03</pdfrwt>
<pdfrwt beam="2">  1       -2 0.19622247E-01 0.48809417E+03</pdfrwt>
<totfact> 0.40797722E+00</totfact>
</mgrwt>
</event>
<event>
 4    1  0.4880711E-008  0.1295817E+04  0.7818608E-02  0.9032889E-01
          2   -1    0    0  501    0  0.00000000000E+00  0.00000000000E+00  0.22285183862E+04  0.22285183862E+04  0.25500000000E-02 0. -1.
         -2   -1    0    0    0  501 -0.00000000000E+00 -0.00000000000E+00 -0.11139772569E+04  0.11139772569E+04  0.25500000000E-02 0.  1.
    8880022    1    1    2    0    0  0.10798176209E+04 -0.69981674886E+03  0.15079945095E+04  0.19882627267E+04  0.15294330000E+03 0.  0.
    8880022    1    1    2    0    0 -0.10798176209E+04  0.69981674886E+03 -0.39345338031E+03  0.13542329164E+04  0.15294330000E+03 0.  0.
<mgrwt>
<rscale>  0 0.12958168E+04</rscale>
<asrwt>0</asrwt>
<pdfrwt beam="1">  1        2 0.34284898E+00 0.12958168E+04</pdfrwt>
<pdfrwt beam="2">  1       -2 0.17138112E+00 0.12958168E+04</pdfrwt>
<totfact> 0.99800911E-01</totfact>
</mgrwt>
</event>
<event>
 4    1  0.4880711E-008  0.6159401E+03  0.7818608E-02  0.9872876E-01
         -2   -1    0    0    0  501 -0.00000000000E+00  0.00000000000E+00  0.69891997993E+03  0.69891997993E+03  0.25500000000E-02 0.  1.
          2   -1    0    0  501    0  0.00000000000E+00 -0.00000000000E+00 -0.24211698323E+04  0.24211698323E+04  0.25500000000E-02 0. -1.
    8880022    1    1    2    0    0  0.56252230392E+03  0.19889505324E+03  0.51296015277E+03  0.80156743694E+03  0.15294330000E+03 0.  0.
    8880022    1    1    2    0    0 -0.56252230392E+03 -0.19889505324E+03 -0.22352100051E+04  0.23185223753E+04  0.15294330000E+03 0.  0.
<mgrwt>
<rscale>  0 0.61594013E+03</rscale>
<asrwt>0</asrwt>
<pdfrwt beam="1">  1        2 0.37248766E+00 0.61594013E+03</pdfrwt>
<pdfrwt beam="2">  1       -2 0.10752615E+00 0.61594013E+03</pdfrwt>
<totfact> 0.28925448E+00</totfact>
</mgrwt>
</event>
<event>
 4    1  0.4880711E-008  0.2221657E+03  0.7818608E-02  0.1132279E+00
          2   -1    0    0  501    0  0.00000000000E+00  0.00000000000E+00  0.23540128003E+04  0.23540128003E+04  0.25500000000E-02 0. -1.
         -2   -1    0    0    0  501 -0.00000000000E+00 -0.00000000000E+00 -0.28807651697E+02  0.28807651809E+02  0.25500000000E-02 0.  1.
    8880022    1    1    2    0    0  0.19482333377E+01 -0.16112780378E+03  0.17841458065E+04  0.17979248807E+04  0.15294330000E+03 0.  0.
    8880022    1    1    2    0    0 -0.19482333377E+01  0.16112780378E+03  0.54105934208E+03  0.58489557139E+03  0.15294330000E+03 0.  0.
<mgrwt>
<rscale>  0 0.22216574E+03</rscale>
<asrwt>0</asrwt>
<pdfrwt beam="1">  1        2 0.36215575E+00 0.22216574E+03</pdfrwt>
<pdfrwt beam="2">  1       -2 0.44319472E-02 0.22216574E+03</pdfrwt>
<totfact> 0.11408096E+03</totfact>
</mgrwt>
</event>
<event>
 4    1  0.4880711E-008  0.1723206E+03  0.7818608E-02  0.1175449E+00
         -2   -1    0    0    0  501 -0.00000000000E+00  0.00000000000E+00  0.33668780963E+02  0.33668781060E+02  0.25500000000E-02 0.  1.
          2   -1    0    0  501    0  0.00000000000E+00 -0.00000000000E+00 -0.94145640469E+03  0.94145640469E+03  0.25500000000E-02 0. -1.
    8880022    1    1    2    0    0 -0.36066082771E+01 -0.79307900926E+02 -0.57646489499E+03  0.60166949311E+03  0.15294330000E+03 0.  1.
    8880022    1    1    2    0    0  0.36066082771E+01  0.79307900926E+02 -0.33132272874E+03  0.37345569264E+03  0.15294330000E+03 0. -1.
<mgrwt>
<rscale>  0 0.17232064E+03</rscale>
<asrwt>0</asrwt>
<pdfrwt beam="1">  1        2 0.14483943E+00 0.17232064E+03</pdfrwt>
<pdfrwt beam="2">  1       -2 0.51798132E-02 0.17232064E+03</pdfrwt>
<totfact> 0.52105031E+03</totfact>
</mgrwt>
</event>
<event>
 4    1  0.4880711E-008  0.2379114E+03  0.7818608E-02  0.1121192E+00
         -2   -1    0    0    0  501 -0.00000000000E+00  0.00000000000E+00  0.10955995532E+04  0.10955995532E+04  0.25500000000E-02 0.  1.
          2   -1    0    0  501    0  0.00000000000E+00 -0.00000000000E+00 -0.53153814646E+03  0.53153814646E+03  0.25500000000E-02 0. -1.
    8880022    1    1    2    0    0  0.10398485502E+03  0.14965735180E+03  0.10550516764E+04  0.10815432798E+04  0.15294330000E+03 0.  1.
    8880022    1    1    2    0    0 -0.10398485502E+03 -0.14965735180E+03 -0.49099026973E+03  0.54559441988E+03  0.15294330000E+03 0.  0.
<mgrwt>
<rscale>  0 0.23791138E+03</rscale>
<asrwt>0</asrwt>
<pdfrwt beam="1">  1        2 0.81775101E-01 0.23791138E+03</pdfrwt>
<pdfrwt beam="2">  1       -2 0.16855377E+00 0.23791138E+03</pdfrwt>
<totfact> 0.13837236E+01</totfact>
</mgrwt>
</event>
<event>
 4    1  0.4880711E-008  0.1769410E+03  0.7818608E-02  0.1170797E+00
          2   -1    0    0  501    0  0.00000000000E+00  0.00000000000E+00  0.10407503432E+04  0.10407503432E+04  0.25500000000E-02 0. -1.
         -2   -1    0    0    0  501 -0.00000000000E+00 -0.00000000000E+00 -0.20083819662E+03  0.20083819663E+03  0.25500000000E-02 0.  1.
    8880022    1    1    2    0    0 -0.16489417298E+02  0.87433281422E+02  0.99237295895E+03  0.10080239195E+04  0.15294330000E+03 0.  0.
    8880022    1    1    2    0    0  0.16489417298E+02 -0.87433281422E+02 -0.15246081233E+03  0.23356462038E+03  0.15294330000E+03 0.  1.
<mgrwt>
<rscale>  0 0.17694104E+03</rscale>
<asrwt>0</asrwt>
<pdfrwt beam="1">  1        2 0.16011544E+00 0.17694104E+03</pdfrwt>
<pdfrwt beam="2">  1       -2 0.30898184E-01 0.17694104E+03</pdfrwt>
<totfact> 0.24625134E+02</totfact>
</mgrwt>
</event>
<event>
 4    1  0.4880711E-008  0.4164943E+03  0.7818608E-02  0.1038213E+00
          2   -1    0    0  501    0  0.00000000000E+00  0.00000000000E+00  0.28688200141E+04  0.28688200141E+04  0.25500000000E-02 0. -1.
         -2   -1    0    0    0  501 -0.00000000000E+00 -0.00000000000E+00 -0.17180784936E+03  0.17180784938E+03  0.25500000000E-02 0.  1.
    8880022    1    1    2    0    0  0.32895538916E+03  0.20460746126E+03  0.25723893818E+04  0.26058884561E+04  0.15294330000E+03 0. -1.
    8880022    1    1    2    0    0 -0.32895538916E+03 -0.20460746126E+03  0.12462278296E+03  0.43473940736E+03  0.15294330000E+03 0.  1.
<mgrwt>
<rscale>  0 0.41649431E+03</rscale>
<asrwt>0</asrwt>
<pdfrwt beam="1">  1        2 0.44135691E+00 0.41649431E+03</pdfrwt>
<pdfrwt beam="2">  1       -2 0.26431978E-01 0.41649431E+03</pdfrwt>
<totfact> 0.30694303E+01</totfact>
</mgrwt>
</event>
<event>
 4    1  0.4880711E-008  0.4134348E+03  0.7818608E-02  0.1039224E+00
         -2   -1    0    0    0  501 -0.00000000000E+00  0.00000000000E+00  0.12122147844E+03  0.12122147847E+03  0.25500000000E-02 0.  1.
          2   -1    0    0  501    0  0.00000000000E+00 -0.00000000000E+00 -0.21932808410E+04  0.21932808410E+04  0.25500000000E-02 0. -1.
    8880022    1    1    2    0    0  0.38210420359E+03  0.39154039531E+02 -0.34447668982E+03  0.53813799722E+03  0.15294330000E+03 0.  0.
    8880022    1    1    2    0    0 -0.38210420359E+03 -0.39154039531E+02 -0.17275826728E+04  0.17763643223E+04  0.15294330000E+03 0. -1.
<mgrwt>
<rscale>  0 0.41343478E+03</rscale>
<asrwt>0</asrwt>
<pdfrwt beam="1">  1        2 0.33742779E+00 0.41343478E+03</pdfrwt>
<pdfrwt beam="2">  1       -2 0.18649460E-01 0.41343478E+03</pdfrwt>
<totfact> 0.13548606E+02</totfact>
</mgrwt>
</event>
<event>
 4    1  0.7266542E-008  0.5599991E+03  0.7818608E-02  0.9992057E-01
         -2   -1    0    0    0  501 -0.00000000000E+00  0.00000000000E+00  0.89251396656E+03  0.89251396657E+03  0.25500000000E-02 0.  1.
          2   -1    0    0  501    0  0.00000000000E+00 -0.00000000000E+00 -0.15288105642E+04  0.15288105642E+04  0.25500000000E-02 0. -1.
    8880022    1    1    2    0    0 -0.90070393677E+02  0.53112587141E+03  0.74432105508E+03  0.93145738129E+03  0.15294330000E+03 0.  0.
    8880022    1    1    2    0    0  0.90070393677E+02 -0.53112587141E+03 -0.13806176527E+04  0.14898671495E+04  0.15294330000E+03 0.  0.
<mgrwt>
<rscale>  0 0.55999913E+03</rscale>
<asrwt>0</asrwt>
<pdfrwt beam="1">  1        2 0.23520162E+00 0.55999913E+03</pdfrwt>
<pdfrwt beam="2">  1       -2 0.13730984E+00 0.55999913E+03</pdfrwt>
<totfact> 0.49024566E+00</totfact>
</mgrwt>
</event>
<event>
 4    1  0.4880711E-008  0.8783607E+03  0.7818608E-02  0.9453043E-01
         -2   -1    0    0    0  501 -0.00000000000E+00  0.00000000000E+00  0.36247824637E+03  0.36247824638E+03  0.25500000000E-02 0.  1.
          2   -1    0    0  501    0  0.00000000000E+00 -0.00000000000E+00 -0.33270836107E+04  0.33270836107E+04  0.25500000000E-02 0. -1.
    8880022    1    1    2    0    0 -0.13657584920E+03 -0.85409190912E+03 -0.25895784048E+04  0.27344897000E+04  0.15294330000E+03 0.  0.
    8880022    1    1    2    0    0  0.13657584920E+03  0.85409190912E+03 -0.37502695951E+03  0.95507215706E+03  0.15294330000E+03 0.  0.
<mgrwt>
<rscale>  0 0.87836075E+03</rscale>
<asrwt>0</asrwt>
<pdfrwt beam="1">  1        2 0.51185900E+00 0.87836075E+03</pdfrwt>
<pdfrwt beam="2">  1       -2 0.55765886E-01 0.87836075E+03</pdfrwt>
<totfact> 0.33965467E+00</totfact>
</mgrwt>
</event>
<event>
 4    1  0.4880711E-008  0.3212850E+03  0.7818608E-02  0.1075059E+00
         -2   -1    0    0    0  501 -0.00000000000E+00  0.00000000000E+00  0.15532677589E+03  0.15532677591E+03  0.25500000000E-02 0.  1.
          2   -1    0    0  501    0  0.00000000000E+00 -0.00000000000E+00 -0.70887797738E+03  0.70887797738E+03  0.25500000000E-02 0. -1.
    8880022    1    1    2    0    0 -0.18248738216E+03  0.21570981081E+03 -0.16873448749E+03  0.36289853597E+03  0.15294330000E+03 0.  0.
    8880022    1    1    2    0    0  0.18248738216E+03 -0.21570981081E+03 -0.38481671400E+03  0.50130621732E+03  0.15294330000E+03 0.  0.
<mgrwt>
<rscale>  0 0.32128495E+03</rscale>
<asrwt>0</asrwt>
<pdfrwt beam="1">  1        2 0.10905815E+00 0.32128495E+03</pdfrwt>
<pdfrwt beam="2">  1       -2 0.23896428E-01 0.32128495E+03</pdfrwt>
<totfact> 0.63751258E+02</totfact>
</mgrwt>
</event>
<event>
 4    1  0.4880711E-008  0.5816063E+03  0.7818608E-02  0.9944319E-01
         -2   -1    0    0    0  501 -0.00000000000E+00  0.00000000000E+00  0.11525691213E+03  0.11525691216E+03  0.25500000000E-02 0.  1.
          2   -1    0    0  501    0  0.00000000000E+00 -0.00000000000E+00 -0.31028867732E+04  0.31028867732E+04  0.25500000000E-02 0. -1.
    8880022    1    1    2    0    0  0.56113243466E+03  0.21575104357E+01 -0.18682253235E+04  0.19566634295E+04  0.15294330000E+03 0.  0.
    8880022    1    1    2    0    0 -0.56113243466E+03 -0.21575104357E+01 -0.11194045375E+04  0.12614802558E+04  0.15294330000E+03 0.  0.
<mgrwt>
<rscale>  0 0.58160632E+03</rscale>
<asrwt>0</asrwt>
<pdfrwt beam="1">  1        2 0.47736713E+00 0.58160632E+03</pdfrwt>
<pdfrwt beam="2">  1       -2 0.17731835E-01 0.58160632E+03</pdfrwt>
<totfact> 0.43012458E+01</totfact>
</mgrwt>
</event>
<event>
 4    1  0.4880711E-008  0.4980703E+03  0.7818608E-02  0.1014284E+00
          2   -1    0    0  501    0  0.00000000000E+00  0.00000000000E+00  0.14931171355E+04  0.14931171355E+04  0.25500000000E-02 0. -1.
         -2   -1    0    0    0  501 -0.00000000000E+00 -0.00000000000E+00 -0.20210559151E+03  0.20210559153E+03  0.25500000000E-02 0.  1.
    8880022    1    1    2    0    0 -0.47002099747E+03 -0.61340297820E+02  0.10030425393E+04  0.11198965840E+04  0.15294330000E+03 0.  0.
    8880022    1    1    2    0    0  0.47002099747E+03  0.61340297820E+02  0.28796900475E+03  0.57532614308E+03  0.15294330000E+03 0.  1.
<mgrwt>
<rscale>  0 0.49807030E+03</rscale>
<asrwt>0</asrwt>
<pdfrwt beam="1">  1        2 0.22971033E+00 0.49807030E+03</pdfrwt>
<pdfrwt beam="2">  1       -2 0.31093168E-01 0.49807030E+03</pdfrwt>
<totfact> 0.12818562E+02</totfact>
</mgrwt>
</event>
<event>
 4    1  0.4880711E-008  0.3390860E+03  0.7818608E-02  0.1067186E+00
          2   -1    0    0  501    0  0.00000000000E+00  0.00000000000E+00  0.77764012900E+03  0.77764012901E+03  0.25500000000E-02 0. -1.
         -2   -1    0    0    0  501 -0.00000000000E+00 -0.00000000000E+00 -0.18373341359E+03  0.18373341361E+03  0.25500000000E-02 0.  1.
    8880022    1    1    2    0    0  0.29500738740E+03  0.67515416224E+02  0.84543770242E+02  0.34946672538E+03  0.15294330000E+03 0. -1.
    8880022    1    1    2    0    0 -0.29500738740E+03 -0.67515416224E+02  0.50936294517E+03  0.61190681723E+03  0.15294330000E+03 0.  0.
<mgrwt>
<rscale>  0 0.33908604E+03</rscale>
<asrwt>0</asrwt>
<pdfrwt beam="1">  1        2 0.11963694E+00 0.33908604E+03</pdfrwt>
<pdfrwt beam="2">  1       -2 0.28266679E-01 0.33908604E+03</pdfrwt>
<totfact> 0.41996671E+02</totfact>
</mgrwt>
</event>
<event>
 4    1  0.4880711E-008  0.3537055E+03  0.7818608E-02  0.1061104E+00
          2   -1    0    0  501    0  0.00000000000E+00  0.00000000000E+00  0.11729542097E+04  0.11729542097E+04  0.25500000000E-02 0. -1.
         -2   -1    0    0    0  501 -0.00000000000E+00 -0.00000000000E+00 -0.30104035481E+03  0.30104035482E+03  0.25500000000E-02 0.  1.
    8880022    1    1    2    0    0 -0.31891004327E+03  0.35129677599E+01 -0.15625808761E+03  0.38668359106E+03  0.15294330000E+03 0.  0.
    8880022    1    1    2    0    0  0.31891004327E+03 -0.35129677599E+01  0.10281719425E+04  0.10873109735E+04  0.15294330000E+03 0.  0.
<mgrwt>
<rscale>  0 0.35370554E+03</rscale>
<asrwt>0</asrwt>
<pdfrwt beam="1">  1        2 0.18045449E+00 0.35370554E+03</pdfrwt>
<pdfrwt beam="2">  1       -2 0.46313901E-01 0.35370554E+03</pdfrwt>
<totfact> 0.92414189E+01</totfact>
</mgrwt>
</event>
<event>
 4    1  0.4880711E-008  0.3855276E+03  0.7818608E-02  0.1048909E+00
         -2   -1    0    0    0  501 -0.00000000000E+00  0.00000000000E+00  0.81651657218E+03  0.81651657218E+03  0.25500000000E-02 0.  1.
          2   -1    0    0  501    0  0.00000000000E+00 -0.00000000000E+00 -0.60237003980E+03  0.60237003981E+03  0.25500000000E-02 0. -1.
    8880022    1    1    2    0    0 -0.86823704500E+01 -0.35378597132E+03  0.69970613824E+03  0.79888686931E+03  0.15294330000E+03 0.  1.
    8880022    1    1    2    0    0  0.86823704500E+01  0.35378597132E+03 -0.48555960586E+03  0.61999974268E+03  0.15294330000E+03 0.  0.
<mgrwt>
<rscale>  0 0.38552763E+03</rscale>
<asrwt>0</asrwt>
<pdfrwt beam="1">  1        2 0.92672314E-01 0.38552763E+03</pdfrwt>
<pdfrwt beam="2">  1       -2 0.12561793E+00 0.38552763E+03</pdfrwt>
<totfact> 0.24722976E+01</totfact>
</mgrwt>
</event>
<event>
 4    1  0.4880711E-008  0.4847342E+03  0.7818608E-02  0.1017842E+00
          2   -1    0    0  501    0  0.00000000000E+00  0.00000000000E+00  0.95646903561E+03  0.95646903561E+03  0.25500000000E-02 0. -1.
         -2   -1    0    0    0  501 -0.00000000000E+00 -0.00000000000E+00 -0.96531919142E+03  0.96531919143E+03  0.25500000000E-02 0.  1.
    8880022    1    1    2    0    0 -0.75477297299E+02 -0.45373864069E+03  0.82524068897E+03  0.95707336407E+03  0.15294330000E+03 0.  0.
    8880022    1    1    2    0    0  0.75477297299E+02  0.45373864069E+03 -0.83409084479E+03  0.96471486297E+03  0.15294330000E+03 0.  1.
<mgrwt>
<rscale>  0 0.48473418E+03</rscale>
<asrwt>0</asrwt>
<pdfrwt beam="1">  1        2 0.14714908E+00 0.48473418E+03</pdfrwt>
<pdfrwt beam="2">  1       -2 0.14851065E+00 0.48473418E+03</pdfrwt>
<totfact> 0.87639108E+00</totfact>
</mgrwt>
</event>
<event>
 4    1  0.4880711E-008  0.6876021E+03  0.7818608E-02  0.9738672E-01
          2   -1    0    0  501    0  0.00000000000E+00  0.00000000000E+00  0.90430394048E+03  0.90430394048E+03  0.25500000000E-02 0. -1.
         -2   -1    0    0    0  501 -0.00000000000E+00 -0.00000000000E+00 -0.94783530614E+03  0.94783530614E+03  0.25500000000E-02 0.  1.
    8880022    1    1    2    0    0  0.63885618256E+02 -0.66732572287E+03 -0.64188420551E+03  0.94064444873E+03  0.15294330000E+03 0.  0.
    8880022    1    1    2    0    0 -0.63885618256E+02  0.66732572287E+03  0.59835283985E+03  0.91149479790E+03  0.15294330000E+03 0.  0.
<mgrwt>
<rscale>  0 0.68760210E+03</rscale>
<asrwt>0</asrwt>
<pdfrwt beam="1">  1        2 0.13912368E+00 0.68760210E+03</pdfrwt>
<pdfrwt beam="2">  1       -2 0.14582082E+00 0.68760210E+03</pdfrwt>
<totfact> 0.96366459E+00</totfact>
</mgrwt>
</event>
<event>
 4    1  0.4880711E-008  0.5389565E+03  0.7818608E-02  0.1004083E+00
          2   -1    0    0  501    0  0.00000000000E+00  0.00000000000E+00  0.62985643456E+03  0.62985643457E+03  0.25500000000E-02 0. -1.
         -2   -1    0    0    0  501 -0.00000000000E+00 -0.00000000000E+00 -0.11693550704E+04  0.11693550704E+04  0.25500000000E-02 0.  1.
    8880022    1    1    2    0    0  0.28844551341E+03  0.42881421285E+03  0.43033580009E+03  0.68968325861E+03  0.15294330000E+03 0.  0.
    8880022    1    1    2    0    0 -0.28844551341E+03 -0.42881421285E+03 -0.96983443590E+03  0.11095282463E+04  0.15294330000E+03 0.  0.
<mgrwt>
<rscale>  0 0.53895649E+03</rscale>
<asrwt>0</asrwt>
<pdfrwt beam="1">  1        2 0.96900990E-01 0.53895649E+03</pdfrwt>
<pdfrwt beam="2">  1       -2 0.17990078E+00 0.53895649E+03</pdfrwt>
<totfact> 0.88832711E+00</totfact>
</mgrwt>
</event>
<event>
 4    1  0.4880711E-008  0.8909960E+03  0.7818608E-02  0.9436907E-01
         -2   -1    0    0    0  501 -0.00000000000E+00  0.00000000000E+00  0.61844073117E+03  0.61844073118E+03  0.25500000000E-02 0.  1.
          2   -1    0    0  501    0  0.00000000000E+00 -0.00000000000E+00 -0.17038607036E+04  0.17038607036E+04  0.25500000000E-02 0. -1.
    8880022    1    1    2    0    0  0.16110570413E+03  0.86285985160E+03  0.33916732465E+02  0.89164127829E+03  0.15294330000E+03 0.  0.
    8880022    1    1    2    0    0 -0.16110570413E+03 -0.86285985160E+03 -0.11193367048E+04  0.14306601564E+04  0.15294330000E+03 0.  0.
<mgrwt>
<rscale>  0 0.89099597E+03</rscale>
<asrwt>0</asrwt>
<pdfrwt beam="1">  1        2 0.26213241E+00 0.89099597E+03</pdfrwt>
<pdfrwt beam="2">  1       -2 0.95144728E-01 0.89099597E+03</pdfrwt>
<totfact> 0.91521874E+00</totfact>
</mgrwt>
</event>
<event>
 4    1  0.4880711E-008  0.4798548E+03  0.7818608E-02  0.1019175E+00
         -2   -1    0    0    0  501 -0.00000000000E+00  0.00000000000E+00  0.11629126591E+03  0.11629126593E+03  0.25500000000E-02 0.  1.
          2   -1    0    0  501    0  0.00000000000E+00 -0.00000000000E+00 -0.21317532738E+04  0.21317532738E+04  0.25500000000E-02 0. -1.
    8880022    1    1    2    0    0  0.31494129507E+03 -0.32814770349E+03 -0.13075973445E+04  0.13928644597E+04  0.15294330000E+03 0.  0.
    8880022    1    1    2    0    0 -0.31494129507E+03  0.32814770349E+03 -0.70786466338E+03  0.85518008006E+03  0.15294330000E+03 0.  0.
<mgrwt>
<rscale>  0 0.47985476E+03</rscale>
<asrwt>0</asrwt>
<pdfrwt beam="1">  1        2 0.32796201E+00 0.47985476E+03</pdfrwt>
<pdfrwt beam="2">  1       -2 0.17890966E-01 0.47985476E+03</pdfrwt>
<totfact> 0.15527933E+02</totfact>
</mgrwt>
</event>
<event>
 4    1  0.4880711E-008  0.4855609E+03  0.7818608E-02  0.1017618E+00
          2   -1    0    0  501    0  0.00000000000E+00  0.00000000000E+00  0.25366745366E+03  0.25366745367E+03  0.25500000000E-02 0. -1.
         -2   -1    0    0    0  501 -0.00000000000E+00 -0.00000000000E+00 -0.11088717360E+04  0.11088717360E+04  0.25500000000E-02 0.  1.
    8880022    1    1    2    0    0  0.15841812778E+03  0.43276025002E+03 -0.70164884451E+03  0.85327632759E+03  0.15294330000E+03 0. -1.
    8880022    1    1    2    0    0 -0.15841812778E+03 -0.43276025002E+03 -0.15355543783E+03  0.50926286209E+03  0.15294330000E+03 0.  0.
<mgrwt>
<rscale>  0 0.48556090E+03</rscale>
<asrwt>0</asrwt>
<pdfrwt beam="1">  1        2 0.39025763E-01 0.48556090E+03</pdfrwt>
<pdfrwt beam="2">  1       -2 0.17059565E+00 0.48556090E+03</pdfrwt>
<totfact> 0.28966519E+01</totfact>
</mgrwt>
</event>
<event>
 4    1  0.4880711E-008  0.4802881E+03  0.7818608E-02  0.1019056E+00
          2   -1    0    0  501    0  0.00000000000E+00  0.00000000000E+00  0.10280349912E+04  0.10280349912E+04  0.25500000000E-02 0. -1.
         -2   -1    0    0    0  501 -0.00000000000E+00 -0.00000000000E+00 -0.28646177126E+03  0.28646177127E+03  0.25500000000E-02 0.  1.
    8880022    1    1    2    0    0  0.92721814984E+02 -0.44574395356E+03  0.67674139429E+03  0.82985274288E+03  0.15294330000E+03 0.  0.
    8880022    1    1    2    0    0 -0.92721814984E+02  0.44574395356E+03  0.64831825662E+02  0.48464401961E+03  0.15294330000E+03 0.  0.
<mgrwt>
<rscale>  0 0.48028810E+03</rscale>
<asrwt>0</asrwt>
<pdfrwt beam="1">  1        2 0.15815923E+00 0.48028810E+03</pdfrwt>
<pdfrwt beam="2">  1       -2 0.44071042E-01 0.48028810E+03</pdfrwt>
<totfact> 0.12238072E+02</totfact>
</mgrwt>
</event>
<event>
 4    1  0.4880711E-008  0.2931049E+03  0.7818608E-02  0.1088739E+00
          2   -1    0    0  501    0  0.00000000000E+00  0.00000000000E+00  0.16174139609E+04  0.16174139609E+04  0.25500000000E-02 0. -1.
         -2   -1    0    0    0  501 -0.00000000000E+00 -0.00000000000E+00 -0.17208677630E+03  0.17208677632E+03  0.25500000000E-02 0.  1.
    8880022    1    1    2    0    0 -0.63729568364E+02  0.24177957368E+03 -0.21294345861E+02  0.29387739333E+03  0.15294330000E+03 0.  0.
    8880022    1    1    2    0    0  0.63729568364E+02 -0.24177957368E+03  0.14666215305E+04  0.14956233439E+04  0.15294330000E+03 0.  0.
<mgrwt>
<rscale>  0 0.29310488E+03</rscale>
<asrwt>0</asrwt>
<pdfrwt beam="1">  1        2 0.24883292E+00 0.29310488E+03</pdfrwt>
<pdfrwt beam="2">  1       -2 0.26474888E-01 0.29310488E+03</pdfrwt>
<totfact> 0.15225589E+02</totfact>
</mgrwt>
</event>
<event>
 4    1  0.4880711E-008  0.8168820E+03  0.7818608E-02  0.9535897E-01
         -2   -1    0    0    0  501 -0.00000000000E+00  0.00000000000E+00  0.58780402908E+03  0.58780402908E+03  0.25500000000E-02 0.  1.
          2   -1    0    0  501    0  0.00000000000E+00 -0.00000000000E+00 -0.20550976959E+04  0.20550976959E+04  0.25500000000E-02 0. -1.
    8880022    1    1    2    0    0  0.58828628012E+03 -0.54573240011E+03 -0.16177359956E+04  0.18122819881E+04  0.15294330000E+03 0.  0.
    8880022    1    1    2    0    0 -0.58828628012E+03  0.54573240011E+03  0.15044232882E+03  0.83061973684E+03  0.15294330000E+03 0.  0.
<mgrwt>
<rscale>  0 0.81688203E+03</rscale>
<asrwt>0</asrwt>
<pdfrwt beam="1">  1        2 0.31616887E+00 0.81688203E+03</pdfrwt>
<pdfrwt beam="2">  1       -2 0.90431390E-01 0.81688203E+03</pdfrwt>
<totfact> 0.66794571E+00</totfact>
</mgrwt>
</event>
<event>
 4    1  0.6571832E-008  0.8799989E+03  0.7818608E-02  0.9450935E-01
         -2   -1    0    0    0  501 -0.00000000000E+00  0.00000000000E+00  0.11853583461E+04  0.11853583461E+04  0.25500000000E-02 0.  1.
          2   -1    0    0  501    0  0.00000000000E+00 -0.00000000000E+00 -0.20645761075E+04  0.20645761075E+04  0.25500000000E-02 0. -1.
    8880022    1    1    2    0    0  0.18274504712E+03  0.84711901067E+03  0.90388195671E+03  0.12615072791E+04  0.15294330000E+03 0.  0.
    8880022    1    1    2    0    0 -0.18274504712E+03 -0.84711901067E+03 -0.17830997181E+04  0.19884271745E+04  0.15294330000E+03 0.  0.
<mgrwt>
<rscale>  0 0.87999888E+03</rscale>
<asrwt>0</asrwt>
<pdfrwt beam="1">  1        2 0.31762709E+00 0.87999888E+03</pdfrwt>
<pdfrwt beam="2">  1       -2 0.18236282E+00 0.87999888E+03</pdfrwt>
<totfact> 0.10934479E+00</totfact>
</mgrwt>
</event>
<event>
 4    1  0.4880711E-008  0.1129410E+04  0.7818608E-02  0.9176992E-01
          2   -1    0    0  501    0  0.00000000000E+00  0.00000000000E+00  0.12092098418E+04  0.12092098418E+04  0.25500000000E-02 0. -1.
         -2   -1    0    0    0  501 -0.00000000000E+00 -0.00000000000E+00 -0.16352794007E+04  0.16352794007E+04  0.25500000000E-02 0.  1.
    8880022    1    1    2    0    0 -0.11153009280E+04  0.90989024390E+02  0.63427686580E+03  0.12953277416E+04  0.15294330000E+03 0.  0.
    8880022    1    1    2    0    0  0.11153009280E+04 -0.90989024390E+02 -0.10603464247E+04  0.15491615009E+04  0.15294330000E+03 0.  0.
<mgrwt>
<rscale>  0 0.11294099E+04</rscale>
<asrwt>0</asrwt>
<pdfrwt beam="1">  1        2 0.18603228E+00 0.11294099E+04</pdfrwt>
<pdfrwt beam="2">  1       -2 0.25158145E+00 0.11294099E+04</pdfrwt>
<totfact> 0.11526023E+00</totfact>
</mgrwt>
</event>
<event>
 4    1  0.4880711E-008  0.1496340E+04  0.7818608E-02  0.8886891E-01
         -2   -1    0    0    0  501 -0.00000000000E+00  0.00000000000E+00  0.13901461667E+04  0.13901461667E+04  0.25500000000E-02 0.  1.
          2   -1    0    0  501    0  0.00000000000E+00 -0.00000000000E+00 -0.21159977461E+04  0.21159977461E+04  0.25500000000E-02 0. -1.
    8880022    1    1    2    0    0  0.14459960800E+04  0.35318037681E+03 -0.12196464372E+04  0.19304326268E+04  0.15294330000E+03 0.  0.
    8880022    1    1    2    0    0 -0.14459960800E+04 -0.35318037681E+03  0.49379485786E+03  0.15757112859E+04  0.15294330000E+03 0.  0.
<mgrwt>
<rscale>  0 0.14963398E+04</rscale>
<asrwt>0</asrwt>
<pdfrwt beam="1">  1        2 0.32553811E+00 0.14963398E+04</pdfrwt>
<pdfrwt beam="2">  1       -2 0.21386864E+00 0.14963398E+04</pdfrwt>
<totfact> 0.58432050E-01</totfact>
</mgrwt>
</event>
<event>
 4    1  0.4880711E-008  0.6437563E+03  0.7818608E-02  0.9818566E-01
          2   -1    0    0  501    0  0.00000000000E+00  0.00000000000E+00  0.13283806209E+04  0.13283806209E+04  0.25500000000E-02 0. -1.
         -2   -1    0    0    0  501 -0.00000000000E+00 -0.00000000000E+00 -0.53406540291E+03  0.53406540292E+03  0.25500000000E-02 0.  1.
    8880022    1    1    2    0    0 -0.45911896616E+03 -0.42454708972E+03  0.99766859495E+03  0.11873351401E+04  0.15294330000E+03 0.  0.
    8880022    1    1    2    0    0  0.45911896616E+03  0.42454708972E+03 -0.20335337693E+03  0.67511088378E+03  0.15294330000E+03 0.  0.
<mgrwt>
<rscale>  0 0.64375625E+03</rscale>
<asrwt>0</asrwt>
<pdfrwt beam="1">  1        2 0.20436625E+00 0.64375625E+03</pdfrwt>
<pdfrwt beam="2">  1       -2 0.82163909E-01 0.64375625E+03</pdfrwt>
<totfact> 0.21428618E+01</totfact>
</mgrwt>
</event>
<event>
 4    1  0.4880711E-008  0.2484626E+03  0.7818608E-02  0.1114280E+00
         -2   -1    0    0    0  501 -0.00000000000E+00  0.00000000000E+00  0.61729407738E+03  0.61729407739E+03  0.25500000000E-02 0.  1.
          2   -1    0    0  501    0  0.00000000000E+00 -0.00000000000E+00 -0.13620794889E+03  0.13620794891E+03  0.25500000000E-02 0. -1.
    8880022    1    1    2    0    0  0.19457071157E+03  0.22006050557E+02  0.46314256967E+02  0.25274234207E+03  0.15294330000E+03 0.  0.
    8880022    1    1    2    0    0 -0.19457071157E+03 -0.22006050557E+02  0.43477187153E+03  0.50075968423E+03  0.15294330000E+03 0.  0.
<mgrwt>
<rscale>  0 0.24846264E+03</rscale>
<asrwt>0</asrwt>
<pdfrwt beam="1">  1        2 0.20955070E-01 0.24846264E+03</pdfrwt>
<pdfrwt beam="2">  1       -2 0.94968317E-01 0.24846264E+03</pdfrwt>
<totfact> 0.25537097E+02</totfact>
</mgrwt>
</event>
<event>
 4    1  0.4880711E-008  0.5300122E+03  0.7818608E-02  0.1006229E+00
         -2   -1    0    0    0  501 -0.00000000000E+00  0.00000000000E+00  0.11803459659E+03  0.11803459662E+03  0.25500000000E-02 0.  1.
          2   -1    0    0  501    0  0.00000000000E+00 -0.00000000000E+00 -0.26806438094E+04  0.26806438094E+04  0.25500000000E-02 0. -1.
    8880022    1    1    2    0    0  0.14176694149E+03 -0.48726111505E+03 -0.17499962993E+04  0.18284966395E+04  0.15294330000E+03 0.  0.
    8880022    1    1    2    0    0 -0.14176694149E+03  0.48726111505E+03 -0.81261291352E+03  0.97018176657E+03  0.15294330000E+03 0.  1.
<mgrwt>
<rscale>  0 0.53001218E+03</rscale>
<asrwt>0</asrwt>
<pdfrwt beam="1">  1        2 0.41240670E+00 0.53001218E+03</pdfrwt>
<pdfrwt beam="2">  1       -2 0.18159171E-01 0.53001218E+03</pdfrwt>
<totfact> 0.74399008E+01</totfact>
</mgrwt>
</event>
<event>
 4    1  0.4880711E-008  0.2913610E+03  0.7818608E-02  0.1089641E+00
         -2   -1    0    0    0  501 -0.00000000000E+00  0.00000000000E+00  0.34075300590E+03  0.34075300591E+03  0.25500000000E-02 0.  1.
          2   -1    0    0  501    0  0.00000000000E+00 -0.00000000000E+00 -0.77088133140E+03  0.77088133140E+03  0.25500000000E-02 0. -1.
    8880022    1    1    2    0    0  0.24192365469E+03  0.54521018949E+02  0.24220366299E+03  0.37888502687E+03  0.15294330000E+03 0.  0.
    8880022    1    1    2    0    0 -0.24192365469E+03 -0.54521018949E+02 -0.67233198849E+03  0.73274931045E+03  0.15294330000E+03 0.  0.
<mgrwt>
<rscale>  0 0.29136103E+03</rscale>
<asrwt>0</asrwt>
<pdfrwt beam="1">  1        2 0.11859713E+00 0.29136103E+03</pdfrwt>
<pdfrwt beam="2">  1       -2 0.52423540E-01 0.29136103E+03</pdfrwt>
<totfact> 0.13096367E+02</totfact>
</mgrwt>
</event>
<event>
 4    1  0.4880711E-008  0.3025246E+03  0.7818608E-02  0.1083985E+00
         -2   -1    0    0    0  501 -0.00000000000E+00  0.00000000000E+00  0.15040570272E+03  0.15040570274E+03  0.25500000000E-02 0.  1.
          2   -1    0    0  501    0  0.00000000000E+00 -0.00000000000E+00 -0.11341373949E+04  0.11341373949E+04  0.25500000000E-02 0. -1.
    8880022    1    1    2    0    0  0.11206960212E+03 -0.23573268130E+03 -0.54614690753E+02  0.30741488288E+03  0.15294330000E+03 0.  0.
    8880022    1    1    2    0    0 -0.11206960212E+03  0.23573268130E+03 -0.92911700146E+03  0.97712821481E+03  0.15294330000E+03 0.  0.
<mgrwt>
<rscale>  0 0.30252462E+03</rscale>
<asrwt>0</asrwt>
<pdfrwt beam="1">  1        2 0.17448267E+00 0.30252462E+03</pdfrwt>
<pdfrwt beam="2">  1       -2 0.23139340E-01 0.30252462E+03</pdfrwt>
<totfact> 0.35666335E+02</totfact>
</mgrwt>
</event>
<event>
 4    1  0.4880711E-008  0.3452391E+03  0.7818608E-02  0.1064586E+00
          2   -1    0    0  501    0  0.00000000000E+00  0.00000000000E+00  0.13027736590E+04  0.13027736590E+04  0.25500000000E-02 0. -1.
         -2   -1    0    0    0  501 -0.00000000000E+00 -0.00000000000E+00 -0.37831871954E+03  0.37831871955E+03  0.25500000000E-02 0.  1.
    8880022    1    1    2    0    0  0.29475994346E+03  0.94418904036E+02  0.11941151285E+04  0.12430208955E+04  0.15294330000E+03 0.  0.
    8880022    1    1    2    0    0 -0.29475994346E+03 -0.94418904036E+02 -0.26966018899E+03  0.43807148304E+03  0.15294330000E+03 0.  0.
<mgrwt>
<rscale>  0 0.34523906E+03</rscale>
<asrwt>0</asrwt>
<pdfrwt beam="1">  1        2 0.20042671E+00 0.34523906E+03</pdfrwt>
<pdfrwt beam="2">  1       -2 0.58202881E-01 0.34523906E+03</pdfrwt>
<totfact> 0.49126678E+01</totfact>
</mgrwt>
</event>
<event>
 4    1  0.4880711E-008  0.5129545E+03  0.7818608E-02  0.1010452E+00
         -2   -1    0    0    0  501 -0.00000000000E+00  0.00000000000E+00  0.27044069840E+03  0.27044069841E+03  0.25500000000E-02 0.  1.
          2   -1    0    0  501    0  0.00000000000E+00 -0.00000000000E+00 -0.17696941986E+04  0.17696941986E+04  0.25500000000E-02 0. -1.
    8880022    1    1    2    0    0  0.38636427763E+03  0.30075459369E+03 -0.14340774896E+04  0.15230563285E+04  0.15294330000E+03 0.  0.
    8880022    1    1    2    0    0 -0.38636427763E+03 -0.30075459369E+03 -0.65176010631E+02  0.51707856853E+03  0.15294330000E+03 0.  0.
<mgrwt>
<rscale>  0 0.51295451E+03</rscale>
<asrwt>0</asrwt>
<pdfrwt beam="1">  1        2 0.27226064E+00 0.51295451E+03</pdfrwt>
<pdfrwt beam="2">  1       -2 0.41606263E-01 0.51295451E+03</pdfrwt>
<totfact> 0.52018542E+01</totfact>
</mgrwt>
</event>
<event>
 4    1  0.4880711E-008  0.1246125E+04  0.7818608E-02  0.9073415E-01
         -2   -1    0    0    0  501 -0.00000000000E+00  0.00000000000E+00  0.73853194199E+03  0.73853194199E+03  0.25500000000E-02 0.  1.
          2   -1    0    0  501    0  0.00000000000E+00 -0.00000000000E+00 -0.29908362219E+04  0.29908362219E+04  0.25500000000E-02 0. -1.
    8880022    1    1    2    0    0 -0.44416561371E+03 -0.11541889167E+04 -0.21423461952E+04  0.24784015052E+04  0.15294330000E+03 0.  0.
    8880022    1    1    2    0    0  0.44416561371E+03  0.11541889167E+04 -0.10995808469E+03  0.12509666587E+04  0.15294330000E+03 0.  0.
<mgrwt>
<rscale>  0 0.12461247E+04</rscale>
<asrwt>0</asrwt>
<pdfrwt beam="1">  1        2 0.46012864E+00 0.12461247E+04</pdfrwt>
<pdfrwt beam="2">  1       -2 0.11362030E+00 0.12461247E+04</pdfrwt>
<totfact> 0.10527068E+00</totfact>
</mgrwt>
</event>
<event>
 4    1  0.4880711E-008  0.6468924E+03  0.7818608E-02  0.9812628E-01
          2   -1    0    0  501    0  0.00000000000E+00  0.00000000000E+00  0.28371080998E+04  0.28371080998E+04  0.25500000000E-02 0. -1.
         -2   -1    0    0    0  501 -0.00000000000E+00 -0.00000000000E+00 -0.48729842091E+03  0.48729842092E+03  0.25500000000E-02 0.  1.
    8880022    1    1    2    0    0 -0.30791397061E+03 -0.54796629449E+03  0.25629325727E+04  0.26433110105E+04  0.15294330000E+03 0.  0.
    8880022    1    1    2    0    0  0.30791397061E+03  0.54796629449E+03 -0.21312289376E+03  0.68109551023E+03  0.15294330000E+03 0.  0.
<mgrwt>
<rscale>  0 0.64689236E+03</rscale>
<asrwt>0</asrwt>
<pdfrwt beam="1">  1        2 0.43647817E+00 0.64689236E+03</pdfrwt>
<pdfrwt beam="2">  1       -2 0.74968987E-01 0.64689236E+03</pdfrwt>
<totfact> 0.38049631E+00</totfact>
</mgrwt>
</event>
<event>
 4    1  0.4880711E-008  0.5661330E+03  0.7818608E-02  0.9978272E-01
          2   -1    0    0  501    0  0.00000000000E+00  0.00000000000E+00  0.34897002281E+04  0.34897002281E+04  0.25500000000E-02 0. -1.
         -2   -1    0    0    0  501 -0.00000000000E+00 -0.00000000000E+00 -0.99951166085E+02  0.99951166118E+02  0.25500000000E-02 0.  1.
    8880022    1    1    2    0    0  0.39056623621E+03  0.38022754947E+03  0.22060542686E+04  0.22775385975E+04  0.15294330000E+03 0.  0.
    8880022    1    1    2    0    0 -0.39056623621E+03 -0.38022754947E+03  0.11836947934E+04  0.13121127967E+04  0.15294330000E+03 0.  0.
<mgrwt>
<rscale>  0 0.56613305E+03</rscale>
<asrwt>0</asrwt>
<pdfrwt beam="1">  1        2 0.53687698E+00 0.56613305E+03</pdfrwt>
<pdfrwt beam="2">  1       -2 0.15377102E-01 0.56613305E+03</pdfrwt>
<totfact> 0.30937628E+01</totfact>
</mgrwt>
</event>
<event>
 4    1  0.4880711E-008  0.8505150E+03  0.7818608E-02  0.9489646E-01
         -2   -1    0    0    0  501 -0.00000000000E+00  0.00000000000E+00  0.24282249201E+03  0.24282249203E+03  0.25500000000E-02 0.  1.
          2   -1    0    0  501    0  0.00000000000E+00 -0.00000000000E+00 -0.30203157767E+04  0.30203157767E+04  0.25500000000E-02 0. -1.
    8880022    1    1    2    0    0  0.67806775756E+03  0.49011035624E+03 -0.15795012299E+04  0.17939341776E+04  0.15294330000E+03 0.  0.
    8880022    1    1    2    0    0 -0.67806775756E+03 -0.49011035624E+03 -0.11979920548E+04  0.14692040911E+04  0.15294330000E+03 0.  0.
<mgrwt>
<rscale>  0 0.85051496E+03</rscale>
<asrwt>0</asrwt>
<pdfrwt beam="1">  1        2 0.46466394E+00 0.85051496E+03</pdfrwt>
<pdfrwt beam="2">  1       -2 0.37357309E-01 0.85051496E+03</pdfrwt>
<totfact> 0.11940728E+01</totfact>
</mgrwt>
</event>
<event>
 4    1  0.4880711E-008  0.3775921E+03  0.7818608E-02  0.1051827E+00
         -2   -1    0    0    0  501 -0.00000000000E+00  0.00000000000E+00  0.80972943948E+02  0.80972943988E+02  0.25500000000E-02 0.  1.
          2   -1    0    0  501    0  0.00000000000E+00 -0.00000000000E+00 -0.18048295691E+04  0.18048295691E+04  0.25500000000E-02 0. -1.
    8880022    1    1    2    0    0  0.12937432083E+03  0.32007259000E+03 -0.71462881616E+03  0.80825130724E+03  0.15294330000E+03 0. -1.
    8880022    1    1    2    0    0 -0.12937432083E+03 -0.32007259000E+03 -0.10092278090E+04  0.10775512058E+04  0.15294330000E+03 0.  0.
<mgrwt>
<rscale>  0 0.37759215E+03</rscale>
<asrwt>0</asrwt>
<pdfrwt beam="1">  1        2 0.27766606E+00 0.37759215E+03</pdfrwt>
<pdfrwt beam="2">  1       -2 0.12457377E-01 0.37759215E+03</pdfrwt>
<totfact> 0.43223778E+02</totfact>
</mgrwt>
</event>
<event>
 4    1  0.4880711E-008  0.6020310E+03  0.7818608E-02  0.9901201E-01
         -2   -1    0    0    0  501 -0.00000000000E+00  0.00000000000E+00  0.43493680147E+03  0.43493680147E+03  0.25500000000E-02 0.  1.
          2   -1    0    0  501    0  0.00000000000E+00 -0.00000000000E+00 -0.18619958794E+04  0.18619958794E+04  0.25500000000E-02 0. -1.
    8880022    1    1    2    0    0  0.47778719073E+03  0.33281989030E+03  0.14009775044E+03  0.61811706957E+03  0.15294330000E+03 0.  0.
    8880022    1    1    2    0    0 -0.47778719073E+03 -0.33281989030E+03 -0.15671568284E+04  0.16788156113E+04  0.15294330000E+03 0.  0.
<mgrwt>
<rscale>  0 0.60203101E+03</rscale>
<asrwt>0</asrwt>
<pdfrwt beam="1">  1        2 0.28646090E+00 0.60203101E+03</pdfrwt>
<pdfrwt beam="2">  1       -2 0.66913355E-01 0.60203101E+03</pdfrwt>
<totfact> 0.17247317E+01</totfact>
</mgrwt>
</event>
<event>
 4    1  0.4880711E-008  0.9820442E+03  0.7818608E-02  0.9328461E-01
         -2   -1    0    0    0  501 -0.00000000000E+00  0.00000000000E+00  0.75273115379E+03  0.75273115380E+03  0.25500000000E-02 0.  1.
          2   -1    0    0  501    0  0.00000000000E+00 -0.00000000000E+00 -0.28047653179E+04  0.28047653179E+04  0.25500000000E-02 0. -1.
    8880022    1    1    2    0    0  0.38658922383E+03 -0.88970100431E+03 -0.23369925349E+04  0.25349447462E+04  0.15294330000E+03 0.  0.
    8880022    1    1    2    0    0 -0.38658922383E+03  0.88970100431E+03  0.28495837087E+03  0.10225517254E+04  0.15294330000E+03 0.  0.
<mgrwt>
<rscale>  0 0.98204417E+03</rscale>
<asrwt>0</asrwt>
<pdfrwt beam="1">  1        2 0.43150235E+00 0.98204417E+03</pdfrwt>
<pdfrwt beam="2">  1       -2 0.11580479E+00 0.98204417E+03</pdfrwt>
<totfact> 0.13537404E+00</totfact>
</mgrwt>
</event>
<event>
 4    1  0.4880711E-008  0.5189646E+03  0.7818608E-02  0.1008944E+00
         -2   -1    0    0    0  501 -0.00000000000E+00  0.00000000000E+00  0.28763603058E+03  0.28763603059E+03  0.25500000000E-02 0.  1.
          2   -1    0    0  501    0  0.00000000000E+00 -0.00000000000E+00 -0.13442246289E+04  0.13442246289E+04  0.25500000000E-02 0. -1.
    8880022    1    1    2    0    0 -0.11280960128E+02 -0.49578762308E+03 -0.78838096386E+02  0.52491878012E+03  0.15294330000E+03 0.  0.
    8880022    1    1    2    0    0  0.11280960128E+02  0.49578762308E+03 -0.97775050193E+03  0.11069418794E+04  0.15294330000E+03 0.  0.
<mgrwt>
<rscale>  0 0.51896462E+03</rscale>
<asrwt>0</asrwt>
<pdfrwt beam="1">  1        2 0.20680379E+00 0.51896462E+03</pdfrwt>
<pdfrwt beam="2">  1       -2 0.44251698E-01 0.51896462E+03</pdfrwt>
<totfact> 0.78754887E+01</totfact>
</mgrwt>
</event>
<event>
 4    1  0.4880711E-008  0.4958549E+03  0.7818608E-02  0.1014867E+00
          2   -1    0    0  501    0  0.00000000000E+00  0.00000000000E+00  0.10551105152E+04  0.10551105152E+04  0.25500000000E-02 0. -1.
         -2   -1    0    0    0  501 -0.00000000000E+00 -0.00000000000E+00 -0.57078429546E+03  0.57078429546E+03  0.25500000000E-02 0.  1.
    8880022    1    1    2    0    0 -0.33227119795E+02 -0.47050648986E+03 -0.38319256668E+03  0.62666465885E+03  0.15294330000E+03 0.  0.
    8880022    1    1    2    0    0  0.33227119795E+02  0.47050648986E+03  0.86751878641E+03  0.99923015181E+03  0.15294330000E+03 0.  0.
<mgrwt>
<rscale>  0 0.49585487E+03</rscale>
<asrwt>0</asrwt>
<pdfrwt beam="1">  1        2 0.16232470E+00 0.49585487E+03</pdfrwt>
<pdfrwt beam="2">  1       -2 0.87812968E-01 0.49585487E+03</pdfrwt>
<totfact> 0.27271652E+01</totfact>
</mgrwt>
</event>
<event>
 4    1  0.4880711E-008  0.1652393E+03  0.7818608E-02  0.1182905E+00
         -2   -1    0    0    0  501 -0.00000000000E+00  0.00000000000E+00  0.40616175372E+02  0.40616175452E+02  0.25500000000E-02 0.  1.
          2   -1    0    0  501    0  0.00000000000E+00 -0.00000000000E+00 -0.17706447614E+04  0.17706447615E+04  0.25500000000E-02 0. -1.
    8880022    1    1    2    0    0 -0.51866476552E+02  0.34960598741E+02 -0.15172535885E+03  0.22433147881E+03  0.15294330000E+03 0.  0.
    8880022    1    1    2    0    0  0.51866476552E+02 -0.34960598741E+02 -0.15783032272E+04  0.15869294581E+04  0.15294330000E+03 0. -1.
<mgrwt>
<rscale>  0 0.16523930E+03</rscale>
<asrwt>0</asrwt>
<pdfrwt beam="1">  1        2 0.27240683E+00 0.16523930E+03</pdfrwt>
<pdfrwt beam="2">  1       -2 0.62486437E-02 0.16523930E+03</pdfrwt>
<totfact> 0.13761379E+03</totfact>
</mgrwt>
</event>
<event>
 4    1  0.4880711E-008  0.8553070E+03  0.7818608E-02  0.9483242E-01
         -2   -1    0    0    0  501 -0.00000000000E+00  0.00000000000E+00  0.58315509510E+03  0.58315509510E+03  0.25500000000E-02 0.  1.
          2   -1    0    0  501    0  0.00000000000E+00 -0.00000000000E+00 -0.14934516692E+04  0.14934516692E+04  0.25500000000E-02 0. -1.
    8880022    1    1    2    0    0 -0.83666956728E+03 -0.90235967823E+02 -0.87049582342E+03  0.12203741747E+04  0.15294330000E+03 0.  0.
    8880022    1    1    2    0    0  0.83666956728E+03  0.90235967823E+02 -0.39800750683E+02  0.85623258959E+03  0.15294330000E+03 0.  0.
<mgrwt>
<rscale>  0 0.85530705E+03</rscale>
<asrwt>0</asrwt>
<pdfrwt beam="1">  1        2 0.22976179E+00 0.85530705E+03</pdfrwt>
<pdfrwt beam="2">  1       -2 0.89716169E-01 0.85530705E+03</pdfrwt>
<totfact> 0.13783120E+01</totfact>
</mgrwt>
</event>
<event>
 4    1  0.4880711E-008  0.6617443E+03  0.7818608E-02  0.9784988E-01
         -2   -1    0    0    0  501 -0.00000000000E+00  0.00000000000E+00  0.30533546942E+03  0.30533546943E+03  0.25500000000E-02 0.  1.
          2   -1    0    0  501    0  0.00000000000E+00 -0.00000000000E+00 -0.28132984408E+04  0.28132984408E+04  0.25500000000E-02 0. -1.
    8880022    1    1    2    0    0  0.63029706462E+03 -0.13129909059E+03 -0.23457424305E+04  0.24372962570E+04  0.15294330000E+03 0. -1.
    8880022    1    1    2    0    0 -0.63029706462E+03  0.13129909059E+03 -0.16222054086E+03  0.68133765326E+03  0.15294330000E+03 0.  0.
<mgrwt>
<rscale>  0 0.66174428E+03</rscale>
<asrwt>0</asrwt>
<pdfrwt beam="1">  1        2 0.43281513E+00 0.66174428E+03</pdfrwt>
<pdfrwt beam="2">  1       -2 0.46974690E-01 0.66174428E+03</pdfrwt>
<totfact> 0.10482001E+01</totfact>
</mgrwt>
</event>
<event>
 4    1  0.4880711E-008  0.3459788E+03  0.7818608E-02  0.1064278E+00
          2   -1    0    0  501    0  0.00000000000E+00  0.00000000000E+00  0.57943258358E+03  0.57943258359E+03  0.25500000000E-02 0. -1.
         -2   -1    0    0    0  501 -0.00000000000E+00 -0.00000000000E+00 -0.23207379468E+03  0.23207379470E+03  0.25500000000E-02 0.  1.
    8880022    1    1    2    0    0 -0.30922403892E+03 -0.26271249330E+02  0.39206591912E+02  0.34819318582E+03  0.15294330000E+03 0.  0.
    8880022    1    1    2    0    0  0.30922403892E+03  0.26271249330E+02  0.30815219699E+03  0.46331319246E+03  0.15294330000E+03 0.  0.
<mgrwt>
<rscale>  0 0.34597881E+03</rscale>
<asrwt>0</asrwt>
<pdfrwt beam="1">  1        2 0.89143474E-01 0.34597881E+03</pdfrwt>
<pdfrwt beam="2">  1       -2 0.35703661E-01 0.34597881E+03</pdfrwt>
<totfact> 0.38988072E+02</totfact>
</mgrwt>
</event>
<event>
 4    1  0.4880711E-008  0.2697666E+03  0.7818608E-02  0.1101413E+00
          2   -1    0    0  501    0  0.00000000000E+00  0.00000000000E+00  0.10275166184E+04  0.10275166184E+04  0.25500000000E-02 0. -1.
         -2   -1    0    0    0  501 -0.00000000000E+00 -0.00000000000E+00 -0.49566877608E+03  0.49566877608E+03  0.25500000000E-02 0.  1.
    8880022    1    1    2    0    0 -0.21684094194E+03 -0.48604181816E+02 -0.43916119314E+03  0.51539942488E+03  0.15294330000E+03 0.  0.
    8880022    1    1    2    0    0  0.21684094194E+03  0.48604181816E+02  0.97100903545E+03  0.10077859696E+04  0.15294330000E+03 0. -1.
<mgrwt>
<rscale>  0 0.26976659E+03</rscale>
<asrwt>0</asrwt>
<pdfrwt beam="1">  1        2 0.15807948E+00 0.26976659E+03</pdfrwt>
<pdfrwt beam="2">  1       -2 0.76256735E-01 0.26976659E+03</pdfrwt>
<totfact> 0.40629686E+01</totfact>
</mgrwt>
</event>
<event>
 4    1  0.7434810E-008  0.6766241E+03  0.7818608E-02  0.9758065E-01
         -2   -1    0    0    0  501 -0.00000000000E+00  0.00000000000E+00  0.12837960058E+04  0.12837960058E+04  0.25500000000E-02 0.  1.
          2   -1    0    0  501    0  0.00000000000E+00 -0.00000000000E+00 -0.10986982655E+04  0.10986982655E+04  0.25500000000E-02 0. -1.
    8880022    1    1    2    0    0  0.22263178545E+03  0.62037374168E+03  0.10715634152E+04  0.12673074990E+04  0.15294330000E+03 0.  0.
    8880022    1    1    2    0    0 -0.22263178545E+03 -0.62037374168E+03 -0.88646567494E+03  0.11151867723E+04  0.15294330000E+03 0.  0.
<mgrwt>
<rscale>  0 0.67662408E+03</rscale>
<asrwt>0</asrwt>
<pdfrwt beam="1">  1        2 0.16903050E+00 0.67662408E+03</pdfrwt>
<pdfrwt beam="2">  1       -2 0.19750708E+00 0.67662408E+03</pdfrwt>
<totfact> 0.31275828E+00</totfact>
</mgrwt>
</event>
<event>
 4    1  0.4880711E-008  0.3463902E+03  0.7818608E-02  0.1064106E+00
         -2   -1    0    0    0  501 -0.00000000000E+00  0.00000000000E+00  0.47293953958E+03  0.47293953958E+03  0.25500000000E-02 0.  1.
          2   -1    0    0  501    0  0.00000000000E+00 -0.00000000000E+00 -0.27116364019E+03  0.27116364020E+03  0.25500000000E-02 0. -1.
    8880022    1    1    2    0    0 -0.12863826927E+03  0.28292529469E+03  0.64780521080E+01  0.34645078275E+03  0.15294330000E+03 0.  0.
    8880022    1    1    2    0    0  0.12863826927E+03 -0.28292529469E+03  0.19529784728E+03  0.39765239703E+03  0.15294330000E+03 0.  0.
<mgrwt>
<rscale>  0 0.34639021E+03</rscale>
<asrwt>0</asrwt>
<pdfrwt beam="1">  1        2 0.41717484E-01 0.34639021E+03</pdfrwt>
<pdfrwt beam="2">  1       -2 0.72759928E-01 0.34639021E+03</pdfrwt>
<totfact> 0.21477586E+02</totfact>
</mgrwt>
</event>
<event>
 4    1  0.4880711E-008  0.2585513E+03  0.7818608E-02  0.1108017E+00
          2   -1    0    0  501    0  0.00000000000E+00  0.00000000000E+00  0.15969700017E+04  0.15969700017E+04  0.25500000000E-02 0. -1.
         -2   -1    0    0    0  501 -0.00000000000E+00 -0.00000000000E+00 -0.97663600932E+02  0.97663600965E+02  0.25500000000E-02 0.  1.
    8880022    1    1    2    0    0 -0.20196935804E+03  0.51628435301E+02  0.10916442281E+03  0.28065217110E+03  0.15294330000E+03 0.  1.
    8880022    1    1    2    0    0  0.20196935804E+03 -0.51628435301E+02  0.13901419780E+04  0.14139814316E+04  0.15294330000E+03 0.  0.
<mgrwt>
<rscale>  0 0.25855129E+03</rscale>
<asrwt>0</asrwt>
<pdfrwt beam="1">  1        2 0.24568768E+00 0.25855129E+03</pdfrwt>
<pdfrwt beam="2">  1       -2 0.15025170E-01 0.25855129E+03</pdfrwt>
<totfact> 0.41620435E+02</totfact>
</mgrwt>
</event>
<event>
 4    1  0.4880711E-008  0.8833483E+03  0.7818608E-02  0.9446640E-01
         -2   -1    0    0    0  501 -0.00000000000E+00  0.00000000000E+00  0.76409278479E+03  0.76409278479E+03  0.25500000000E-02 0.  1.
          2   -1    0    0  501    0  0.00000000000E+00 -0.00000000000E+00 -0.13815910144E+04  0.13815910144E+04  0.25500000000E-02 0. -1.
    8880022    1    1    2    0    0 -0.83161124494E+03  0.25560766235E+03  0.23917824305E+03  0.91515595651E+03  0.15294330000E+03 0.  0.
    8880022    1    1    2    0    0  0.83161124494E+03 -0.25560766235E+03 -0.85667647266E+03  0.12305278427E+04  0.15294330000E+03 0.  0.
<mgrwt>
<rscale>  0 0.88334829E+03</rscale>
<asrwt>0</asrwt>
<pdfrwt beam="1">  1        2 0.21255246E+00 0.88334829E+03</pdfrwt>
<pdfrwt beam="2">  1       -2 0.11755274E+00 0.88334829E+03</pdfrwt>
<totfact> 0.83343576E+00</totfact>
</mgrwt>
</event>
<event>
 4    1  0.4880711E-008  0.4479377E+03  0.7818608E-02  0.1028339E+00
         -2   -1    0    0    0  501 -0.00000000000E+00  0.00000000000E+00  0.30751152849E+03  0.30751152850E+03  0.25500000000E-02 0.  1.
          2   -1    0    0  501    0  0.00000000000E+00 -0.00000000000E+00 -0.81659293338E+03  0.81659293338E+03  0.25500000000E-02 0. -1.
    8880022    1    1    2    0    0 -0.73093228506E+02  0.41462503215E+03 -0.25804301501E+01  0.44794514059E+03  0.15294330000E+03 0.  0.
    8880022    1    1    2    0    0  0.73093228506E+02 -0.41462503215E+03 -0.50650097474E+03  0.67615932129E+03  0.15294330000E+03 0.  0.
<mgrwt>
<rscale>  0 0.44793771E+03</rscale>
<asrwt>0</asrwt>
<pdfrwt beam="1">  1        2 0.12562968E+00 0.44793771E+03</pdfrwt>
<pdfrwt beam="2">  1       -2 0.47309466E-01 0.44793771E+03</pdfrwt>
<totfact> 0.14675944E+02</totfact>
</mgrwt>
</event>
<event>
 4    1  0.4880711E-008  0.9500103E+03  0.7818608E-02  0.9365139E-01
          2   -1    0    0  501    0  0.00000000000E+00  0.00000000000E+00  0.80734607274E+03  0.80734607275E+03  0.25500000000E-02 0. -1.
         -2   -1    0    0    0  501 -0.00000000000E+00 -0.00000000000E+00 -0.12524671727E+04  0.12524671727E+04  0.25500000000E-02 0.  1.
    8880022    1    1    2    0    0  0.34741005100E+03  0.87088125449E+03 -0.56016600791E+03  0.11028624177E+04  0.15294330000E+03 0.  0.
    8880022    1    1    2    0    0 -0.34741005100E+03 -0.87088125449E+03  0.11504490791E+03  0.95695082779E+03  0.15294330000E+03 0.  0.
<mgrwt>
<rscale>  0 0.95001029E+03</rscale>
<asrwt>0</asrwt>
<pdfrwt beam="1">  1        2 0.12420709E+00 0.95001029E+03</pdfrwt>
<pdfrwt beam="2">  1       -2 0.19268726E+00 0.95001029E+03</pdfrwt>
<totfact> 0.50472769E+00</totfact>
</mgrwt>
</event>
<event>
 4    1  0.4880711E-008  0.7028944E+03  0.7818608E-02  0.9712295E-01
          2   -1    0    0  501    0  0.00000000000E+00  0.00000000000E+00  0.26631737971E+04  0.26631737971E+04  0.25500000000E-02 0. -1.
         -2   -1    0    0    0  501 -0.00000000000E+00 -0.00000000000E+00 -0.71886033957E+03  0.71886033957E+03  0.25500000000E-02 0.  1.
    8880022    1    1    2    0    0  0.40371641658E+03 -0.55469084461E+03  0.24287211575E+04  0.25283882201E+04  0.15294330000E+03 0.  0.
    8880022    1    1    2    0    0 -0.40371641658E+03  0.55469084461E+03 -0.48440769990E+03  0.85364591655E+03  0.15294330000E+03 0.  0.
<mgrwt>
<rscale>  0 0.70289440E+03</rscale>
<asrwt>0</asrwt>
<pdfrwt beam="1">  1        2 0.40971904E+00 0.70289440E+03</pdfrwt>
<pdfrwt beam="2">  1       -2 0.11059390E+00 0.70289440E+03</pdfrwt>
<totfact> 0.19314743E+00</totfact>
</mgrwt>
</event>
<event>
 4    1  0.4880711E-008  0.1842301E+03  0.7818608E-02  0.1163771E+00
          2   -1    0    0  501    0  0.00000000000E+00  0.00000000000E+00  0.10252229133E+03  0.10252229136E+03  0.25500000000E-02 0. -1.
         -2   -1    0    0    0  501 -0.00000000000E+00 -0.00000000000E+00 -0.56030733955E+03  0.56030733956E+03  0.25500000000E-02 0.  1.
    8880022    1    1    2    0    0 -0.90300072189E+02 -0.48938521803E+02 -0.44088167694E+03  0.47782568791E+03  0.15294330000E+03 0.  0.
    8880022    1    1    2    0    0  0.90300072189E+02  0.48938521803E+02 -0.16903371286E+02  0.18500394301E+03  0.15294330000E+03 0.  0.
<mgrwt>
<rscale>  0 0.18423011E+03</rscale>
<asrwt>0</asrwt>
<pdfrwt beam="1">  1        2 0.15772660E-01 0.18423011E+03</pdfrwt>
<pdfrwt beam="2">  1       -2 0.86201128E-01 0.18423011E+03</pdfrwt>
<totfact> 0.44124180E+02</totfact>
</mgrwt>
</event>
<event>
 4    1  0.4880711E-008  0.4239715E+03  0.7818608E-02  0.1035781E+00
         -2   -1    0    0    0  501 -0.00000000000E+00  0.00000000000E+00  0.10638343892E+04  0.10638343892E+04  0.25500000000E-02 0.  1.
          2   -1    0    0  501    0  0.00000000000E+00 -0.00000000000E+00 -0.17098008628E+04  0.17098008628E+04  0.25500000000E-02 0. -1.
    8880022    1    1    2    0    0 -0.31986425368E+02  0.39412822020E+03 -0.16394946708E+04  0.16934268847E+04  0.15294330000E+03 0. -1.
    8880022    1    1    2    0    0  0.31986425368E+02 -0.39412822020E+03  0.99352819714E+03  0.10802083674E+04  0.15294330000E+03 0.  0.
<mgrwt>
<rscale>  0 0.42397151E+03</rscale>
<asrwt>0</asrwt>
<pdfrwt beam="1">  1        2 0.26304629E+00 0.42397151E+03</pdfrwt>
<pdfrwt beam="2">  1       -2 0.16366683E+00 0.42397151E+03</pdfrwt>
<totfact> 0.25529391E+00</totfact>
</mgrwt>
</event>
<event>
 4    1  0.4880711E-008  0.1468509E+04  0.7818608E-02  0.8905668E-01
          2   -1    0    0  501    0  0.00000000000E+00  0.00000000000E+00  0.11485560788E+04  0.11485560788E+04  0.25500000000E-02 0. -1.
         -2   -1    0    0    0  501 -0.00000000000E+00 -0.00000000000E+00 -0.22800992841E+04  0.22800992841E+04  0.25500000000E-02 0.  1.
    8880022    1    1    2    0    0  0.14455702361E+04 -0.20845803537E+03  0.15451249577E+03  0.14766156658E+04  0.15294330000E+03 0.  0.
    8880022    1    1    2    0    0 -0.14455702361E+04  0.20845803537E+03 -0.12860557010E+04  0.19520396972E+04  0.15294330000E+03 0.  0.
<mgrwt>
<rscale>  0 0.14685094E+04</rscale>
<asrwt>0</asrwt>
<pdfrwt beam="1">  1        2 0.17670094E+00 0.14685094E+04</pdfrwt>
<pdfrwt beam="2">  1       -2 0.35078450E+00 0.14685094E+04</pdfrwt>
<totfact> 0.29725428E-01</totfact>
</mgrwt>
</event>
<event>
 4    1  0.4880711E-008  0.3092417E+03  0.7818608E-02  0.1080710E+00
          2   -1    0    0  501    0  0.00000000000E+00  0.00000000000E+00  0.65640151284E+03  0.65640151284E+03  0.25500000000E-02 0. -1.
         -2   -1    0    0    0  501 -0.00000000000E+00 -0.00000000000E+00 -0.19040062080E+03  0.19040062082E+03  0.25500000000E-02 0.  1.
    8880022    1    1    2    0    0 -0.24542763851E+03  0.10956291439E+03  0.43817735624E+03  0.53631129625E+03  0.15294330000E+03 0.  0.
    8880022    1    1    2    0    0  0.24542763851E+03 -0.10956291439E+03  0.27823535798E+02  0.31049083741E+03  0.15294330000E+03 0.  0.
<mgrwt>
<rscale>  0 0.30924167E+03</rscale>
<asrwt>0</asrwt>
<pdfrwt beam="1">  1        2 0.10098485E+00 0.30924167E+03</pdfrwt>
<pdfrwt beam="2">  1       -2 0.29292403E-01 0.30924167E+03</pdfrwt>
<totfact> 0.48625376E+02</totfact>
</mgrwt>
</event>
<event>
 4    1  0.4880711E-008  0.7137683E+03  0.7818608E-02  0.9693972E-01
         -2   -1    0    0    0  501 -0.00000000000E+00  0.00000000000E+00  0.17142695681E+03  0.17142695683E+03  0.25500000000E-02 0.  1.
          2   -1    0    0  501    0  0.00000000000E+00 -0.00000000000E+00 -0.30025522349E+04  0.30025522349E+04  0.25500000000E-02 0. -1.
    8880022    1    1    2    0    0  0.20602390762E+03  0.66605377833E+03 -0.12552368443E+04  0.14439822279E+04  0.15294330000E+03 0.  0.
    8880022    1    1    2    0    0 -0.20602390762E+03 -0.66605377833E+03 -0.15758884339E+04  0.17299969639E+04  0.15294330000E+03 0.  0.
<mgrwt>
<rscale>  0 0.71376827E+03</rscale>
<asrwt>0</asrwt>
<pdfrwt beam="1">  1        2 0.46193108E+00 0.71376827E+03</pdfrwt>
<pdfrwt beam="2">  1       -2 0.26373380E-01 0.71376827E+03</pdfrwt>
<totfact> 0.24020912E+01</totfact>
</mgrwt>
</event>
<event>
 4    1  0.4880711E-008  0.4187414E+03  0.7818608E-02  0.1037477E+00
          2   -1    0    0  501    0  0.00000000000E+00  0.00000000000E+00  0.22594880439E+04  0.22594880439E+04  0.25500000000E-02 0. -1.
         -2   -1    0    0    0  501 -0.00000000000E+00 -0.00000000000E+00 -0.19654686076E+03  0.19654686078E+03  0.25500000000E-02 0.  1.
    8880022    1    1    2    0    0  0.13562611601E+03 -0.36545625210E+03  0.76166948810E+02  0.42561223273E+03  0.15294330000E+03 0.  0.
    8880022    1    1    2    0    0 -0.13562611601E+03  0.36545625210E+03  0.19867742343E+04  0.20304226719E+04  0.15294330000E+03 0.  0.
<mgrwt>
<rscale>  0 0.41874141E+03</rscale>
<asrwt>0</asrwt>
<pdfrwt beam="1">  1        2 0.34761355E+00 0.41874141E+03</pdfrwt>
<pdfrwt beam="2">  1       -2 0.30237979E-01 0.41874141E+03</pdfrwt>
<totfact> 0.52854363E+01</totfact>
</mgrwt>
</event>
<event>
 4    1  0.4880711E-008  0.7460081E+03  0.7818608E-02  0.9641634E-01
         -2   -1    0    0    0  501 -0.00000000000E+00  0.00000000000E+00  0.80224909998E+03  0.80224909999E+03  0.25500000000E-02 0.  1.
          2   -1    0    0  501    0  0.00000000000E+00 -0.00000000000E+00 -0.13893098291E+04  0.13893098291E+04  0.25500000000E-02 0. -1.
    8880022    1    1    2    0    0 -0.57412372096E+03  0.45113006772E+03 -0.10688903933E+04  0.13034779288E+04  0.15294330000E+03 0.  0.
    8880022    1    1    2    0    0  0.57412372096E+03 -0.45113006772E+03  0.48182966411E+03  0.88808100036E+03  0.15294330000E+03 0.  0.
<mgrwt>
<rscale>  0 0.74600807E+03</rscale>
<asrwt>0</asrwt>
<pdfrwt beam="1">  1        2 0.21373997E+00 0.74600807E+03</pdfrwt>
<pdfrwt beam="2">  1       -2 0.12342294E+00 0.74600807E+03</pdfrwt>
<totfact> 0.74367999E+00</totfact>
</mgrwt>
</event>
<event>
 4    1  0.5577001E-008  0.7047829E+03  0.7818608E-02  0.9709088E-01
         -2   -1    0    0    0  501 -0.00000000000E+00  0.00000000000E+00  0.97205190571E+03  0.97205190572E+03  0.25500000000E-02 0.  1.
          2   -1    0    0  501    0  0.00000000000E+00 -0.00000000000E+00 -0.15987955650E+04  0.15987955650E+04  0.25500000000E-02 0. -1.
    8880022    1    1    2    0    0  0.66952135437E+03 -0.15833025682E+03  0.74691507685E+03  0.10269377290E+04  0.15294330000E+03 0.  0.
    8880022    1    1    2    0    0 -0.66952135437E+03  0.15833025682E+03 -0.13736587361E+04  0.15439097417E+04  0.15294330000E+03 0.  0.
<mgrwt>
<rscale>  0 0.70478292E+03</rscale>
<asrwt>0</asrwt>
<pdfrwt beam="1">  1        2 0.24596855E+00 0.70478292E+03</pdfrwt>
<pdfrwt beam="2">  1       -2 0.14954645E+00 0.70478292E+03</pdfrwt>
<totfact> 0.34962158E+00</totfact>
</mgrwt>
</event>
<event>
 4    1  0.4880711E-008  0.1122721E+04  0.7818608E-02  0.9183325E-01
          2   -1    0    0  501    0  0.00000000000E+00  0.00000000000E+00  0.11880457089E+04  0.11880457089E+04  0.25500000000E-02 0. -1.
         -2   -1    0    0    0  501 -0.00000000000E+00 -0.00000000000E+00 -0.11477889415E+04  0.11477889415E+04  0.25500000000E-02 0.  1.
    8880022    1    1    2    0    0  0.18853798101E+03 -0.10961588509E+04 -0.30104745022E+03  0.11623820443E+04  0.15294330000E+03 0.  0.
    8880022    1    1    2    0    0 -0.18853798101E+03  0.10961588509E+04  0.34130421764E+03  0.11734526061E+04  0.15294330000E+03 0.  0.
<mgrwt>
<rscale>  0 0.11227210E+04</rscale>
<asrwt>0</asrwt>
<pdfrwt beam="1">  1        2 0.18277626E+00 0.11227210E+04</pdfrwt>
<pdfrwt beam="2">  1       -2 0.17658292E+00 0.11227210E+04</pdfrwt>
<totfact> 0.36095850E+00</totfact>
</mgrwt>
</event>
<event>
 4    1  0.4880711E-008  0.6279836E+03  0.7818608E-02  0.9848991E-01
          2   -1    0    0  501    0  0.00000000000E+00  0.00000000000E+00  0.29661915126E+04  0.29661915126E+04  0.25500000000E-02 0. -1.
         -2   -1    0    0    0  501 -0.00000000000E+00 -0.00000000000E+00 -0.13519523581E+03  0.13519523584E+03  0.25500000000E-02 0.  1.
    8880022    1    1    2    0    0  0.93648346782E+02  0.60183202677E+03  0.12157854484E+04  0.13683923819E+04  0.15294330000E+03 0.  0.
    8880022    1    1    2    0    0 -0.93648346782E+02 -0.60183202677E+03  0.16152108284E+04  0.17329943665E+04  0.15294330000E+03 0.  0.
<mgrwt>
<rscale>  0 0.62798364E+03</rscale>
<asrwt>0</asrwt>
<pdfrwt beam="1">  1        2 0.45633718E+00 0.62798364E+03</pdfrwt>
<pdfrwt beam="2">  1       -2 0.20799266E-01 0.62798364E+03</pdfrwt>
<totfact> 0.39198647E+01</totfact>
</mgrwt>
</event>
<event>
 4    1  0.4880711E-008  0.3830911E+03  0.7818608E-02  0.1049797E+00
          2   -1    0    0  501    0  0.00000000000E+00  0.00000000000E+00  0.27757784913E+04  0.27757784913E+04  0.25500000000E-02 0. -1.
         -2   -1    0    0    0  501 -0.00000000000E+00 -0.00000000000E+00 -0.14080756892E+03  0.14080756894E+03  0.25500000000E-02 0.  1.
    8880022    1    1    2    0    0 -0.29876324875E+03 -0.18468249955E+03  0.16505149869E+03  0.41713397689E+03  0.15294330000E+03 0.  0.
    8880022    1    1    2    0    0  0.29876324875E+03  0.18468249955E+03  0.24699194236E+04  0.24994520833E+04  0.15294330000E+03 0. -1.
<mgrwt>
<rscale>  0 0.38309106E+03</rscale>
<asrwt>0</asrwt>
<pdfrwt beam="1">  1        2 0.42704286E+00 0.38309106E+03</pdfrwt>
<pdfrwt beam="2">  1       -2 0.21662702E-01 0.38309106E+03</pdfrwt>
<totfact> 0.49959071E+01</totfact>
</mgrwt>
</event>
<event>
 4    1  0.4880711E-008  0.8903942E+03  0.7818608E-02  0.9437669E-01
         -2   -1    0    0    0  501 -0.00000000000E+00  0.00000000000E+00  0.12026805032E+04  0.12026805032E+04  0.25500000000E-02 0.  1.
          2   -1    0    0  501    0  0.00000000000E+00 -0.00000000000E+00 -0.10288418551E+04  0.10288418551E+04  0.25500000000E-02 0. -1.
    8880022    1    1    2    0    0  0.12455521406E+03  0.86827198342E+03 -0.58187102095E+03  0.10636614953E+04  0.15294330000E+03 0.  0.
    8880022    1    1    2    0    0 -0.12455521406E+03 -0.86827198342E+03  0.75570966905E+03  0.11678608631E+04  0.15294330000E+03 0.  0.
<mgrwt>
<rscale>  0 0.89039423E+03</rscale>
<asrwt>0</asrwt>
<pdfrwt beam="1">  1        2 0.15828336E+00 0.89039423E+03</pdfrwt>
<pdfrwt beam="2">  1       -2 0.18502777E+00 0.89039423E+03</pdfrwt>
<totfact> 0.40584263E+00</totfact>
</mgrwt>
</event>
<event>
 4    1  0.4880711E-008  0.8959695E+03  0.7818608E-02  0.9430634E-01
         -2   -1    0    0    0  501 -0.00000000000E+00  0.00000000000E+00  0.40448396174E+03  0.40448396175E+03  0.25500000000E-02 0.  1.
          2   -1    0    0  501    0  0.00000000000E+00 -0.00000000000E+00 -0.23574126190E+04  0.23574126190E+04  0.25500000000E-02 0. -1.
    8880022    1    1    2    0    0  0.84769768124E+03 -0.24653259057E+03 -0.42733761363E+03  0.99266246329E+03  0.15294330000E+03 0.  0.
    8880022    1    1    2    0    0 -0.84769768124E+03  0.24653259057E+03 -0.15255910436E+04  0.17692341175E+04  0.15294330000E+03 0.  0.
<mgrwt>
<rscale>  0 0.89596949E+03</rscale>
<asrwt>0</asrwt>
<pdfrwt beam="1">  1        2 0.36267886E+00 0.89596949E+03</pdfrwt>
<pdfrwt beam="2">  1       -2 0.62228303E-01 0.89596949E+03</pdfrwt>
<totfact> 0.10303576E+01</totfact>
</mgrwt>
</event>
<event>
 4    1  0.4880711E-008  0.4423911E+03  0.7818608E-02  0.1030016E+00
          2   -1    0    0  501    0  0.00000000000E+00  0.00000000000E+00  0.29221596803E+04  0.29221596803E+04  0.25500000000E-02 0. -1.
         -2   -1    0    0    0  501 -0.00000000000E+00 -0.00000000000E+00 -0.15316623169E+03  0.15316623171E+03  0.25500000000E-02 0.  1.
    8880022    1    1    2    0    0  0.41502404657E+03 -0.85604156849E+01  0.23100975788E+03  0.49907454473E+03  0.15294330000E+03 0.  0.
    8880022    1    1    2    0    0 -0.41502404657E+03  0.85604156849E+01  0.25379836908E+04  0.25762513673E+04  0.15294330000E+03 0.  0.
<mgrwt>
<rscale>  0 0.44239111E+03</rscale>
<asrwt>0</asrwt>
<pdfrwt beam="1">  1        2 0.44956306E+00 0.44239111E+03</pdfrwt>
<pdfrwt beam="2">  1       -2 0.23564034E-01 0.44239111E+03</pdfrwt>
<totfact> 0.34802994E+01</totfact>
</mgrwt>
</event>
<event>
 4    1  0.4880711E-008  0.1429708E+04  0.7818608E-02  0.8932590E-01
         -2   -1    0    0    0  501 -0.00000000000E+00  0.00000000000E+00  0.87207979165E+03  0.87207979165E+03  0.25500000000E-02 0.  1.
          2   -1    0    0  501    0  0.00000000000E+00 -0.00000000000E+00 -0.26314937535E+04  0.26314937535E+04  0.25500000000E-02 0. -1.
    8880022    1    1    2    0    0 -0.75244669365E+03  0.12060259477E+04 -0.14588304215E+04  0.20426092296E+04  0.15294330000E+03 0.  0.
    8880022    1    1    2    0    0  0.75244669365E+03 -0.12060259477E+04 -0.30058354040E+03  0.14609643155E+04  0.15294330000E+03 0.  0.
<mgrwt>
<rscale>  0 0.14297085E+04</rscale>
<asrwt>0</asrwt>
<pdfrwt beam="1">  1        2 0.40484519E+00 0.14297085E+04</pdfrwt>
<pdfrwt beam="2">  1       -2 0.13416612E+00 0.14297085E+04</pdfrwt>
<totfact> 0.11159477E+00</totfact>
</mgrwt>
</event>
<event>
 4    1  0.4880711E-008  0.6405592E+03  0.7818608E-02  0.9824657E-01
          2   -1    0    0  501    0  0.00000000000E+00  0.00000000000E+00  0.29054023710E+04  0.29054023710E+04  0.25500000000E-02 0. -1.
         -2   -1    0    0    0  501 -0.00000000000E+00 -0.00000000000E+00 -0.16815511014E+03  0.16815511016E+03  0.25500000000E-02 0.  1.
    8880022    1    1    2    0    0 -0.30625319471E+02 -0.62127809389E+03  0.19836217036E+04  0.20844834123E+04  0.15294330000E+03 0.  0.
    8880022    1    1    2    0    0  0.30625319471E+02  0.62127809389E+03  0.75362555734E+03  0.98907406893E+03  0.15294330000E+03 0.  0.
<mgrwt>
<rscale>  0 0.64055916E+03</rscale>
<asrwt>0</asrwt>
<pdfrwt beam="1">  1        2 0.44698496E+00 0.64055916E+03</pdfrwt>
<pdfrwt beam="2">  1       -2 0.25870018E-01 0.64055916E+03</pdfrwt>
<totfact> 0.28851341E+01</totfact>
</mgrwt>
</event>
<event>
 4    1  0.4880711E-008  0.2587220E+03  0.7818608E-02  0.1107913E+00
          2   -1    0    0  501    0  0.00000000000E+00  0.00000000000E+00  0.17390523975E+04  0.17390523975E+04  0.25500000000E-02 0. -1.
         -2   -1    0    0    0  501 -0.00000000000E+00 -0.00000000000E+00 -0.88573468744E+02  0.88573468781E+02  0.25500000000E-02 0.  1.
    8880022    1    1    2    0    0 -0.55070382747E+02  0.20127766407E+03  0.15123874097E+04  0.15343574470E+04  0.15294330000E+03 0. -1.
    8880022    1    1    2    0    0  0.55070382747E+02 -0.20127766407E+03  0.13809151908E+03  0.29326841931E+03  0.15294330000E+03 0.  0.
<mgrwt>
<rscale>  0 0.25872205E+03</rscale>
<asrwt>0</asrwt>
<pdfrwt beam="1">  1        2 0.26754651E+00 0.25872205E+03</pdfrwt>
<pdfrwt beam="2">  1       -2 0.13626688E-01 0.25872205E+03</pdfrwt>
<totfact> 0.41146037E+02</totfact>
</mgrwt>
</event>
<event>
 4    1  0.4880711E-008  0.1580554E+04  0.7818608E-02  0.8832585E-01
          2   -1    0    0  501    0  0.00000000000E+00  0.00000000000E+00  0.17564031298E+04  0.17564031298E+04  0.25500000000E-02 0. -1.
         -2   -1    0    0    0  501 -0.00000000000E+00 -0.00000000000E+00 -0.16939671456E+04  0.16939671456E+04  0.25500000000E-02 0.  1.
    8880022    1    1    2    0    0 -0.11290367740E+04 -0.10954604872E+04  0.72208419866E+03  0.17376866689E+04  0.15294330000E+03 0.  0.
    8880022    1    1    2    0    0  0.11290367740E+04  0.10954604872E+04 -0.65964821443E+03  0.17126836065E+04  0.15294330000E+03 0.  0.
<mgrwt>
<rscale>  0 0.15805535E+04</rscale>
<asrwt>0</asrwt>
<pdfrwt beam="1">  1        2 0.27021587E+00 0.15805535E+04</pdfrwt>
<pdfrwt beam="2">  1       -2 0.26061033E+00 0.15805535E+04</pdfrwt>
<totfact> 0.46972283E-01</totfact>
</mgrwt>
</event>
<event>
 4    1  0.4880711E-008  0.9635805E+03  0.7818608E-02  0.9349416E-01
         -2   -1    0    0    0  501 -0.00000000000E+00  0.00000000000E+00  0.14544846682E+04  0.14544846682E+04  0.25500000000E-02 0.  1.
          2   -1    0    0  501    0  0.00000000000E+00 -0.00000000000E+00 -0.80742629176E+03  0.80742629177E+03  0.25500000000E-02 0. -1.
    8880022    1    1    2    0    0 -0.38397595641E+03  0.87043558907E+03 -0.19398278026E+03  0.98291231648E+03  0.15294330000E+03 0.  0.
    8880022    1    1    2    0    0  0.38397595641E+03 -0.87043558907E+03  0.84104115673E+03  0.12789986435E+04  0.15294330000E+03 0.  0.
<mgrwt>
<rscale>  0 0.96358046E+03</rscale>
<asrwt>0</asrwt>
<pdfrwt beam="1">  1        2 0.12421943E+00 0.96358046E+03</pdfrwt>
<pdfrwt beam="2">  1       -2 0.22376687E+00 0.96358046E+03</pdfrwt>
<totfact> 0.31789718E+00</totfact>
</mgrwt>
</event>
<event>
 4    1  0.4880711E-008  0.2943691E+03  0.7818608E-02  0.1088090E+00
          2   -1    0    0  501    0  0.00000000000E+00  0.00000000000E+00  0.12303237494E+04  0.12303237495E+04  0.25500000000E-02 0. -1.
         -2   -1    0    0    0  501 -0.00000000000E+00 -0.00000000000E+00 -0.31843987635E+03  0.31843987636E+03  0.25500000000E-02 0.  1.
    8880022    1    1    2    0    0 -0.25012443477E+03 -0.26444243899E+02  0.11393417476E+04  0.11767552004E+04  0.15294330000E+03 0.  0.
    8880022    1    1    2    0    0  0.25012443477E+03  0.26444243899E+02 -0.22745787446E+03  0.37200842541E+03  0.15294330000E+03 0.  0.
<mgrwt>
<rscale>  0 0.29436913E+03</rscale>
<asrwt>0</asrwt>
<pdfrwt beam="1">  1        2 0.18928058E+00 0.29436913E+03</pdfrwt>
<pdfrwt beam="2">  1       -2 0.48990750E-01 0.29436913E+03</pdfrwt>
<totfact> 0.77501276E+01</totfact>
</mgrwt>
</event>
<event>
 4    1  0.4880711E-008  0.8288379E+03  0.7818608E-02  0.9519189E-01
         -2   -1    0    0    0  501 -0.00000000000E+00  0.00000000000E+00  0.58756442315E+03  0.58756442316E+03  0.25500000000E-02 0.  1.
          2   -1    0    0  501    0  0.00000000000E+00 -0.00000000000E+00 -0.31705845302E+04  0.31705845302E+04  0.25500000000E-02 0. -1.
    8880022    1    1    2    0    0 -0.46198856876E+03  0.67093010052E+03  0.20142555993E+03  0.85296221877E+03  0.15294330000E+03 0.  1.
    8880022    1    1    2    0    0  0.46198856876E+03 -0.67093010052E+03 -0.27844456670E+04  0.29051867346E+04  0.15294330000E+03 0.  1.
<mgrwt>
<rscale>  0 0.82883792E+03</rscale>
<asrwt>0</asrwt>
<pdfrwt beam="1">  1        2 0.48778223E+00 0.82883792E+03</pdfrwt>
<pdfrwt beam="2">  1       -2 0.90394528E-01 0.82883792E+03</pdfrwt>
<totfact> 0.14982269E+00</totfact>
</mgrwt>
</event>
<event>
 4    1  0.4880711E-008  0.7340753E+03  0.7818608E-02  0.9660670E-01
         -2   -1    0    0    0  501 -0.00000000000E+00  0.00000000000E+00  0.11586601283E+04  0.11586601283E+04  0.25500000000E-02 0.  1.
          2   -1    0    0  501    0  0.00000000000E+00 -0.00000000000E+00 -0.15039837117E+04  0.15039837117E+04  0.25500000000E-02 0. -1.
    8880022    1    1    2    0    0  0.30610085777E+03 -0.64944376760E+03 -0.12791574563E+04  0.14748255468E+04  0.15294330000E+03 0.  0.
    8880022    1    1    2    0    0 -0.30610085777E+03  0.64944376760E+03  0.93383387295E+03  0.11878182932E+04  0.15294330000E+03 0.  0.
<mgrwt>
<rscale>  0 0.73407533E+03</rscale>
<asrwt>0</asrwt>
<pdfrwt beam="1">  1        2 0.23138211E+00 0.73407533E+03</pdfrwt>
<pdfrwt beam="2">  1       -2 0.17825540E+00 0.73407533E+03</pdfrwt>
<totfact> 0.24303445E+00</totfact>
</mgrwt>
</event>
<event>
 4    1  0.4880711E-008  0.1311767E+04  0.7818608E-02  0.9020285E-01
         -2   -1    0    0    0  501 -0.00000000000E+00  0.00000000000E+00  0.23076964503E+04  0.23076964503E+04  0.25500000000E-02 0.  1.
          2   -1    0    0  501    0  0.00000000000E+00 -0.00000000000E+00 -0.94456900866E+03  0.94456900866E+03  0.25500000000E-02 0. -1.
    8880022    1    1    2    0    0  0.32673436577E+03 -0.12611843051E+04  0.14278024155E+04  0.19389049972E+04  0.15294330000E+03 0.  0.
    8880022    1    1    2    0    0 -0.32673436577E+03  0.12611843051E+04 -0.64674973912E+02  0.13133604618E+04  0.15294330000E+03 0.  0.
<mgrwt>
<rscale>  0 0.13117671E+04</rscale>
<asrwt>0</asrwt>
<pdfrwt beam="1">  1        2 0.14531831E+00 0.13117671E+04</pdfrwt>
<pdfrwt beam="2">  1       -2 0.35503022E+00 0.13117671E+04</pdfrwt>
<totfact> 0.38408734E-01</totfact>
</mgrwt>
</event>
<event>
 4    1  0.4880711E-008  0.6841987E+03  0.7818608E-02  0.9744643E-01
         -2   -1    0    0    0  501 -0.00000000000E+00  0.00000000000E+00  0.80028385107E+03  0.80028385108E+03  0.25500000000E-02 0.  1.
          2   -1    0    0  501    0  0.00000000000E+00 -0.00000000000E+00 -0.13850365329E+04  0.13850365329E+04  0.25500000000E-02 0. -1.
    8880022    1    1    2    0    0  0.55393179380E+03 -0.37134311571E+03 -0.11228433631E+04  0.13148783262E+04  0.15294330000E+03 0.  0.
    8880022    1    1    2    0    0 -0.55393179380E+03  0.37134311571E+03  0.53809068120E+03  0.87044205779E+03  0.15294330000E+03 0.  0.
<mgrwt>
<rscale>  0 0.68419865E+03</rscale>
<asrwt>0</asrwt>
<pdfrwt beam="1">  1        2 0.21308254E+00 0.68419865E+03</pdfrwt>
<pdfrwt beam="2">  1       -2 0.12312059E+00 0.68419865E+03</pdfrwt>
<totfact> 0.75922378E+00</totfact>
</mgrwt>
</event>
<event>
 4    1  0.4880711E-008  0.6352125E+03  0.7818608E-02  0.9834929E-01
          2   -1    0    0  501    0  0.00000000000E+00  0.00000000000E+00  0.94435655120E+03  0.94435655121E+03  0.25500000000E-02 0. -1.
         -2   -1    0    0    0  501 -0.00000000000E+00 -0.00000000000E+00 -0.19115555228E+04  0.19115555228E+04  0.25500000000E-02 0.  1.
    8880022    1    1    2    0    0  0.58233433884E+03  0.20245995877E+03  0.77468877073E+03  0.10018171797E+04  0.15294330000E+03 0.  0.
    8880022    1    1    2    0    0 -0.58233433884E+03 -0.20245995877E+03 -0.17418877423E+04  0.18540948943E+04  0.15294330000E+03 0.  0.
<mgrwt>
<rscale>  0 0.63521254E+03</rscale>
<asrwt>0</asrwt>
<pdfrwt beam="1">  1        2 0.14528562E+00 0.63521254E+03</pdfrwt>
<pdfrwt beam="2">  1       -2 0.29408546E+00 0.63521254E+03</pdfrwt>
<totfact> 0.10112938E+00</totfact>
</mgrwt>
</event>
<event>
 4    1  0.4880711E-008  0.3390516E+03  0.7818608E-02  0.1067201E+00
         -2   -1    0    0    0  501 -0.00000000000E+00  0.00000000000E+00  0.46485759399E+03  0.46485759400E+03  0.25500000000E-02 0.  1.
          2   -1    0    0  501    0  0.00000000000E+00 -0.00000000000E+00 -0.20708401550E+04  0.20708401550E+04  0.25500000000E-02 0. -1.
    8880022    1    1    2    0    0 -0.10276153523E+03  0.28461268001E+03 -0.19927330701E+04  0.20213710823E+04  0.15294330000E+03 0.  0.
    8880022    1    1    2    0    0  0.10276153523E+03 -0.28461268001E+03  0.38675050910E+03  0.51432666667E+03  0.15294330000E+03 0.  0.
<mgrwt>
<rscale>  0 0.33905157E+03</rscale>
<asrwt>0</asrwt>
<pdfrwt beam="1">  1        2 0.31859079E+00 0.33905157E+03</pdfrwt>
<pdfrwt beam="2">  1       -2 0.71516554E-01 0.33905157E+03</pdfrwt>
<totfact> 0.12300692E+01</totfact>
</mgrwt>
</event>
<event>
 4    1  0.4880711E-008  0.3075508E+03  0.7818608E-02  0.1081526E+00
         -2   -1    0    0    0  501 -0.00000000000E+00  0.00000000000E+00  0.84689932218E+02  0.84689932257E+02  0.25500000000E-02 0.  1.
          2   -1    0    0  501    0  0.00000000000E+00 -0.00000000000E+00 -0.18579062303E+04  0.18579062303E+04  0.25500000000E-02 0. -1.
    8880022    1    1    2    0    0 -0.26439432056E+03  0.35937487187E+02 -0.15000322180E+04  0.15312361568E+04  0.15294330000E+03 0.  0.
    8880022    1    1    2    0    0  0.26439432056E+03 -0.35937487187E+02 -0.27318408003E+03  0.41136000574E+03  0.15294330000E+03 0.  0.
<mgrwt>
<rscale>  0 0.30755083E+03</rscale>
<asrwt>0</asrwt>
<pdfrwt beam="1">  1        2 0.28583170E+00 0.30755083E+03</pdfrwt>
<pdfrwt beam="2">  1       -2 0.13029222E-01 0.30755083E+03</pdfrwt>
<totfact> 0.38022508E+02</totfact>
</mgrwt>
</event>
<event>
 4    1  0.4880711E-008  0.9053348E+03  0.7818608E-02  0.9418937E-01
         -2   -1    0    0    0  501 -0.00000000000E+00  0.00000000000E+00  0.42263023311E+03  0.42263023312E+03  0.25500000000E-02 0.  1.
          2   -1    0    0  501    0  0.00000000000E+00 -0.00000000000E+00 -0.23142114411E+04  0.23142114411E+04  0.25500000000E-02 0. -1.
    8880022    1    1    2    0    0  0.55448575203E+02  0.89059804102E+03 -0.39504725442E+03  0.98777193795E+03  0.15294330000E+03 0.  0.
    8880022    1    1    2    0    0 -0.55448575203E+02 -0.89059804102E+03 -0.14965339536E+04  0.17490697363E+04  0.15294330000E+03 0.  0.
<mgrwt>
<rscale>  0 0.90533478E+03</rscale>
<asrwt>0</asrwt>
<pdfrwt beam="1">  1        2 0.35603252E+00 0.90533478E+03</pdfrwt>
<pdfrwt beam="2">  1       -2 0.65020037E-01 0.90533478E+03</pdfrwt>
<totfact> 0.99038725E+00</totfact>
</mgrwt>
</event>
<event>
 4    1  0.4880711E-008  0.5276951E+03  0.7818608E-02  0.1006793E+00
          2   -1    0    0  501    0  0.00000000000E+00  0.00000000000E+00  0.72220995142E+03  0.72220995143E+03  0.25500000000E-02 0. -1.
         -2   -1    0    0    0  501 -0.00000000000E+00 -0.00000000000E+00 -0.55920743351E+03  0.55920743352E+03  0.25500000000E-02 0.  1.
    8880022    1    1    2    0    0  0.43668176295E+03  0.25373120709E+03 -0.27552193752E+03  0.59529360706E+03  0.15294330000E+03 0.  0.
    8880022    1    1    2    0    0 -0.43668176295E+03 -0.25373120709E+03  0.43852445543E+03  0.68612377788E+03  0.15294330000E+03 0. -1.
<mgrwt>
<rscale>  0 0.52769512E+03</rscale>
<asrwt>0</asrwt>
<pdfrwt beam="1">  1        2 0.11110922E+00 0.52769512E+03</pdfrwt>
<pdfrwt beam="2">  1       -2 0.86031913E-01 0.52769512E+03</pdfrwt>
<totfact> 0.47717903E+01</totfact>
</mgrwt>
</event>
<event>
 4    1  0.4880711E-008  0.6213981E+03  0.7818608E-02  0.9861980E-01
          2   -1    0    0  501    0  0.00000000000E+00  0.00000000000E+00  0.97032237375E+03  0.97032237376E+03  0.25500000000E-02 0. -1.
         -2   -1    0    0    0  501 -0.00000000000E+00 -0.00000000000E+00 -0.49679571750E+03  0.49679571750E+03  0.25500000000E-02 0.  1.
    8880022    1    1    2    0    0  0.60160985137E+03  0.28451864320E+02 -0.90452741691E+02  0.62794687144E+03  0.15294330000E+03 0.  0.
    8880022    1    1    2    0    0 -0.60160985137E+03 -0.28451864320E+02  0.56397939795E+03  0.83917121982E+03  0.15294330000E+03 0.  0.
<mgrwt>
<rscale>  0 0.62139808E+03</rscale>
<asrwt>0</asrwt>
<pdfrwt beam="1">  1        2 0.14928036E+00 0.62139808E+03</pdfrwt>
<pdfrwt beam="2">  1       -2 0.76430111E-01 0.62139808E+03</pdfrwt>
<totfact> 0.41457140E+01</totfact>
</mgrwt>
</event>
<event>
 4    1  0.4880711E-008  0.7429939E+03  0.7818608E-02  0.9646406E-01
         -2   -1    0    0    0  501 -0.00000000000E+00  0.00000000000E+00  0.58665497390E+03  0.58665497391E+03  0.25500000000E-02 0.  1.
          2   -1    0    0  501    0  0.00000000000E+00 -0.00000000000E+00 -0.31533124510E+04  0.31533124510E+04  0.25500000000E-02 0. -1.
    8880022    1    1    2    0    0  0.43223057230E+03  0.58465807297E+03 -0.28496395498E+04  0.29449084105E+04  0.15294330000E+03 0.  0.
    8880022    1    1    2    0    0 -0.43223057230E+03 -0.58465807297E+03  0.28298207264E+03  0.79505901440E+03  0.15294330000E+03 0.  0.
<mgrwt>
<rscale>  0 0.74299393E+03</rscale>
<asrwt>0</asrwt>
<pdfrwt beam="1">  1        2 0.48512498E+00 0.74299393E+03</pdfrwt>
<pdfrwt beam="2">  1       -2 0.90254614E-01 0.74299393E+03</pdfrwt>
<totfact> 0.15698889E+00</totfact>
</mgrwt>
</event>
<event>
 4    1  0.4880711E-008  0.2570507E+03  0.7818608E-02  0.1108928E+00
         -2   -1    0    0    0  501 -0.00000000000E+00  0.00000000000E+00  0.16210986779E+03  0.16210986781E+03  0.25500000000E-02 0.  1.
          2   -1    0    0  501    0  0.00000000000E+00 -0.00000000000E+00 -0.16714354548E+04  0.16714354548E+04  0.25500000000E-02 0. -1.
    8880022    1    1    2    0    0 -0.18676647927E+03 -0.88327074626E+02 -0.15518551234E+04  0.15730001166E+04  0.15294330000E+03 0.  0.
    8880022    1    1    2    0    0  0.18676647927E+03  0.88327074626E+02  0.42529536361E+02  0.26054520600E+03  0.15294330000E+03 0.  1.
<mgrwt>
<rscale>  0 0.25705066E+03</rscale>
<asrwt>0</asrwt>
<pdfrwt beam="1">  1        2 0.25714390E+00 0.25705066E+03</pdfrwt>
<pdfrwt beam="2">  1       -2 0.24939981E-01 0.25705066E+03</pdfrwt>
<totfact> 0.15986671E+02</totfact>
</mgrwt>
</event>
<event>
 4    1  0.4880711E-008  0.4698939E+03  0.7818608E-02  0.1021950E+00
          2   -1    0    0  501    0  0.00000000000E+00  0.00000000000E+00  0.96677250909E+03  0.96677250909E+03  0.25500000000E-02 0. -1.
         -2   -1    0    0    0  501 -0.00000000000E+00 -0.00000000000E+00 -0.52765391078E+03  0.52765391078E+03  0.25500000000E-02 0.  1.
    8880022    1    1    2    0    0  0.19801688746E+03  0.39774099114E+03 -0.34316780911E+03  0.58186285496E+03  0.15294330000E+03 0.  0.
    8880022    1    1    2    0    0 -0.19801688746E+03 -0.39774099114E+03  0.78228640742E+03  0.91256356491E+03  0.15294330000E+03 0.  0.
<mgrwt>
<rscale>  0 0.46989386E+03</rscale>
<asrwt>0</asrwt>
<pdfrwt beam="1">  1        2 0.14873423E+00 0.46989386E+03</pdfrwt>
<pdfrwt beam="2">  1       -2 0.81177525E-01 0.46989386E+03</pdfrwt>
<totfact> 0.37133869E+01</totfact>
</mgrwt>
</event>
<event>
 4    1  0.4880711E-008  0.4147053E+03  0.7818608E-02  0.1038803E+00
         -2   -1    0    0    0  501 -0.00000000000E+00  0.00000000000E+00  0.13529326293E+03  0.13529326295E+03  0.25500000000E-02 0.  1.
          2   -1    0    0  501    0  0.00000000000E+00 -0.00000000000E+00 -0.17927356301E+04  0.17927356301E+04  0.25500000000E-02 0. -1.
    8880022    1    1    2    0    0  0.33230084868E+03  0.19535856437E+03 -0.13486940765E+04  0.14110124690E+04  0.15294330000E+03 0.  0.
    8880022    1    1    2    0    0 -0.33230084868E+03 -0.19535856437E+03 -0.30874829063E+03  0.51701642400E+03  0.15294330000E+03 0.  0.
<mgrwt>
<rscale>  0 0.41470529E+03</rscale>
<asrwt>0</asrwt>
<pdfrwt beam="1">  1        2 0.27580546E+00 0.41470529E+03</pdfrwt>
<pdfrwt beam="2">  1       -2 0.20814349E-01 0.41470529E+03</pdfrwt>
<totfact> 0.18360235E+02</totfact>
</mgrwt>
</event>
<event>
 4    1  0.4880711E-008  0.2022141E+03  0.7818608E-02  0.1147884E+00
         -2   -1    0    0    0  501 -0.00000000000E+00  0.00000000000E+00  0.38913820902E+02  0.38913820986E+02  0.25500000000E-02 0.  1.
          2   -1    0    0  501    0  0.00000000000E+00 -0.00000000000E+00 -0.19597581149E+04  0.19597581149E+04  0.25500000000E-02 0. -1.
    8880022    1    1    2    0    0  0.67733261362E+02 -0.11362707897E+03 -0.27983659755E+03  0.34525220073E+03  0.15294330000E+03 0.  0.
    8880022    1    1    2    0    0 -0.67733261362E+02  0.11362707897E+03 -0.16410076964E+04  0.16534197351E+04  0.15294330000E+03 0.  0.
<mgrwt>
<rscale>  0 0.20221415E+03</rscale>
<asrwt>0</asrwt>
<pdfrwt beam="1">  1        2 0.30150117E+00 0.20221415E+03</pdfrwt>
<pdfrwt beam="2">  1       -2 0.59867432E-02 0.20221415E+03</pdfrwt>
<totfact> 0.11679277E+03</totfact>
</mgrwt>
</event>
<event>
 4    1  0.4880711E-008  0.3924585E+03  0.7818608E-02  0.1046423E+00
         -2   -1    0    0    0  501 -0.00000000000E+00  0.00000000000E+00  0.59461249514E+03  0.59461249514E+03  0.25500000000E-02 0.  1.
          2   -1    0    0  501    0  0.00000000000E+00 -0.00000000000E+00 -0.18695093241E+04  0.18695093241E+04  0.25500000000E-02 0. -1.
    8880022    1    1    2    0    0 -0.53329893130E+02  0.35747442301E+03  0.50607657912E+03  0.64041954807E+03  0.15294330000E+03 0.  0.
    8880022    1    1    2    0    0  0.53329893130E+02 -0.35747442301E+03 -0.17809734081E+04  0.18237022712E+04  0.15294330000E+03 0.  0.
<mgrwt>
<rscale>  0 0.39245852E+03</rscale>
<asrwt>0</asrwt>
<pdfrwt beam="1">  1        2 0.28761682E+00 0.39245852E+03</pdfrwt>
<pdfrwt beam="2">  1       -2 0.91478846E-01 0.39245852E+03</pdfrwt>
<totfact> 0.89386458E+00</totfact>
</mgrwt>
</event>
<event>
 4    1  0.4880711E-008  0.1978966E+03  0.7818608E-02  0.1151526E+00
         -2   -1    0    0    0  501 -0.00000000000E+00  0.00000000000E+00  0.32467496530E+03  0.32467496531E+03  0.25500000000E-02 0.  1.
          2   -1    0    0  501    0  0.00000000000E+00 -0.00000000000E+00 -0.13543464282E+03  0.13543464285E+03  0.25500000000E-02 0. -1.
    8880022    1    1    2    0    0  0.58327829728E+01  0.12544867764E+03  0.17070149533E+03  0.26134660052E+03  0.15294330000E+03 0.  1.
    8880022    1    1    2    0    0 -0.58327829728E+01 -0.12544867764E+03  0.18538827148E+02  0.19876300764E+03  0.15294330000E+03 0. -1.
<mgrwt>
<rscale>  0 0.19789655E+03</rscale>
<asrwt>0</asrwt>
<pdfrwt beam="1">  1        2 0.20836099E-01 0.19789655E+03</pdfrwt>
<pdfrwt beam="2">  1       -2 0.49949994E-01 0.19789655E+03</pdfrwt>
<totfact> 0.10124481E+03</totfact>
</mgrwt>
</event>
<event>
 4    1  0.4880711E-008  0.7922592E+03  0.7818608E-02  0.9571290E-01
         -2   -1    0    0    0  501 -0.00000000000E+00  0.00000000000E+00  0.42939129759E+03  0.42939129760E+03  0.25500000000E-02 0.  1.
          2   -1    0    0  501    0  0.00000000000E+00 -0.00000000000E+00 -0.23670059317E+04  0.23670059317E+04  0.25500000000E-02 0. -1.
    8880022    1    1    2    0    0 -0.25943803367E+03 -0.73278573897E+03 -0.18334729635E+04  0.19973226563E+04  0.15294330000E+03 0.  0.
    8880022    1    1    2    0    0  0.25943803367E+03  0.73278573897E+03 -0.10414167057E+03  0.79907457294E+03  0.15294330000E+03 0.  0.
<mgrwt>
<rscale>  0 0.79225923E+03</rscale>
<asrwt>0</asrwt>
<pdfrwt beam="1">  1        2 0.36415475E+00 0.79225923E+03</pdfrwt>
<pdfrwt beam="2">  1       -2 0.66060201E-01 0.79225923E+03</pdfrwt>
<totfact> 0.90872484E+00</totfact>
</mgrwt>
</event>
<event>
 4    1  0.4880711E-008  0.7128977E+03  0.7818608E-02  0.9695426E-01
          2   -1    0    0  501    0  0.00000000000E+00  0.00000000000E+00  0.11379789730E+04  0.11379789730E+04  0.25500000000E-02 0. -1.
         -2   -1    0    0    0  501 -0.00000000000E+00 -0.00000000000E+00 -0.68733538521E+03  0.68733538522E+03  0.25500000000E-02 0.  1.
    8880022    1    1    2    0    0 -0.32375368152E+03 -0.61645356575E+03  0.76544389693E+03  0.10460054767E+04  0.15294330000E+03 0.  0.
    8880022    1    1    2    0    0  0.32375368152E+03  0.61645356575E+03 -0.31480030918E+03  0.77930888144E+03  0.15294330000E+03 0.  0.
<mgrwt>
<rscale>  0 0.71289768E+03</rscale>
<asrwt>0</asrwt>
<pdfrwt beam="1">  1        2 0.17507369E+00 0.71289768E+03</pdfrwt>
<pdfrwt beam="2">  1       -2 0.10574390E+00 0.71289768E+03</pdfrwt>
<totfact> 0.15264974E+01</totfact>
</mgrwt>
</event>
<event>
 4    1  0.4880711E-008  0.1673399E+03  0.7818608E-02  0.1180651E+00
          2   -1    0    0  501    0  0.00000000000E+00  0.00000000000E+00  0.64825996949E+03  0.64825996949E+03  0.25500000000E-02 0. -1.
         -2   -1    0    0    0  501 -0.00000000000E+00 -0.00000000000E+00 -0.16515250689E+03  0.16515250691E+03  0.25500000000E-02 0.  1.
    8880022    1    1    2    0    0 -0.65980567628E+02 -0.16048015178E+02 -0.10794022280E+03  0.19913241526E+03  0.15294330000E+03 0.  0.
    8880022    1    1    2    0    0  0.65980567628E+02  0.16048015178E+02  0.59104768539E+03  0.61428006114E+03  0.15294330000E+03 0.  0.
<mgrwt>
<rscale>  0 0.16733986E+03</rscale>
<asrwt>0</asrwt>
<pdfrwt beam="1">  1        2 0.99732304E-01 0.16733986E+03</pdfrwt>
<pdfrwt beam="2">  1       -2 0.25408078E-01 0.16733986E+03</pdfrwt>
<totfact> 0.64044720E+02</totfact>
</mgrwt>
</event>
<event>
 4    1  0.4880711E-008  0.2863300E+03  0.7818608E-02  0.1092281E+00
         -2   -1    0    0    0  501 -0.00000000000E+00  0.00000000000E+00  0.48429062226E+03  0.48429062226E+03  0.25500000000E-02 0.  1.
          2   -1    0    0  501    0  0.00000000000E+00 -0.00000000000E+00 -0.14968323657E+04  0.14968323657E+04  0.25500000000E-02 0. -1.
    8880022    1    1    2    0    0  0.16747998181E+03 -0.17476748672E+03 -0.14391369177E+04  0.14673445197E+04  0.15294330000E+03 0.  0.
    8880022    1    1    2    0    0 -0.16747998181E+03  0.17476748672E+03  0.42659517424E+03  0.51377846824E+03  0.15294330000E+03 0.  0.
<mgrwt>
<rscale>  0 0.28633000E+03</rscale>
<asrwt>0</asrwt>
<pdfrwt beam="1">  1        2 0.23028190E+00 0.28633000E+03</pdfrwt>
<pdfrwt beam="2">  1       -2 0.74506250E-01 0.28633000E+03</pdfrwt>
<totfact> 0.23106644E+01</totfact>
</mgrwt>
</event>
<event>
 4    1  0.4880711E-008  0.1194788E+04  0.7818608E-02  0.9117431E-01
         -2   -1    0    0    0  501 -0.00000000000E+00  0.00000000000E+00  0.15843795295E+04  0.15843795295E+04  0.25500000000E-02 0.  1.
          2   -1    0    0  501    0  0.00000000000E+00 -0.00000000000E+00 -0.12148118130E+04  0.12148118130E+04  0.25500000000E-02 0. -1.
    8880022    1    1    2    0    0 -0.11820053930E+04 -0.83608932768E+02 -0.52657023096E+03  0.13056780093E+04  0.15294330000E+03 0.  0.
    8880022    1    1    2    0    0  0.11820053930E+04  0.83608932768E+02  0.89613794741E+03  0.14935133332E+04  0.15294330000E+03 0.  1.
<mgrwt>
<rscale>  0 0.11947882E+04</rscale>
<asrwt>0</asrwt>
<pdfrwt beam="1">  1        2 0.18689413E+00 0.11947882E+04</pdfrwt>
<pdfrwt beam="2">  1       -2 0.24375070E+00 0.11947882E+04</pdfrwt>
<totfact> 0.12678063E+00</totfact>
</mgrwt>
</event>
<event>
 4    1  0.4880711E-008  0.2998415E+03  0.7818608E-02  0.1085320E+00
          2   -1    0    0  501    0  0.00000000000E+00  0.00000000000E+00  0.62073916640E+03  0.62073916641E+03  0.25500000000E-02 0. -1.
         -2   -1    0    0    0  501 -0.00000000000E+00 -0.00000000000E+00 -0.22369044909E+03  0.22369044911E+03  0.25500000000E-02 0.  1.
    8880022    1    1    2    0    0  0.28105220100E+02  0.25636569612E+03 -0.52158618162E+02  0.30434429189E+03  0.15294330000E+03 0.  0.
    8880022    1    1    2    0    0 -0.28105220100E+02 -0.25636569612E+03  0.44920733547E+03  0.54008532363E+03  0.15294330000E+03 0.  0.
<mgrwt>
<rscale>  0 0.29984150E+03</rscale>
<asrwt>0</asrwt>
<pdfrwt beam="1">  1        2 0.95498333E-01 0.29984150E+03</pdfrwt>
<pdfrwt beam="2">  1       -2 0.34413915E-01 0.29984150E+03</pdfrwt>
<totfact> 0.38628808E+02</totfact>
</mgrwt>
</event>
<event>
 4    1  0.4880711E-008  0.5995398E+03  0.7818608E-02  0.9906361E-01
          2   -1    0    0  501    0  0.00000000000E+00  0.00000000000E+00  0.14633164395E+04  0.14633164395E+04  0.25500000000E-02 0. -1.
         -2   -1    0    0    0  501 -0.00000000000E+00 -0.00000000000E+00 -0.64363238565E+03  0.64363238565E+03  0.25500000000E-02 0.  1.
    8880022    1    1    2    0    0  0.18553878898E+03 -0.54921004571E+03 -0.41856320302E+03  0.73119294612E+03  0.15294330000E+03 0.  0.
    8880022    1    1    2    0    0 -0.18553878898E+03  0.54921004571E+03  0.12382472569E+04  0.13757558791E+04  0.15294330000E+03 0.  0.
<mgrwt>
<rscale>  0 0.59953980E+03</rscale>
<asrwt>0</asrwt>
<pdfrwt beam="1">  1        2 0.22512561E+00 0.59953980E+03</pdfrwt>
<pdfrwt beam="2">  1       -2 0.99020366E-01 0.59953980E+03</pdfrwt>
<totfact> 0.11785857E+01</totfact>
</mgrwt>
</event>
<event>
 4    1  0.4880711E-008  0.8713845E+03  0.7818608E-02  0.9462077E-01
          2   -1    0    0  501    0  0.00000000000E+00  0.00000000000E+00  0.21244931954E+04  0.21244931955E+04  0.25500000000E-02 0. -1.
         -2   -1    0    0    0  501 -0.00000000000E+00 -0.00000000000E+00 -0.50751424964E+03  0.50751424965E+03  0.25500000000E-02 0.  1.
    8880022    1    1    2    0    0 -0.59153835321E+03 -0.62129027219E+03  0.92787235844E+02  0.87631064685E+03  0.15294330000E+03 0.  0.
    8880022    1    1    2    0    0  0.59153835321E+03  0.62129027219E+03  0.15241917100E+04  0.17556967982E+04  0.15294330000E+03 0.  0.
<mgrwt>
<rscale>  0 0.87138446E+03</rscale>
<asrwt>0</asrwt>
<pdfrwt beam="1">  1        2 0.32684511E+00 0.87138446E+03</pdfrwt>
<pdfrwt beam="2">  1       -2 0.78079115E-01 0.87138446E+03</pdfrwt>
<totfact> 0.84805210E+00</totfact>
</mgrwt>
</event>
<event>
 4    1  0.4880711E-008  0.6817044E+03  0.7818608E-02  0.9749042E-01
          2   -1    0    0  501    0  0.00000000000E+00  0.00000000000E+00  0.19487640074E+04  0.19487640074E+04  0.25500000000E-02 0. -1.
         -2   -1    0    0    0  501 -0.00000000000E+00 -0.00000000000E+00 -0.61093782110E+03  0.61093782110E+03  0.25500000000E-02 0.  1.
    8880022    1    1    2    0    0 -0.46741048250E+03  0.47207695112E+03  0.16682352657E+04  0.18021458769E+04  0.15294330000E+03 0.  0.
    8880022    1    1    2    0    0  0.46741048250E+03 -0.47207695112E+03 -0.33040907944E+03  0.75755595155E+03  0.15294330000E+03 0.  0.
<mgrwt>
<rscale>  0 0.68170438E+03</rscale>
<asrwt>0</asrwt>
<pdfrwt beam="1">  1        2 0.29980985E+00 0.68170438E+03</pdfrwt>
<pdfrwt beam="2">  1       -2 0.93990434E-01 0.68170438E+03</pdfrwt>
<totfact> 0.71325617E+00</totfact>
</mgrwt>
</event>
<event>
 4    1  0.4880711E-008  0.4379966E+03  0.7818608E-02  0.1031363E+00
          2   -1    0    0  501    0  0.00000000000E+00  0.00000000000E+00  0.97506609039E+03  0.97506609039E+03  0.25500000000E-02 0. -1.
         -2   -1    0    0    0  501 -0.00000000000E+00 -0.00000000000E+00 -0.60182935524E+03  0.60182935525E+03  0.25500000000E-02 0.  1.
    8880022    1    1    2    0    0  0.37885890418E+03 -0.15784587133E+03  0.83347500724E+03  0.94155277551E+03  0.15294330000E+03 0.  0.
    8880022    1    1    2    0    0 -0.37885890418E+03  0.15784587133E+03 -0.46023827209E+03  0.63534267013E+03  0.15294330000E+03 0.  0.
<mgrwt>
<rscale>  0 0.43799662E+03</rscale>
<asrwt>0</asrwt>
<pdfrwt beam="1">  1        2 0.15001017E+00 0.43799662E+03</pdfrwt>
<pdfrwt beam="2">  1       -2 0.92589132E-01 0.43799662E+03</pdfrwt>
<totfact> 0.27349565E+01</totfact>
</mgrwt>
</event>
<event>
 4    1  0.4880711E-008  0.9643300E+03  0.7818608E-02  0.9348556E-01
          2   -1    0    0  501    0  0.00000000000E+00  0.00000000000E+00  0.11870925467E+04  0.11870925467E+04  0.25500000000E-02 0. -1.
         -2   -1    0    0    0  501 -0.00000000000E+00 -0.00000000000E+00 -0.10069297773E+04  0.10069297773E+04  0.25500000000E-02 0.  1.
    8880022    1    1    2    0    0 -0.86480034317E+03 -0.39832279120E+03  0.60698382159E+03  0.11394567531E+04  0.15294330000E+03 0.  0.
    8880022    1    1    2    0    0  0.86480034317E+03  0.39832279120E+03 -0.42682105218E+03  0.10545655708E+04  0.15294330000E+03 0.  0.
<mgrwt>
<rscale>  0 0.96432999E+03</rscale>
<asrwt>0</asrwt>
<pdfrwt beam="1">  1        2 0.18262962E+00 0.96432999E+03</pdfrwt>
<pdfrwt beam="2">  1       -2 0.15491227E+00 0.96432999E+03</pdfrwt>
<totfact> 0.52748488E+00</totfact>
</mgrwt>
</event>
<event>
 4    1  0.4880711E-008  0.1811991E+03  0.7818608E-02  0.1166648E+00
          2   -1    0    0  501    0  0.00000000000E+00  0.00000000000E+00  0.23036608614E+04  0.23036608614E+04  0.25500000000E-02 0. -1.
         -2   -1    0    0    0  501 -0.00000000000E+00 -0.00000000000E+00 -0.75335825010E+03  0.75335825011E+03  0.25500000000E-02 0.  1.
    8880022    1    1    2    0    0  0.32077404507E+02 -0.91719624935E+02  0.22891330968E+04  0.22962934127E+04  0.15294330000E+03 0. -1.
    8880022    1    1    2    0    0 -0.32077404507E+02  0.91719624935E+02 -0.73883048549E+03  0.76072569878E+03  0.15294330000E+03 0.  0.
<mgrwt>
<rscale>  0 0.18119907E+03</rscale>
<asrwt>0</asrwt>
<pdfrwt beam="1">  1        2 0.35440936E+00 0.18119907E+03</pdfrwt>
<pdfrwt beam="2">  1       -2 0.11590127E+00 0.18119907E+03</pdfrwt>
<totfact> 0.33538104E+00</totfact>
</mgrwt>
</event>
<event>
 4    1  0.4880711E-008  0.1158092E+04  0.7818608E-02  0.9150351E-01
         -2   -1    0    0    0  501 -0.00000000000E+00  0.00000000000E+00  0.80891437640E+03  0.80891437641E+03  0.25500000000E-02 0.  1.
          2   -1    0    0  501    0  0.00000000000E+00 -0.00000000000E+00 -0.20616975705E+04  0.20616975705E+04  0.25500000000E-02 0. -1.
    8880022    1    1    2    0    0  0.30989524079E+03 -0.11053281462E+04  0.87376081803E+01  0.11581249371E+04  0.15294330000E+03 0.  0.
    8880022    1    1    2    0    0 -0.30989524079E+03  0.11053281462E+04 -0.12615208022E+04  0.17124870098E+04  0.15294330000E+03 0.  0.
<mgrwt>
<rscale>  0 0.11580920E+04</rscale>
<asrwt>0</asrwt>
<pdfrwt beam="1">  1        2 0.31718424E+00 0.11580920E+04</pdfrwt>
<pdfrwt beam="2">  1       -2 0.12444837E+00 0.11580920E+04</pdfrwt>
<totfact> 0.29349766E+00</totfact>
</mgrwt>
</event>
<event>
 4    1  0.4880711E-008  0.7379838E+03  0.7818608E-02  0.9654393E-01
         -2   -1    0    0    0  501 -0.00000000000E+00  0.00000000000E+00  0.44826462475E+03  0.44826462475E+03  0.25500000000E-02 0.  1.
          2   -1    0    0  501    0  0.00000000000E+00 -0.00000000000E+00 -0.17486632646E+04  0.17486632646E+04  0.25500000000E-02 0. -1.
    8880022    1    1    2    0    0 -0.44755897345E+03 -0.56649748093E+03 -0.12570555628E+04  0.14576723815E+04  0.15294330000E+03 0.  0.
    8880022    1    1    2    0    0  0.44755897345E+03  0.56649748093E+03 -0.43343077025E+02  0.73925550790E+03  0.15294330000E+03 0.  0.
<mgrwt>
<rscale>  0 0.73798380E+03</rscale>
<asrwt>0</asrwt>
<pdfrwt beam="1">  1        2 0.26902511E+00 0.73798380E+03</pdfrwt>
<pdfrwt beam="2">  1       -2 0.68963789E-01 0.73798380E+03</pdfrwt>
<totfact> 0.18235941E+01</totfact>
</mgrwt>
</event>
<event>
 4    1  0.4880711E-008  0.5687117E+03  0.7818608E-02  0.9972533E-01
         -2   -1    0    0    0  501 -0.00000000000E+00  0.00000000000E+00  0.88790233673E+03  0.88790233673E+03  0.25500000000E-02 0.  1.
          2   -1    0    0  501    0  0.00000000000E+00 -0.00000000000E+00 -0.11249802586E+04  0.11249802586E+04  0.25500000000E-02 0. -1.
    8880022    1    1    2    0    0  0.51876253852E+03 -0.17586017194E+03  0.70907279425E+03  0.90896493442E+03  0.15294330000E+03 0.  0.
    8880022    1    1    2    0    0 -0.51876253852E+03  0.17586017194E+03 -0.94615071616E+03  0.11039176610E+04  0.15294330000E+03 0.  0.
<mgrwt>
<rscale>  0 0.56871172E+03</rscale>
<asrwt>0</asrwt>
<pdfrwt beam="1">  1        2 0.17307389E+00 0.56871172E+03</pdfrwt>
<pdfrwt beam="2">  1       -2 0.13660036E+00 0.56871172E+03</pdfrwt>
<totfact> 0.84267987E+00</totfact>
</mgrwt>
</event>
<event>
 4    1  0.4880711E-008  0.3067452E+03  0.7818608E-02  0.1081917E+00
          2   -1    0    0  501    0  0.00000000000E+00  0.00000000000E+00  0.20634620080E+04  0.20634620080E+04  0.25500000000E-02 0. -1.
         -2   -1    0    0    0  501 -0.00000000000E+00 -0.00000000000E+00 -0.86692817906E+02  0.86692817943E+02  0.25500000000E-02 0.  1.
    8880022    1    1    2    0    0 -0.23218814423E+02 -0.26488077932E+03  0.24820961263E+03  0.39458916028E+03  0.15294330000E+03 0.  1.
    8880022    1    1    2    0    0  0.23218814423E+02  0.26488077932E+03  0.17285595775E+04  0.17555656657E+04  0.15294330000E+03 0.  0.
<mgrwt>
<rscale>  0 0.30674516E+03</rscale>
<asrwt>0</asrwt>
<pdfrwt beam="1">  1        2 0.31745570E+00 0.30674516E+03</pdfrwt>
<pdfrwt beam="2">  1       -2 0.13337356E-01 0.30674516E+03</pdfrwt>
<totfact> 0.28495062E+02</totfact>
</mgrwt>
</event>
<event>
 4    1  0.4880711E-008  0.3187091E+03  0.7818608E-02  0.1076245E+00
         -2   -1    0    0    0  501 -0.00000000000E+00  0.00000000000E+00  0.23073383015E+03  0.23073383017E+03  0.25500000000E-02 0.  1.
          2   -1    0    0  501    0  0.00000000000E+00 -0.00000000000E+00 -0.84086184017E+03  0.84086184017E+03  0.25500000000E-02 0. -1.
    8880022    1    1    2    0    0 -0.22338940348E+03 -0.16816966567E+03 -0.67490273986E+03  0.74637070101E+03  0.15294330000E+03 0.  0.
    8880022    1    1    2    0    0  0.22338940348E+03  0.16816966567E+03  0.64774729842E+02  0.32522496933E+03  0.15294330000E+03 0.  0.
<mgrwt>
<rscale>  0 0.31870914E+03</rscale>
<asrwt>0</asrwt>
<pdfrwt beam="1">  1        2 0.12936336E+00 0.31870914E+03</pdfrwt>
<pdfrwt beam="2">  1       -2 0.35497513E-01 0.31870914E+03</pdfrwt>
<totfact> 0.24965223E+02</totfact>
</mgrwt>
</event>
<event>
 4    1  0.4880711E-008  0.7904127E+03  0.7818608E-02  0.9573999E-01
          2   -1    0    0  501    0  0.00000000000E+00  0.00000000000E+00  0.16954163676E+04  0.16954163676E+04  0.25500000000E-02 0. -1.
         -2   -1    0    0    0  501 -0.00000000000E+00 -0.00000000000E+00 -0.45975936404E+03  0.45975936404E+03  0.25500000000E-02 0.  1.
    8880022    1    1    2    0    0  0.66592448919E+03 -0.39737273200E+03  0.10979359247E+04  0.13528545603E+04  0.15294330000E+03 0.  0.
    8880022    1    1    2    0    0 -0.66592448919E+03  0.39737273200E+03  0.13772107882E+03  0.80232117136E+03  0.15294330000E+03 0.  0.
<mgrwt>
<rscale>  0 0.79041266E+03</rscale>
<asrwt>0</asrwt>
<pdfrwt beam="1">  1        2 0.26083329E+00 0.79041266E+03</pdfrwt>
<pdfrwt beam="2">  1       -2 0.70732209E-01 0.79041266E+03</pdfrwt>
<totfact> 0.18329005E+01</totfact>
</mgrwt>
</event>
<event>
 4    1  0.4880711E-008  0.6773691E+03  0.7818608E-02  0.9756736E-01
          2   -1    0    0  501    0  0.00000000000E+00  0.00000000000E+00  0.11666560123E+04  0.11666560123E+04  0.25500000000E-02 0. -1.
         -2   -1    0    0    0  501 -0.00000000000E+00 -0.00000000000E+00 -0.99390021731E+03  0.99390021731E+03  0.25500000000E-02 0.  1.
    8880022    1    1    2    0    0 -0.59778922803E+03  0.27943743718E+03 -0.75339560913E+03  0.10131307119E+04  0.15294330000E+03 0. -1.
    8880022    1    1    2    0    0  0.59778922803E+03 -0.27943743718E+03  0.92615140413E+03  0.11474255178E+04  0.15294330000E+03 0.  0.
<mgrwt>
<rscale>  0 0.67736910E+03</rscale>
<asrwt>0</asrwt>
<pdfrwt beam="1">  1        2 0.17948554E+00 0.67736910E+03</pdfrwt>
<pdfrwt beam="2">  1       -2 0.15290773E+00 0.67736910E+03</pdfrwt>
<totfact> 0.58269062E+00</totfact>
</mgrwt>
</event>
<event>
 4    1  0.4880711E-008  0.5559418E+03  0.7818608E-02  0.1000128E+00
          2   -1    0    0  501    0  0.00000000000E+00  0.00000000000E+00  0.10169467326E+04  0.10169467326E+04  0.25500000000E-02 0. -1.
         -2   -1    0    0    0  501 -0.00000000000E+00 -0.00000000000E+00 -0.37983122827E+03  0.37983122827E+03  0.25500000000E-02 0.  1.
    8880022    1    1    2    0    0 -0.17955359045E+03 -0.50342841727E+03  0.63435750098E+01  0.55597801855E+03  0.15294330000E+03 0.  0.
    8880022    1    1    2    0    0  0.17955359045E+03  0.50342841727E+03  0.63077192928E+03  0.84079994228E+03  0.15294330000E+03 0.  0.
<mgrwt>
<rscale>  0 0.55594183E+03</rscale>
<asrwt>0</asrwt>
<pdfrwt beam="1">  1        2 0.15645334E+00 0.55594183E+03</pdfrwt>
<pdfrwt beam="2">  1       -2 0.58435575E-01 0.55594183E+03</pdfrwt>
<totfact> 0.69539200E+01</totfact>
</mgrwt>
</event>
<event>
 4    1  0.4880711E-008  0.8075693E+03  0.7818608E-02  0.9549125E-01
          2   -1    0    0  501    0  0.00000000000E+00  0.00000000000E+00  0.17947931020E+04  0.17947931020E+04  0.25500000000E-02 0. -1.
         -2   -1    0    0    0  501 -0.00000000000E+00 -0.00000000000E+00 -0.59726692954E+03  0.59726692955E+03  0.25500000000E-02 0.  1.
    8880022    1    1    2    0    0  0.23191459357E+03  0.75828237924E+03 -0.14970466017E+03  0.82132800006E+03  0.15294330000E+03 0.  0.
    8880022    1    1    2    0    0 -0.23191459357E+03 -0.75828237924E+03  0.13472308326E+04  0.15707320315E+04  0.15294330000E+03 0.  0.
<mgrwt>
<rscale>  0 0.80756931E+03</rscale>
<asrwt>0</asrwt>
<pdfrwt beam="1">  1        2 0.27612201E+00 0.80756931E+03</pdfrwt>
<pdfrwt beam="2">  1       -2 0.91887222E-01 0.80756931E+03</pdfrwt>
<totfact> 0.89451588E+00</totfact>
</mgrwt>
</event>
<event>
 4    1  0.4880711E-008  0.2358723E+03  0.7818608E-02  0.1122574E+00
         -2   -1    0    0    0  501 -0.00000000000E+00  0.00000000000E+00  0.14039422743E+03  0.14039422745E+03  0.25500000000E-02 0.  1.
          2   -1    0    0  501    0  0.00000000000E+00 -0.00000000000E+00 -0.17957710532E+04  0.17957710532E+04  0.25500000000E-02 0. -1.
    8880022    1    1    2    0    0 -0.13187562939E+03  0.12187251963E+03 -0.16823056681E+04  0.16987607562E+04  0.15294330000E+03 0. -1.
    8880022    1    1    2    0    0  0.13187562939E+03 -0.12187251963E+03  0.26928842378E+02  0.23740452446E+03  0.15294330000E+03 0.  0.
<mgrwt>
<rscale>  0 0.23587231E+03</rscale>
<asrwt>0</asrwt>
<pdfrwt beam="1">  1        2 0.27627245E+00 0.23587231E+03</pdfrwt>
<pdfrwt beam="2">  1       -2 0.21599113E-01 0.23587231E+03</pdfrwt>
<totfact> 0.17789780E+02</totfact>
</mgrwt>
</event>
<event>
 4    1  0.4880711E-008  0.3628239E+03  0.7818608E-02  0.1057471E+00
         -2   -1    0    0    0  501 -0.00000000000E+00  0.00000000000E+00  0.24367296019E+03  0.24367296020E+03  0.25500000000E-02 0.  1.
          2   -1    0    0  501    0  0.00000000000E+00 -0.00000000000E+00 -0.12519599440E+04  0.12519599440E+04  0.25500000000E-02 0. -1.
    8880022    1    1    2    0    0 -0.29792256142E+03  0.13961246696E+03  0.59695732256E+02  0.36770195403E+03  0.15294330000E+03 0.  0.
    8880022    1    1    2    0    0  0.29792256142E+03 -0.13961246696E+03 -0.10679827160E+04  0.11279309501E+04  0.15294330000E+03 0.  0.
<mgrwt>
<rscale>  0 0.36282385E+03</rscale>
<asrwt>0</asrwt>
<pdfrwt beam="1">  1        2 0.19260922E+00 0.36282385E+03</pdfrwt>
<pdfrwt beam="2">  1       -2 0.37488148E-01 0.36282385E+03</pdfrwt>
<totfact> 0.12532196E+02</totfact>
</mgrwt>
</event>
<event>
 4    1  0.4880711E-008  0.4240615E+03  0.7818608E-02  0.1035753E+00
          2   -1    0    0  501    0  0.00000000000E+00  0.00000000000E+00  0.63576270786E+03  0.63576270787E+03  0.25500000000E-02 0. -1.
         -2   -1    0    0    0  501 -0.00000000000E+00 -0.00000000000E+00 -0.38155306045E+03  0.38155306046E+03  0.25500000000E-02 0.  1.
    8880022    1    1    2    0    0  0.31254619552E+03 -0.24238675149E+03 -0.13159998938E+03  0.44401201769E+03  0.15294330000E+03 0.  0.
    8880022    1    1    2    0    0 -0.31254619552E+03  0.24238675149E+03  0.38580963680E+03  0.57330375064E+03  0.15294330000E+03 0.  0.
<mgrwt>
<rscale>  0 0.42406145E+03</rscale>
<asrwt>0</asrwt>
<pdfrwt beam="1">  1        2 0.97809646E-01 0.42406145E+03</pdfrwt>
<pdfrwt beam="2">  1       -2 0.58700471E-01 0.42406145E+03</pdfrwt>
<totfact> 0.12965364E+02</totfact>
</mgrwt>
</event>
<event>
 4    1  0.4880711E-008  0.9920765E+03  0.7818608E-02  0.9317278E-01
          2   -1    0    0  501    0  0.00000000000E+00  0.00000000000E+00  0.10483124022E+04  0.10483124022E+04  0.25500000000E-02 0. -1.
         -2   -1    0    0    0  501 -0.00000000000E+00 -0.00000000000E+00 -0.10197531279E+04  0.10197531279E+04  0.25500000000E-02 0.  1.
    8880022    1    1    2    0    0 -0.11882980617E+03  0.97298690818E+03  0.30551893345E+03  0.10380546797E+04  0.15294330000E+03 0.  0.
    8880022    1    1    2    0    0  0.11882980617E+03 -0.97298690818E+03 -0.27695965914E+03  0.10300108505E+04  0.15294330000E+03 0.  0.
<mgrwt>
<rscale>  0 0.99207646E+03</rscale>
<asrwt>0</asrwt>
<pdfrwt beam="1">  1        2 0.16127883E+00 0.99207646E+03</pdfrwt>
<pdfrwt beam="2">  1       -2 0.15688510E+00 0.99207646E+03</pdfrwt>
<totfact> 0.61846224E+00</totfact>
</mgrwt>
</event>
<event>
 4    1  0.4880711E-008  0.1220979E+04  0.7818608E-02  0.9094689E-01
          2   -1    0    0  501    0  0.00000000000E+00  0.00000000000E+00  0.27353644786E+04  0.27353644786E+04  0.25500000000E-02 0. -1.
         -2   -1    0    0    0  501 -0.00000000000E+00 -0.00000000000E+00 -0.10220142149E+04  0.10220142149E+04  0.25500000000E-02 0.  1.
    8880022    1    1    2    0    0 -0.22405063512E+03 -0.11904618820E+04 -0.42680594623E+03  0.12934269010E+04  0.15294330000E+03 0.  0.
    8880022    1    1    2    0    0  0.22405063512E+03  0.11904618820E+04  0.21401562100E+04  0.24639517925E+04  0.15294330000E+03 0.  0.
<mgrwt>
<rscale>  0 0.12209790E+04</rscale>
<asrwt>0</asrwt>
<pdfrwt beam="1">  1        2 0.42082530E+00 0.12209790E+04</pdfrwt>
<pdfrwt beam="2">  1       -2 0.15723296E+00 0.12209790E+04</pdfrwt>
<totfact> 0.65298330E-01</totfact>
</mgrwt>
</event>
<event>
 4    1  0.4880711E-008  0.8756983E+03  0.7818608E-02  0.9456480E-01
         -2   -1    0    0    0  501 -0.00000000000E+00  0.00000000000E+00  0.85836309037E+03  0.85836309037E+03  0.25500000000E-02 0.  1.
          2   -1    0    0  501    0  0.00000000000E+00 -0.00000000000E+00 -0.21024697272E+04  0.21024697272E+04  0.25500000000E-02 0. -1.
    8880022    1    1    2    0    0 -0.44098924658E+03  0.74093473406E+03  0.50060512229E+03  0.10086887217E+04  0.15294330000E+03 0.  0.
    8880022    1    1    2    0    0  0.44098924658E+03 -0.74093473406E+03 -0.17447117591E+04  0.19521440959E+04  0.15294330000E+03 0.  0.
<mgrwt>
<rscale>  0 0.87569826E+03</rscale>
<asrwt>0</asrwt>
<pdfrwt beam="1">  1        2 0.32345688E+00 0.87569826E+03</pdfrwt>
<pdfrwt beam="2">  1       -2 0.13205586E+00 0.87569826E+03</pdfrwt>
<totfact> 0.24880573E+00</totfact>
</mgrwt>
</event>
<event>
 4    1  0.4880711E-008  0.2670028E+03  0.7818608E-02  0.1103007E+00
          2   -1    0    0  501    0  0.00000000000E+00  0.00000000000E+00  0.17828490458E+04  0.17828490458E+04  0.25500000000E-02 0. -1.
         -2   -1    0    0    0  501 -0.00000000000E+00 -0.00000000000E+00 -0.73561002791E+02  0.73561002836E+02  0.25500000000E-02 0.  1.
    8880022    1    1    2    0    0 -0.14366480750E+03 -0.16510377820E+03  0.14817237102E+04  0.15055881379E+04  0.15294330000E+03 0.  0.
    8880022    1    1    2    0    0  0.14366480750E+03  0.16510377820E+03  0.22756433277E+03  0.35082191073E+03  0.15294330000E+03 0.  0.
<mgrwt>
<rscale>  0 0.26700279E+03</rscale>
<asrwt>0</asrwt>
<pdfrwt beam="1">  1        2 0.27428446E+00 0.26700279E+03</pdfrwt>
<pdfrwt beam="2">  1       -2 0.11317078E-01 0.26700279E+03</pdfrwt>
<totfact> 0.52708857E+02</totfact>
</mgrwt>
</event>
<event>
 4    1  0.4880711E-008  0.2764780E+03  0.7818608E-02  0.1097628E+00
         -2   -1    0    0    0  501 -0.00000000000E+00  0.00000000000E+00  0.67606543088E+02  0.67606543136E+02  0.25500000000E-02 0.  1.
          2   -1    0    0  501    0  0.00000000000E+00 -0.00000000000E+00 -0.21964912904E+04  0.21964912904E+04  0.25500000000E-02 0. -1.
    8880022    1    1    2    0    0  0.19282553490E+03  0.12596334921E+03 -0.18530199233E+04  0.18735322099E+04  0.15294330000E+03 0.  0.
    8880022    1    1    2    0    0 -0.19282553490E+03 -0.12596334921E+03 -0.27586482403E+03  0.39056562368E+03  0.15294330000E+03 0.  0.
<mgrwt>
<rscale>  0 0.27647804E+03</rscale>
<asrwt>0</asrwt>
<pdfrwt beam="1">  1        2 0.33792168E+00 0.27647804E+03</pdfrwt>
<pdfrwt beam="2">  1       -2 0.10401008E-01 0.27647804E+03</pdfrwt>
<totfact> 0.36470365E+02</totfact>
</mgrwt>
</event>
<event>
 4    1  0.4880711E-008  0.6510222E+03  0.7818608E-02  0.9804863E-01
         -2   -1    0    0    0  501 -0.00000000000E+00  0.00000000000E+00  0.13198741021E+03  0.13198741024E+03  0.25500000000E-02 0.  1.
          2   -1    0    0  501    0  0.00000000000E+00 -0.00000000000E+00 -0.45152045965E+04  0.45152045965E+04  0.25500000000E-02 0. -1.
    8880022    1    1    2    0    0 -0.82812168355E+02 -0.62735983002E+03 -0.94286954287E+03  0.11457891776E+04  0.15294330000E+03 0.  0.
    8880022    1    1    2    0    0  0.82812168355E+02  0.62735983002E+03 -0.34403476435E+04  0.35014028292E+04  0.15294330000E+03 0.  0.
<mgrwt>
<rscale>  0 0.65102217E+03</rscale>
<asrwt>0</asrwt>
<pdfrwt beam="1">  1        2 0.69464674E+00 0.65102217E+03</pdfrwt>
<pdfrwt beam="2">  1       -2 0.20305759E-01 0.65102217E+03</pdfrwt>
<totfact> 0.28755468E+00</totfact>
</mgrwt>
</event>
<event>
 4    1  0.4880711E-008  0.5863454E+03  0.7818608E-02  0.9934147E-01
          2   -1    0    0  501    0  0.00000000000E+00  0.00000000000E+00  0.50181796869E+04  0.50181796869E+04  0.25500000000E-02 0. -1.
         -2   -1    0    0    0  501 -0.00000000000E+00 -0.00000000000E+00 -0.15359008451E+03  0.15359008453E+03  0.25500000000E-02 0.  1.
    8880022    1    1    2    0    0  0.34715446119E+02  0.56498146541E+03  0.43568874273E+04  0.43961652523E+04  0.15294330000E+03 0.  0.
    8880022    1    1    2    0    0 -0.34715446119E+02 -0.56498146541E+03  0.50770217506E+03  0.77560451909E+03  0.15294330000E+03 0.  0.
<mgrwt>
<rscale>  0 0.58634535E+03</rscale>
<asrwt>0</asrwt>
<pdfrwt beam="1">  1        2 0.77202772E+00 0.58634535E+03</pdfrwt>
<pdfrwt beam="2">  1       -2 0.23629241E-01 0.58634535E+03</pdfrwt>
<totfact> 0.64085599E-01</totfact>
</mgrwt>
</event>
<event>
 4    1  0.4880711E-008  0.4715407E+03  0.7818608E-02  0.1021486E+00
          2   -1    0    0  501    0  0.00000000000E+00  0.00000000000E+00  0.76068956171E+03  0.76068956172E+03  0.25500000000E-02 0. -1.
         -2   -1    0    0    0  501 -0.00000000000E+00 -0.00000000000E+00 -0.91248078754E+03  0.91248078755E+03  0.25500000000E-02 0.  1.
    8880022    1    1    2    0    0  0.31252515341E+03 -0.31825612700E+03  0.61379923286E+03  0.77401555873E+03  0.15294330000E+03 0.  0.
    8880022    1    1    2    0    0 -0.31252515341E+03  0.31825612700E+03 -0.76559045869E+03  0.89915479053E+03  0.15294330000E+03 0.  0.
<mgrwt>
<rscale>  0 0.47154065E+03</rscale>
<asrwt>0</asrwt>
<pdfrwt beam="1">  1        2 0.11702916E+00 0.47154065E+03</pdfrwt>
<pdfrwt beam="2">  1       -2 0.14038166E+00 0.47154065E+03</pdfrwt>
<totfact> 0.13825868E+01</totfact>
</mgrwt>
</event>
<event>
 4    1  0.4880711E-008  0.9294163E+03  0.7818608E-02  0.9389539E-01
          2   -1    0    0  501    0  0.00000000000E+00  0.00000000000E+00  0.22785473905E+04  0.22785473906E+04  0.25500000000E-02 0. -1.
         -2   -1    0    0    0  501 -0.00000000000E+00 -0.00000000000E+00 -0.54260304481E+03  0.54260304481E+03  0.25500000000E-02 0.  1.
    8880022    1    1    2    0    0  0.81299058253E+03  0.42363823738E+03  0.93674546954E+02  0.93412505438E+03  0.15294330000E+03 0.  0.
    8880022    1    1    2    0    0 -0.81299058253E+03 -0.42363823738E+03  0.16422697988E+04  0.18870253810E+04  0.15294330000E+03 0.  0.
<mgrwt>
<rscale>  0 0.92941632E+03</rscale>
<asrwt>0</asrwt>
<pdfrwt beam="1">  1        2 0.35054575E+00 0.92941632E+03</pdfrwt>
<pdfrwt beam="2">  1       -2 0.83477392E-01 0.92941632E+03</pdfrwt>
<totfact> 0.59432180E+00</totfact>
</mgrwt>
</event>
<event>
 4    1  0.4880711E-008  0.6821323E+03  0.7818608E-02  0.9748286E-01
         -2   -1    0    0    0  501 -0.00000000000E+00  0.00000000000E+00  0.34808786920E+03  0.34808786921E+03  0.25500000000E-02 0.  1.
          2   -1    0    0  501    0  0.00000000000E+00 -0.00000000000E+00 -0.25503152061E+04  0.25503152061E+04  0.25500000000E-02 0. -1.
    8880022    1    1    2    0    0 -0.49705492384E+03  0.44141734104E+03 -0.21008015128E+04  0.22087714947E+04  0.15294330000E+03 0.  0.
    8880022    1    1    2    0    0  0.49705492384E+03 -0.44141734104E+03 -0.10142582411E+03  0.68963158070E+03  0.15294330000E+03 0.  0.
<mgrwt>
<rscale>  0 0.68213233E+03</rscale>
<asrwt>0</asrwt>
<pdfrwt beam="1">  1        2 0.39235617E+00 0.68213233E+03</pdfrwt>
<pdfrwt beam="2">  1       -2 0.53551982E-01 0.68213233E+03</pdfrwt>
<totfact> 0.11356962E+01</totfact>
</mgrwt>
</event>
<event>
 4    1  0.4880711E-008  0.2479811E+03  0.7818608E-02  0.1114587E+00
         -2   -1    0    0    0  501 -0.00000000000E+00  0.00000000000E+00  0.41966132616E+03  0.41966132616E+03  0.25500000000E-02 0.  1.
          2   -1    0    0  501    0  0.00000000000E+00 -0.00000000000E+00 -0.34510828247E+03  0.34510828248E+03  0.25500000000E-02 0. -1.
    8880022    1    1    2    0    0 -0.12652363060E+03  0.14864307661E+03  0.32733425727E+03  0.41066088483E+03  0.15294330000E+03 0.  0.
    8880022    1    1    2    0    0  0.12652363060E+03 -0.14864307661E+03 -0.25278121359E+03  0.35410872382E+03  0.15294330000E+03 0.  0.
<mgrwt>
<rscale>  0 0.24798114E+03</rscale>
<asrwt>0</asrwt>
<pdfrwt beam="1">  1        2 0.53093582E-01 0.24798114E+03</pdfrwt>
<pdfrwt beam="2">  1       -2 0.64563281E-01 0.24798114E+03</pdfrwt>
<totfact> 0.21472117E+02</totfact>
</mgrwt>
</event>
<event>
 4    1  0.4880711E-008  0.7821837E+03  0.7818608E-02  0.9586170E-01
         -2   -1    0    0    0  501 -0.00000000000E+00  0.00000000000E+00  0.12213245486E+04  0.12213245486E+04  0.25500000000E-02 0.  1.
          2   -1    0    0  501    0  0.00000000000E+00 -0.00000000000E+00 -0.96661343414E+03  0.96661343414E+03  0.25500000000E-02 0. -1.
    8880022    1    1    2    0    0 -0.54843655610E+03 -0.53631805980E+03 -0.63195410947E+03  0.10055731534E+04  0.15294330000E+03 0.  0.
    8880022    1    1    2    0    0  0.54843655610E+03  0.53631805980E+03  0.88666522392E+03  0.11823648293E+04  0.15294330000E+03 0.  0.
<mgrwt>
<rscale>  0 0.78218372E+03</rscale>
<asrwt>0</asrwt>
<pdfrwt beam="1">  1        2 0.14870976E+00 0.78218372E+03</pdfrwt>
<pdfrwt beam="2">  1       -2 0.18789608E+00 0.78218372E+03</pdfrwt>
<totfact> 0.43141178E+00</totfact>
</mgrwt>
</event>
<event>
 4    1  0.4880711E-008  0.6654687E+03  0.7818608E-02  0.9778179E-01
          2   -1    0    0  501    0  0.00000000000E+00  0.00000000000E+00  0.52727017578E+03  0.52727017579E+03  0.25500000000E-02 0. -1.
         -2   -1    0    0    0  501 -0.00000000000E+00 -0.00000000000E+00 -0.12581322829E+04  0.12581322829E+04  0.25500000000E-02 0.  1.
    8880022    1    1    2    0    0  0.55812827410E+03 -0.32855710116E+03 -0.88013476323E+03  0.11033973870E+04  0.15294330000E+03 0.  0.
    8880022    1    1    2    0    0 -0.55812827410E+03  0.32855710116E+03  0.14927265606E+03  0.68200507179E+03  0.15294330000E+03 0.  0.
<mgrwt>
<rscale>  0 0.66546870E+03</rscale>
<asrwt>0</asrwt>
<pdfrwt beam="1">  1        2 0.81118489E-01 0.66546870E+03</pdfrwt>
<pdfrwt beam="2">  1       -2 0.19355881E+00 0.66546870E+03</pdfrwt>
<totfact> 0.87345837E+00</totfact>
</mgrwt>
</event>
<event>
 4    1  0.4880711E-008  0.3855140E+03  0.7818608E-02  0.1048914E+00
          2   -1    0    0  501    0  0.00000000000E+00  0.00000000000E+00  0.53020821820E+03  0.53020821820E+03  0.25500000000E-02 0. -1.
         -2   -1    0    0    0  501 -0.00000000000E+00 -0.00000000000E+00 -0.14043242877E+04  0.14043242877E+04  0.25500000000E-02 0.  1.
    8880022    1    1    2    0    0 -0.27149796315E+03 -0.22697632131E+03  0.42830599256E+03  0.57625261015E+03  0.15294330000E+03 0.  0.
    8880022    1    1    2    0    0  0.27149796315E+03  0.22697632131E+03 -0.13024220621E+04  0.13582798957E+04  0.15294330000E+03 0.  1.
<mgrwt>
<rscale>  0 0.38551400E+03</rscale>
<asrwt>0</asrwt>
<pdfrwt beam="1">  1        2 0.81570495E-01 0.38551400E+03</pdfrwt>
<pdfrwt beam="2">  1       -2 0.21604989E+00 0.38551400E+03</pdfrwt>
<totfact> 0.65396583E+00</totfact>
</mgrwt>
</event>
<event>
 4    1  0.4880711E-008  0.7793969E+03  0.7818608E-02  0.9590328E-01
          2   -1    0    0  501    0  0.00000000000E+00  0.00000000000E+00  0.18929297907E+04  0.18929297907E+04  0.25500000000E-02 0. -1.
         -2   -1    0    0    0  501 -0.00000000000E+00 -0.00000000000E+00 -0.88448772697E+03  0.88448772697E+03  0.25500000000E-02 0.  1.
    8880022    1    1    2    0    0 -0.43098506050E+03  0.63112579568E+03 -0.60429580138E+03  0.98622155773E+03  0.15294330000E+03 0.  0.
    8880022    1    1    2    0    0  0.43098506050E+03 -0.63112579568E+03  0.16127378651E+04  0.17911959600E+04  0.15294330000E+03 0.  0.
<mgrwt>
<rscale>  0 0.77939691E+03</rscale>
<asrwt>0</asrwt>
<pdfrwt beam="1">  1        2 0.29121996E+00 0.77939691E+03</pdfrwt>
<pdfrwt beam="2">  1       -2 0.13607504E+00 0.77939691E+03</pdfrwt>
<totfact> 0.30489225E+00</totfact>
</mgrwt>
</event>
<event>
 4    1  0.4880711E-008  0.2541544E+03  0.7818608E-02  0.1110707E+00
          2   -1    0    0  501    0  0.00000000000E+00  0.00000000000E+00  0.26318814497E+04  0.26318814497E+04  0.25500000000E-02 0. -1.
         -2   -1    0    0    0  501 -0.00000000000E+00 -0.00000000000E+00 -0.31071077339E+02  0.31071077444E+02  0.25500000000E-02 0.  1.
    8880022    1    1    2    0    0  0.34043598403E+02  0.20010956260E+03  0.69010217155E+03  0.73541516426E+03  0.15294330000E+03 0.  0.
    8880022    1    1    2    0    0 -0.34043598403E+02 -0.20010956260E+03  0.19107082008E+04  0.19275373629E+04  0.15294330000E+03 0.  0.
<mgrwt>
<rscale>  0 0.25415440E+03</rscale>
<asrwt>0</asrwt>
<pdfrwt beam="1">  1        2 0.40490504E+00 0.25415440E+03</pdfrwt>
<pdfrwt beam="2">  1       -2 0.47801634E-02 0.25415440E+03</pdfrwt>
<totfact> 0.71345289E+02</totfact>
</mgrwt>
</event>
<event>
 4    1  0.4880711E-008  0.5722367E+03  0.7818608E-02  0.9964741E-01
         -2   -1    0    0    0  501 -0.00000000000E+00  0.00000000000E+00  0.59067736429E+03  0.59067736429E+03  0.25500000000E-02 0.  1.
          2   -1    0    0  501    0  0.00000000000E+00 -0.00000000000E+00 -0.74314541245E+03  0.74314541245E+03  0.25500000000E-02 0. -1.
    8880022    1    1    2    0    0  0.44319776613E+03 -0.32808367003E+03  0.25989189700E+03  0.62848914516E+03  0.15294330000E+03 0.  0.
    8880022    1    1    2    0    0 -0.44319776613E+03  0.32808367003E+03 -0.41235994517E+03  0.70533363158E+03  0.15294330000E+03 0.  0.
<mgrwt>
<rscale>  0 0.57223667E+03</rscale>
<asrwt>0</asrwt>
<pdfrwt beam="1">  1        2 0.11433006E+00 0.57223667E+03</pdfrwt>
<pdfrwt beam="2">  1       -2 0.90873441E-01 0.57223667E+03</pdfrwt>
<totfact> 0.40407208E+01</totfact>
</mgrwt>
</event>
<event>
 4    1  0.5920479E-008  0.4286608E+03  0.7818608E-02  0.1034284E+00
         -2   -1    0    0    0  501 -0.00000000000E+00  0.00000000000E+00  0.10889470343E+04  0.10889470343E+04  0.25500000000E-02 0.  1.
          2   -1    0    0  501    0  0.00000000000E+00 -0.00000000000E+00 -0.20807974336E+04  0.20807974336E+04  0.25500000000E-02 0. -1.
    8880022    1    1    2    0    0  0.13086775438E+03  0.37846007915E+03  0.10233264052E+04  0.11094805024E+04  0.15294330000E+03 0.  0.
    8880022    1    1    2    0    0 -0.13086775438E+03 -0.37846007915E+03 -0.20151768045E+04  0.20602639654E+04  0.15294330000E+03 0.  0.
<mgrwt>
<rscale>  0 0.42866077E+03</rscale>
<asrwt>0</asrwt>
<pdfrwt beam="1">  1        2 0.32012268E+00 0.42866077E+03</pdfrwt>
<pdfrwt beam="2">  1       -2 0.16753031E+00 0.42866077E+03</pdfrwt>
<totfact> 0.15147156E+00</totfact>
</mgrwt>
</event>
<event>
 4    1  0.6829823E-008  0.5807828E+03  0.7818608E-02  0.9946098E-01
         -2   -1    0    0    0  501 -0.00000000000E+00  0.00000000000E+00  0.12665339192E+04  0.12665339193E+04  0.25500000000E-02 0.  1.
          2   -1    0    0  501    0  0.00000000000E+00 -0.00000000000E+00 -0.17962650191E+04  0.17962650191E+04  0.25500000000E-02 0. -1.
    8880022    1    1    2    0    0  0.32761845544E+03 -0.45451420294E+03  0.11484547543E+04  0.12869564828E+04  0.15294330000E+03 0.  0.
    8880022    1    1    2    0    0 -0.32761845544E+03  0.45451420294E+03 -0.16781858541E+04  0.17758424556E+04  0.15294330000E+03 0.  0.
<mgrwt>
<rscale>  0 0.58078280E+03</rscale>
<asrwt>0</asrwt>
<pdfrwt beam="1">  1        2 0.27634846E+00 0.58078280E+03</pdfrwt>
<pdfrwt beam="2">  1       -2 0.19485137E+00 0.58078280E+03</pdfrwt>
<totfact> 0.13437941E+00</totfact>
</mgrwt>
</event>
<event>
 4    1  0.4880711E-008  0.2350021E+03  0.7818608E-02  0.1123168E+00
         -2   -1    0    0    0  501 -0.00000000000E+00  0.00000000000E+00  0.23822282562E+03  0.23822282564E+03  0.25500000000E-02 0.  1.
          2   -1    0    0  501    0  0.00000000000E+00 -0.00000000000E+00 -0.39563498733E+03  0.39563498734E+03  0.25500000000E-02 0. -1.
    8880022    1    1    2    0    0 -0.17518267237E+03 -0.33843292837E+02 -0.28263780278E+03  0.36757328214E+03  0.15294330000E+03 0.  0.
    8880022    1    1    2    0    0  0.17518267237E+03  0.33843292837E+02  0.12522564107E+03  0.26628453084E+03  0.15294330000E+03 0.  0.
<mgrwt>
<rscale>  0 0.23500211E+03</rscale>
<asrwt>0</asrwt>
<pdfrwt beam="1">  1        2 0.60866921E-01 0.23500211E+03</pdfrwt>
<pdfrwt beam="2">  1       -2 0.36649666E-01 0.23500211E+03</pdfrwt>
<totfact> 0.57160602E+02</totfact>
</mgrwt>
</event>
<event>
 4    1  0.4880711E-008  0.6004049E+03  0.7818608E-02  0.9904566E-01
         -2   -1    0    0    0  501 -0.00000000000E+00  0.00000000000E+00  0.72625772649E+03  0.72625772650E+03  0.25500000000E-02 0.  1.
          2   -1    0    0  501    0  0.00000000000E+00 -0.00000000000E+00 -0.88006453690E+03  0.88006453691E+03  0.25500000000E-02 0. -1.
    8880022    1    1    2    0    0 -0.57348896715E+03  0.90580109286E+02  0.45342309474E+03  0.75238188940E+03  0.15294330000E+03 0.  0.
    8880022    1    1    2    0    0  0.57348896715E+03 -0.90580109286E+02 -0.60722990515E+03  0.85394037401E+03  0.15294330000E+03 0.  0.
<mgrwt>
<rscale>  0 0.60040487E+03</rscale>
<asrwt>0</asrwt>
<pdfrwt beam="1">  1        2 0.13539454E+00 0.60040487E+03</pdfrwt>
<pdfrwt beam="2">  1       -2 0.11173196E+00 0.60040487E+03</pdfrwt>
<totfact> 0.19760792E+01</totfact>
</mgrwt>
</event>
<event>
 4    1  0.4880711E-008  0.1281025E+04  0.7818608E-02  0.9044749E-01
         -2   -1    0    0    0  501 -0.00000000000E+00  0.00000000000E+00  0.22311444725E+04  0.22311444726E+04  0.25500000000E-02 0.  1.
          2   -1    0    0  501    0  0.00000000000E+00 -0.00000000000E+00 -0.14601713012E+04  0.14601713012E+04  0.25500000000E-02 0. -1.
    8880022    1    1    2    0    0  0.40727604429E+03  0.12048901094E+04  0.16857079533E+04  0.21172238684E+04  0.15294330000E+03 0.  0.
    8880022    1    1    2    0    0 -0.40727604429E+03 -0.12048901094E+04 -0.91473478198E+03  0.15740919053E+04  0.15294330000E+03 0.  0.
<mgrwt>
<rscale>  0 0.12810252E+04</rscale>
<asrwt>0</asrwt>
<pdfrwt beam="1">  1        2 0.22464174E+00 0.12810252E+04</pdfrwt>
<pdfrwt beam="2">  1       -2 0.34325300E+00 0.12810252E+04</pdfrwt>
<totfact> 0.22216342E-01</totfact>
</mgrwt>
</event>
<event>
 4    1  0.4880711E-008  0.1049480E+04  0.7818608E-02  0.9255881E-01
          2   -1    0    0  501    0  0.00000000000E+00  0.00000000000E+00  0.33766645426E+04  0.33766645426E+04  0.25500000000E-02 0. -1.
         -2   -1    0    0    0  501 -0.00000000000E+00 -0.00000000000E+00 -0.55202912418E+03  0.55202912419E+03  0.25500000000E-02 0.  1.
    8880022    1    1    2    0    0 -0.78226075536E+03  0.68270401242E+03  0.26687646114E+04  0.28677016690E+04  0.15294330000E+03 0.  0.
    8880022    1    1    2    0    0  0.78226075536E+03 -0.68270401242E+03  0.15587080699E+03  0.10609919978E+04  0.15294330000E+03 0.  0.
<mgrwt>
<rscale>  0 0.10494800E+04</rscale>
<asrwt>0</asrwt>
<pdfrwt beam="1">  1        2 0.51948686E+00 0.10494800E+04</pdfrwt>
<pdfrwt beam="2">  1       -2 0.84927557E-01 0.10494800E+04</pdfrwt>
<totfact> 0.12208858E+00</totfact>
</mgrwt>
</event>
<event>
 4    1  0.4880711E-008  0.9422787E+03  0.7818608E-02  0.9374221E-01
          2   -1    0    0  501    0  0.00000000000E+00  0.00000000000E+00  0.14597782266E+04  0.14597782266E+04  0.25500000000E-02 0. -1.
         -2   -1    0    0    0  501 -0.00000000000E+00 -0.00000000000E+00 -0.64378060912E+03  0.64378060913E+03  0.25500000000E-02 0.  1.
    8880022    1    1    2    0    0 -0.52907620259E+03  0.76457555450E+03  0.65514000549E+03  0.11476486773E+04  0.15294330000E+03 0.  0.
    8880022    1    1    2    0    0  0.52907620259E+03 -0.76457555450E+03  0.16085761201E+03  0.95591015846E+03  0.15294330000E+03 0.  0.
<mgrwt>
<rscale>  0 0.94227865E+03</rscale>
<asrwt>0</asrwt>
<pdfrwt beam="1">  1        2 0.22458126E+00 0.94227865E+03</pdfrwt>
<pdfrwt beam="2">  1       -2 0.99043171E-01 0.94227865E+03</pdfrwt>
<totfact> 0.11316986E+01</totfact>
</mgrwt>
</event>
<event>
 4    1  0.4880711E-008  0.7795586E+03  0.7818608E-02  0.9590086E-01
         -2   -1    0    0    0  501 -0.00000000000E+00  0.00000000000E+00  0.53078427855E+03  0.53078427855E+03  0.25500000000E-02 0.  1.
          2   -1    0    0  501    0  0.00000000000E+00 -0.00000000000E+00 -0.14667379382E+04  0.14667379382E+04  0.25500000000E-02 0. -1.
    8880022    1    1    2    0    0  0.75297798206E+03  0.13169697419E+03 -0.15251389720E+00  0.77955859995E+03  0.15294330000E+03 0.  0.
    8880022    1    1    2    0    0 -0.75297798206E+03 -0.13169697419E+03 -0.93580114578E+03  0.12179636168E+04  0.15294330000E+03 0.  0.
<mgrwt>
<rscale>  0 0.77955859E+03</rscale>
<asrwt>0</asrwt>
<pdfrwt beam="1">  1        2 0.22565199E+00 0.77955859E+03</pdfrwt>
<pdfrwt beam="2">  1       -2 0.81659120E-01 0.77955859E+03</pdfrwt>
<totfact> 0.17842792E+01</totfact>
</mgrwt>
</event>
<event>
 4    1  0.4880711E-008  0.3827024E+03  0.7818608E-02  0.1049939E+00
          2   -1    0    0  501    0  0.00000000000E+00  0.00000000000E+00  0.61130911355E+03  0.61130911355E+03  0.25500000000E-02 0. -1.
         -2   -1    0    0    0  501 -0.00000000000E+00 -0.00000000000E+00 -0.10927101651E+04  0.10927101651E+04  0.25500000000E-02 0.  1.
    8880022    1    1    2    0    0  0.34831886529E+03  0.41754829535E+02  0.51213155843E+03  0.63932768113E+03  0.15294330000E+03 0.  0.
    8880022    1    1    2    0    0 -0.34831886529E+03 -0.41754829535E+02 -0.99353260996E+03  0.10646915975E+04  0.15294330000E+03 0.  0.
<mgrwt>
<rscale>  0 0.38270243E+03</rscale>
<asrwt>0</asrwt>
<pdfrwt beam="1">  1        2 0.94047556E-01 0.38270243E+03</pdfrwt>
<pdfrwt beam="2">  1       -2 0.16810926E+00 0.38270243E+03</pdfrwt>
<totfact> 0.11427101E+01</totfact>
</mgrwt>
</event>
<event>
 4    1  0.4880711E-008  0.3701236E+03  0.7818608E-02  0.1054646E+00
          2   -1    0    0  501    0  0.00000000000E+00  0.00000000000E+00  0.19563015462E+03  0.19563015464E+03  0.25500000000E-02 0. -1.
         -2   -1    0    0    0  501 -0.00000000000E+00 -0.00000000000E+00 -0.11297960718E+04  0.11297960718E+04  0.25500000000E-02 0.  1.
    8880022    1    1    2    0    0 -0.19525771531E+02 -0.33647965286E+03 -0.58456330998E+02  0.37471136651E+03  0.15294330000E+03 0.  0.
    8880022    1    1    2    0    0  0.19525771531E+02  0.33647965286E+03 -0.87570958622E+03  0.95071485996E+03  0.15294330000E+03 0.  0.
<mgrwt>
<rscale>  0 0.37012358E+03</rscale>
<asrwt>0</asrwt>
<pdfrwt beam="1">  1        2 0.30096948E-01 0.37012358E+03</pdfrwt>
<pdfrwt beam="2">  1       -2 0.17381478E+00 0.37012358E+03</pdfrwt>
<totfact> 0.37176994E+01</totfact>
</mgrwt>
</event>
<event>
 4    1  0.4880711E-008  0.3539247E+03  0.7818608E-02  0.1061016E+00
         -2   -1    0    0    0  501 -0.00000000000E+00  0.00000000000E+00  0.11178525961E+04  0.11178525961E+04  0.25500000000E-02 0.  1.
          2   -1    0    0  501    0  0.00000000000E+00 -0.00000000000E+00 -0.26182415698E+03  0.26182415699E+03  0.25500000000E-02 0. -1.
    8880022    1    1    2    0    0 -0.96910866200E+02  0.30410408113E+03  0.94975105144E+03  0.10135530183E+04  0.15294330000E+03 0.  0.
    8880022    1    1    2    0    0  0.96910866200E+02 -0.30410408113E+03 -0.93722612289E+02  0.36612373485E+03  0.15294330000E+03 0.  0.
<mgrwt>
<rscale>  0 0.35392465E+03</rscale>
<asrwt>0</asrwt>
<pdfrwt beam="1">  1        2 0.40280639E-01 0.35392465E+03</pdfrwt>
<pdfrwt beam="2">  1       -2 0.17197732E+00 0.35392465E+03</pdfrwt>
<totfact> 0.27821269E+01</totfact>
</mgrwt>
</event>
<event>
 4    1  0.4880711E-008  0.3059922E+03  0.7818608E-02  0.1082283E+00
         -2   -1    0    0    0  501 -0.00000000000E+00  0.00000000000E+00  0.12929584166E+03  0.12929584168E+03  0.25500000000E-02 0.  1.
          2   -1    0    0  501    0  0.00000000000E+00 -0.00000000000E+00 -0.22243744311E+04  0.22243744311E+04  0.25500000000E-02 0. -1.
    8880022    1    1    2    0    0 -0.11919921756E+03  0.23670890637E+03 -0.20140083928E+04  0.20371207670E+04  0.15294330000E+03 0. -1.
    8880022    1    1    2    0    0  0.11919921756E+03 -0.23670890637E+03 -0.81070196586E+02  0.31654950578E+03  0.15294330000E+03 0.  0.
<mgrwt>
<rscale>  0 0.30599218E+03</rscale>
<asrwt>0</asrwt>
<pdfrwt beam="1">  1        2 0.34221142E+00 0.30599218E+03</pdfrwt>
<pdfrwt beam="2">  1       -2 0.19891670E-01 0.30599218E+03</pdfrwt>
<totfact> 0.11954733E+02</totfact>
</mgrwt>
</event>
<event>
 4    1  0.4880711E-008  0.9055635E+03  0.7818608E-02  0.9418653E-01
         -2   -1    0    0    0  501 -0.00000000000E+00  0.00000000000E+00  0.10664696344E+04  0.10664696344E+04  0.25500000000E-02 0.  1.
          2   -1    0    0  501    0  0.00000000000E+00 -0.00000000000E+00 -0.18808548060E+04  0.18808548060E+04  0.25500000000E-02 0. -1.
    8880022    1    1    2    0    0 -0.33465454876E+03  0.82744182682E+03 -0.15402636389E+04  0.17867449102E+04  0.15294330000E+03 0.  0.
    8880022    1    1    2    0    0  0.33465454876E+03 -0.82744182682E+03  0.72587846732E+03  0.11605795303E+04  0.15294330000E+03 0.  0.
<mgrwt>
<rscale>  0 0.90556352E+03</rscale>
<asrwt>0</asrwt>
<pdfrwt beam="1">  1        2 0.28936228E+00 0.90556352E+03</pdfrwt>
<pdfrwt beam="2">  1       -2 0.16407225E+00 0.90556352E+03</pdfrwt>
<totfact> 0.18474543E+00</totfact>
</mgrwt>
</event>
<event>
 4    1  0.4880711E-008  0.6047986E+03  0.7818608E-02  0.9895500E-01
         -2   -1    0    0    0  501 -0.00000000000E+00  0.00000000000E+00  0.26211521409E+03  0.26211521410E+03  0.25500000000E-02 0.  1.
          2   -1    0    0  501    0  0.00000000000E+00 -0.00000000000E+00 -0.17355225820E+04  0.17355225820E+04  0.25500000000E-02 0. -1.
    8880022    1    1    2    0    0  0.50265681742E+03 -0.29954264458E+03 -0.29459748094E+03  0.67273248830E+03  0.15294330000E+03 0.  0.
    8880022    1    1    2    0    0 -0.50265681742E+03  0.29954264458E+03 -0.11788098870E+04  0.13249053078E+04  0.15294330000E+03 0.  0.
<mgrwt>
<rscale>  0 0.60479858E+03</rscale>
<asrwt>0</asrwt>
<pdfrwt beam="1">  1        2 0.26700347E+00 0.60479858E+03</pdfrwt>
<pdfrwt beam="2">  1       -2 0.40325419E-01 0.60479858E+03</pdfrwt>
<totfact> 0.56897155E+01</totfact>
</mgrwt>
</event>
<event>
 4    1  0.4880711E-008  0.1137548E+04  0.7818608E-02  0.9169348E-01
          2   -1    0    0  501    0  0.00000000000E+00  0.00000000000E+00  0.23268673324E+04  0.23268673324E+04  0.25500000000E-02 0. -1.
         -2   -1    0    0    0  501 -0.00000000000E+00 -0.00000000000E+00 -0.11670539988E+04  0.11670539988E+04  0.25500000000E-02 0.  1.
    8880022    1    1    2    0    0  0.28462864045E+03  0.10906928057E+04 -0.68405829430E+03  0.13273852728E+04  0.15294330000E+03 0.  0.
    8880022    1    1    2    0    0 -0.28462864045E+03 -0.10906928057E+04  0.18438716279E+04  0.21665360584E+04  0.15294330000E+03 0.  0.
<mgrwt>
<rscale>  0 0.11375482E+04</rscale>
<asrwt>0</asrwt>
<pdfrwt beam="1">  1        2 0.35797959E+00 0.11375482E+04</pdfrwt>
<pdfrwt beam="2">  1       -2 0.17954677E+00 0.11375482E+04</pdfrwt>
<totfact> 0.78544021E-01</totfact>
</mgrwt>
</event>
<event>
 4    1  0.4880711E-008  0.2122232E+03  0.7818608E-02  0.1139817E+00
         -2   -1    0    0    0  501 -0.00000000000E+00  0.00000000000E+00  0.62040050316E+03  0.62040050316E+03  0.25500000000E-02 0.  1.
          2   -1    0    0  501    0  0.00000000000E+00 -0.00000000000E+00 -0.10390767188E+04  0.10390767188E+04  0.25500000000E-02 0. -1.
    8880022    1    1    2    0    0  0.12220990405E+02 -0.14662091978E+03  0.59089046110E+03  0.62784571095E+03  0.15294330000E+03 0.  0.
    8880022    1    1    2    0    0 -0.12220990405E+02  0.14662091978E+03 -0.10095666767E+04  0.10316315110E+04  0.15294330000E+03 0. -1.
<mgrwt>
<rscale>  0 0.21222323E+03</rscale>
<asrwt>0</asrwt>
<pdfrwt beam="1">  1        2 0.15985796E+00 0.21222323E+03</pdfrwt>
<pdfrwt beam="2">  1       -2 0.95446231E-01 0.21222323E+03</pdfrwt>
<totfact> 0.24614268E+01</totfact>
</mgrwt>
</event>
<event>
 4    1  0.4880711E-008  0.3468453E+03  0.7818608E-02  0.1063917E+00
          2   -1    0    0  501    0  0.00000000000E+00  0.00000000000E+00  0.12765382749E+04  0.12765382749E+04  0.25500000000E-02 0. -1.
         -2   -1    0    0    0  501 -0.00000000000E+00 -0.00000000000E+00 -0.58709785409E+03  0.58709785410E+03  0.25500000000E-02 0.  1.
    8880022    1    1    2    0    0  0.46024370575E+02  0.30788269061E+03  0.11984815506E+04  0.12476616825E+04  0.15294330000E+03 0. -1.
    8880022    1    1    2    0    0 -0.46024370575E+02 -0.30788269061E+03 -0.50904112981E+03  0.61597444648E+03  0.15294330000E+03 0.  0.
<mgrwt>
<rscale>  0 0.34684528E+03</rscale>
<asrwt>0</asrwt>
<pdfrwt beam="1">  1        2 0.19639050E+00 0.34684528E+03</pdfrwt>
<pdfrwt beam="2">  1       -2 0.90322747E-01 0.34684528E+03</pdfrwt>
<totfact> 0.19529659E+01</totfact>
</mgrwt>
</event>
<event>
 4    1  0.4880711E-008  0.1284526E+04  0.7818608E-02  0.9041927E-01
         -2   -1    0    0    0  501 -0.00000000000E+00  0.00000000000E+00  0.64013525750E+03  0.64013525751E+03  0.25500000000E-02 0.  1.
          2   -1    0    0  501    0  0.00000000000E+00 -0.00000000000E+00 -0.36673167026E+04  0.36673167026E+04  0.25500000000E-02 0. -1.
    8880022    1    1    2    0    0  0.42618693275E+03  0.12020732971E+04 -0.33957274750E+03  0.13286522559E+04  0.15294330000E+03 0.  0.
    8880022    1    1    2    0    0 -0.42618693275E+03 -0.12020732971E+04 -0.26876086976E+04  0.29787997042E+04  0.15294330000E+03 0.  0.
<mgrwt>
<rscale>  0 0.12845260E+04</rscale>
<asrwt>0</asrwt>
<pdfrwt beam="1">  1        2 0.56420256E+00 0.12845260E+04</pdfrwt>
<pdfrwt beam="2">  1       -2 0.98482349E-01 0.12845260E+04</pdfrwt>
<totfact> 0.52423807E-01</totfact>
</mgrwt>
</event>
<event>
 4    1  0.4880711E-008  0.6283340E+03  0.7818608E-02  0.9848305E-01
          2   -1    0    0  501    0  0.00000000000E+00  0.00000000000E+00  0.55388179083E+03  0.55388179084E+03  0.25500000000E-02 0. -1.
         -2   -1    0    0    0  501 -0.00000000000E+00 -0.00000000000E+00 -0.74202593807E+03  0.74202593807E+03  0.25500000000E-02 0.  1.
    8880022    1    1    2    0    0 -0.50250436161E+03  0.34482076428E+03 -0.22267858603E+03  0.66662538100E+03  0.15294330000E+03 0.  0.
    8880022    1    1    2    0    0  0.50250436161E+03 -0.34482076428E+03  0.34534438789E+02  0.62928234791E+03  0.15294330000E+03 0.  0.
<mgrwt>
<rscale>  0 0.62833402E+03</rscale>
<asrwt>0</asrwt>
<pdfrwt beam="1">  1        2 0.85212583E-01 0.62833402E+03</pdfrwt>
<pdfrwt beam="2">  1       -2 0.11415784E+00 0.62833402E+03</pdfrwt>
<totfact> 0.33523240E+01</totfact>
</mgrwt>
</event>
<event>
 4    1  0.5322994E-008  0.9374990E+03  0.7818608E-02  0.9379883E-01
         -2   -1    0    0    0  501 -0.00000000000E+00  0.00000000000E+00  0.15825192917E+04  0.15825192917E+04  0.25500000000E-02 0.  1.
          2   -1    0    0  501    0  0.00000000000E+00 -0.00000000000E+00 -0.13828972569E+04  0.13828972569E+04  0.25500000000E-02 0. -1.
    8880022    1    1    2    0    0  0.71849565889E+03 -0.58247458674E+03 -0.10471495747E+04  0.14054986805E+04  0.15294330000E+03 0.  0.
    8880022    1    1    2    0    0 -0.71849565889E+03  0.58247458674E+03  0.12467716095E+04  0.15599178681E+04  0.15294330000E+03 0.  0.
<mgrwt>
<rscale>  0 0.93749896E+03</rscale>
<asrwt>0</asrwt>
<pdfrwt beam="1">  1        2 0.21275342E+00 0.93749896E+03</pdfrwt>
<pdfrwt beam="2">  1       -2 0.24346451E+00 0.93749896E+03</pdfrwt>
<totfact> 0.10498669E+00</totfact>
</mgrwt>
</event>
<event>
 4    1  0.4880711E-008  0.5858300E+03  0.7818608E-02  0.9935248E-01
          2   -1    0    0  501    0  0.00000000000E+00  0.00000000000E+00  0.59981467487E+03  0.59981467487E+03  0.25500000000E-02 0. -1.
         -2   -1    0    0    0  501 -0.00000000000E+00 -0.00000000000E+00 -0.13891152703E+04  0.13891152703E+04  0.25500000000E-02 0.  1.
    8880022    1    1    2    0    0  0.43980807491E+03 -0.35549117710E+03  0.36798424177E+03  0.69181585336E+03  0.15294330000E+03 0.  0.
    8880022    1    1    2    0    0 -0.43980807491E+03  0.35549117710E+03 -0.11572848372E+04  0.12971140918E+04  0.15294330000E+03 0.  0.
<mgrwt>
<rscale>  0 0.58582999E+03</rscale>
<asrwt>0</asrwt>
<pdfrwt beam="1">  1        2 0.92279181E-01 0.58582999E+03</pdfrwt>
<pdfrwt beam="2">  1       -2 0.21371004E+00 0.58582999E+03</pdfrwt>
<totfact> 0.56282134E+00</totfact>
</mgrwt>
</event>
<event>
 4    1  0.4880711E-008  0.4026388E+03  0.7818608E-02  0.1042870E+00
          2   -1    0    0  501    0  0.00000000000E+00  0.00000000000E+00  0.12661483209E+04  0.12661483209E+04  0.25500000000E-02 0. -1.
         -2   -1    0    0    0  501 -0.00000000000E+00 -0.00000000000E+00 -0.24929065890E+03  0.24929065892E+03  0.25500000000E-02 0.  1.
    8880022    1    1    2    0    0  0.37216004078E+03  0.14942654110E+02 -0.20012700027E+02  0.40313588285E+03  0.15294330000E+03 0.  0.
    8880022    1    1    2    0    0 -0.37216004078E+03 -0.14942654110E+02  0.10368703621E+04  0.11123030970E+04  0.15294330000E+03 0.  0.
<mgrwt>
<rscale>  0 0.40263884E+03</rscale>
<asrwt>0</asrwt>
<pdfrwt beam="1">  1        2 0.19479205E+00 0.40263884E+03</pdfrwt>
<pdfrwt beam="2">  1       -2 0.38352409E-01 0.40263884E+03</pdfrwt>
<totfact> 0.11705832E+02</totfact>
</mgrwt>
</event>
<event>
 4    1  0.4880711E-008  0.2986503E+03  0.7818608E-02  0.1085917E+00
          2   -1    0    0  501    0  0.00000000000E+00  0.00000000000E+00  0.74010589232E+03  0.74010589232E+03  0.25500000000E-02 0. -1.
         -2   -1    0    0    0  501 -0.00000000000E+00 -0.00000000000E+00 -0.18007713228E+03  0.18007713230E+03  0.25500000000E-02 0.  1.
    8880022    1    1    2    0    0 -0.12537559327E+03 -0.22378848987E+03  0.54462625042E+03  0.62113584122E+03  0.15294330000E+03 0.  0.
    8880022    1    1    2    0    0  0.12537559327E+03  0.22378848987E+03  0.15402509624E+02  0.29904718341E+03  0.15294330000E+03 0.  0.
<mgrwt>
<rscale>  0 0.29865026E+03</rscale>
<asrwt>0</asrwt>
<pdfrwt beam="1">  1        2 0.11386245E+00 0.29865026E+03</pdfrwt>
<pdfrwt beam="2">  1       -2 0.27704174E-01 0.29865026E+03</pdfrwt>
<totfact> 0.46474481E+02</totfact>
</mgrwt>
</event>
<event>
 4    1  0.4880711E-008  0.5424354E+03  0.7818608E-02  0.1003260E+00
         -2   -1    0    0    0  501 -0.00000000000E+00  0.00000000000E+00  0.19741781702E+03  0.19741781704E+03  0.25500000000E-02 0.  1.
          2   -1    0    0  501    0  0.00000000000E+00 -0.00000000000E+00 -0.38841174022E+04  0.38841174022E+04  0.25500000000E-02 0. -1.
    8880022    1    1    2    0    0 -0.10315603537E+03  0.51010128457E+03 -0.34454205413E+04  0.34878587769E+04  0.15294330000E+03 0.  0.
    8880022    1    1    2    0    0  0.10315603537E+03 -0.51010128457E+03 -0.24127904387E+03  0.59367644233E+03  0.15294330000E+03 0.  0.
<mgrwt>
<rscale>  0 0.54243538E+03</rscale>
<asrwt>0</asrwt>
<pdfrwt beam="1">  1        2 0.59755647E+00 0.54243538E+03</pdfrwt>
<pdfrwt beam="2">  1       -2 0.30371975E-01 0.54243538E+03</pdfrwt>
<totfact> 0.49148273E+00</totfact>
</mgrwt>
</event>
<event>
 4    1  0.4880711E-008  0.5497772E+03  0.7818608E-02  0.1001546E+00
         -2   -1    0    0    0  501 -0.00000000000E+00  0.00000000000E+00  0.54892705532E+03  0.54892705532E+03  0.25500000000E-02 0.  1.
          2   -1    0    0  501    0  0.00000000000E+00 -0.00000000000E+00 -0.11360415017E+04  0.11360415017E+04  0.25500000000E-02 0. -1.
    8880022    1    1    2    0    0 -0.45993799168E+03  0.25946160376E+03 -0.89833504069E+03  0.10532144978E+04  0.15294330000E+03 0.  0.
    8880022    1    1    2    0    0  0.45993799168E+03 -0.25946160376E+03  0.31122059431E+03  0.63175405923E+03  0.15294330000E+03 0.  0.
<mgrwt>
<rscale>  0 0.54977717E+03</rscale>
<asrwt>0</asrwt>
<pdfrwt beam="1">  1        2 0.17477561E+00 0.54977717E+03</pdfrwt>
<pdfrwt beam="2">  1       -2 0.84450317E-01 0.54977717E+03</pdfrwt>
<totfact> 0.26410111E+01</totfact>
</mgrwt>
</event>
<event>
 4    1  0.4880711E-008  0.7855132E+03  0.7818608E-02  0.9581226E-01
         -2   -1    0    0    0  501 -0.00000000000E+00  0.00000000000E+00  0.39784386844E+03  0.39784386845E+03  0.25500000000E-02 0.  1.
          2   -1    0    0  501    0  0.00000000000E+00 -0.00000000000E+00 -0.16556073090E+04  0.16556073090E+04  0.25500000000E-02 0. -1.
    8880022    1    1    2    0    0  0.57605024177E+03 -0.51166921358E+03 -0.37072304192E+03  0.86860030623E+03  0.15294330000E+03 0.  0.
    8880022    1    1    2    0    0 -0.57605024177E+03  0.51166921358E+03 -0.88704039862E+03  0.11848508712E+04  0.15294330000E+03 0.  0.
<mgrwt>
<rscale>  0 0.78551316E+03</rscale>
<asrwt>0</asrwt>
<pdfrwt beam="1">  1        2 0.25470881E+00 0.78551316E+03</pdfrwt>
<pdfrwt beam="2">  1       -2 0.61206750E-01 0.78551316E+03</pdfrwt>
<totfact> 0.26342361E+01</totfact>
</mgrwt>
</event>
<event>
 4    1  0.4880711E-008  0.5856615E+03  0.7818608E-02  0.9935609E-01
          2   -1    0    0  501    0  0.00000000000E+00  0.00000000000E+00  0.47493062213E+03  0.47493062214E+03  0.25500000000E-02 0. -1.
         -2   -1    0    0    0  501 -0.00000000000E+00 -0.00000000000E+00 -0.17421939572E+04  0.17421939572E+04  0.25500000000E-02 0.  1.
    8880022    1    1    2    0    0 -0.55812672172E+03  0.90012504936E+02  0.21458862039E+03  0.62373681754E+03  0.15294330000E+03 0.  0.
    8880022    1    1    2    0    0  0.55812672172E+03 -0.90012504936E+02 -0.14818519555E+04  0.15933877618E+04  0.15294330000E+03 0.  0.
<mgrwt>
<rscale>  0 0.58566146E+03</rscale>
<asrwt>0</asrwt>
<pdfrwt beam="1">  1        2 0.73066250E-01 0.58566146E+03</pdfrwt>
<pdfrwt beam="2">  1       -2 0.26802984E+00 0.58566146E+03</pdfrwt>
<totfact> 0.34542303E+00</totfact>
</mgrwt>
</event>
<event>
 4    1  0.4880711E-008  0.4305466E+03  0.7818608E-02  0.1033687E+00
         -2   -1    0    0    0  501 -0.00000000000E+00  0.00000000000E+00  0.19932723699E+03  0.19932723700E+03  0.25500000000E-02 0.  1.
          2   -1    0    0  501    0  0.00000000000E+00 -0.00000000000E+00 -0.27598983297E+04  0.27598983297E+04  0.25500000000E-02 0. -1.
    8880022    1    1    2    0    0  0.24726410475E+03  0.31755191409E+03 -0.24850921745E+04  0.25221129087E+04  0.15294330000E+03 0.  0.
    8880022    1    1    2    0    0 -0.24726410475E+03 -0.31755191409E+03 -0.75478918203E+02  0.43711265796E+03  0.15294330000E+03 0.  0.
<mgrwt>
<rscale>  0 0.43054664E+03</rscale>
<asrwt>0</asrwt>
<pdfrwt beam="1">  1        2 0.42459972E+00 0.43054664E+03</pdfrwt>
<pdfrwt beam="2">  1       -2 0.30665731E-01 0.43054664E+03</pdfrwt>
<totfact> 0.26986546E+01</totfact>
</mgrwt>
</event>
<event>
 4    1  0.4880711E-008  0.5518915E+03  0.7818608E-02  0.1001057E+00
          2   -1    0    0  501    0  0.00000000000E+00  0.00000000000E+00  0.12206008914E+04  0.12206008914E+04  0.25500000000E-02 0. -1.
         -2   -1    0    0    0  501 -0.00000000000E+00 -0.00000000000E+00 -0.41009072166E+03  0.41009072167E+03  0.25500000000E-02 0.  1.
    8880022    1    1    2    0    0 -0.51308068707E+03 -0.13394333178E+03  0.91542279999E+03  0.10689168178E+04  0.15294330000E+03 0.  0.
    8880022    1    1    2    0    0  0.51308068707E+03  0.13394333178E+03 -0.10491263030E+03  0.56177479525E+03  0.15294330000E+03 0.  0.
<mgrwt>
<rscale>  0 0.55189153E+03</rscale>
<asrwt>0</asrwt>
<pdfrwt beam="1">  1        2 0.18778475E+00 0.55189153E+03</pdfrwt>
<pdfrwt beam="2">  1       -2 0.63090882E-01 0.55189153E+03</pdfrwt>
<totfact> 0.44628307E+01</totfact>
</mgrwt>
</event>
<event>
 4    1  0.4880711E-008  0.1547286E+03  0.7818608E-02  0.1194780E+00
          2   -1    0    0  501    0  0.00000000000E+00  0.00000000000E+00  0.40536098519E+03  0.40536098519E+03  0.25500000000E-02 0. -1.
         -2   -1    0    0    0  501 -0.00000000000E+00 -0.00000000000E+00 -0.29578585858E+03  0.29578585859E+03  0.25500000000E-02 0.  1.
    8880022    1    1    2    0    0  0.19302319118E+02 -0.13293308850E+02  0.36841380918E+03  0.39958688591E+03  0.15294330000E+03 0. -1.
    8880022    1    1    2    0    0 -0.19302319118E+02  0.13293308850E+02 -0.25883868257E+03  0.30155995787E+03  0.15294330000E+03 0.  0.
<mgrwt>
<rscale>  0 0.15472862E+03</rscale>
<asrwt>0</asrwt>
<pdfrwt beam="1">  1        2 0.62363229E-01 0.15472862E+03</pdfrwt>
<pdfrwt beam="2">  1       -2 0.45505516E-01 0.15472862E+03</pdfrwt>
<totfact> 0.36853101E+02</totfact>
</mgrwt>
</event>
<event>
 4    1  0.4880711E-008  0.9692454E+03  0.7818608E-02  0.9342934E-01
          2   -1    0    0  501    0  0.00000000000E+00  0.00000000000E+00  0.11558570159E+04  0.11558570159E+04  0.25500000000E-02 0. -1.
         -2   -1    0    0    0  501 -0.00000000000E+00 -0.00000000000E+00 -0.11651345468E+04  0.11651345468E+04  0.25500000000E-02 0.  1.
    8880022    1    1    2    0    0  0.38581356951E+03 -0.87589551955E+03  0.63356082985E+03  0.11579447524E+04  0.15294330000E+03 0.  0.
    8880022    1    1    2    0    0 -0.38581356951E+03  0.87589551955E+03 -0.64283836078E+03  0.11630468102E+04  0.15294330000E+03 0.  0.
<mgrwt>
<rscale>  0 0.96924544E+03</rscale>
<asrwt>0</asrwt>
<pdfrwt beam="1">  1        2 0.17782416E+00 0.96924544E+03</pdfrwt>
<pdfrwt beam="2">  1       -2 0.17925147E+00 0.96924544E+03</pdfrwt>
<totfact> 0.36758946E+00</totfact>
</mgrwt>
</event>
<event>
 4    1  0.4880711E-008  0.8566540E+03  0.7818608E-02  0.9481450E-01
          2   -1    0    0  501    0  0.00000000000E+00  0.00000000000E+00  0.22109555827E+04  0.22109555827E+04  0.25500000000E-02 0. -1.
         -2   -1    0    0    0  501 -0.00000000000E+00 -0.00000000000E+00 -0.39968110883E+03  0.39968110884E+03  0.25500000000E-02 0.  1.
    8880022    1    1    2    0    0  0.84007129072E+03  0.68880916253E+02  0.14431096980E+04  0.16782197734E+04  0.15294330000E+03 0.  0.
    8880022    1    1    2    0    0 -0.84007129072E+03 -0.68880916253E+02  0.36816477584E+03  0.93241691818E+03  0.15294330000E+03 0.  0.
<mgrwt>
<rscale>  0 0.85665396E+03</rscale>
<asrwt>0</asrwt>
<pdfrwt beam="1">  1        2 0.34014702E+00 0.85665396E+03</pdfrwt>
<pdfrwt beam="2">  1       -2 0.61489401E-01 0.85665396E+03</pdfrwt>
<totfact> 0.12822362E+01</totfact>
</mgrwt>
</event>
<event>
 4    1  0.4880711E-008  0.1014923E+04  0.7818608E-02  0.9292328E-01
         -2   -1    0    0    0  501 -0.00000000000E+00  0.00000000000E+00  0.13577428734E+04  0.13577428734E+04  0.25500000000E-02 0.  1.
          2   -1    0    0  501    0  0.00000000000E+00 -0.00000000000E+00 -0.88938008201E+03  0.88938008201E+03  0.25500000000E-02 0. -1.
    8880022    1    1    2    0    0  0.10032876834E+04 -0.94918707940E+01  0.66492711881E+03  0.12133408415E+04  0.15294330000E+03 0.  0.
    8880022    1    1    2    0    0 -0.10032876834E+04  0.94918707940E+01 -0.19656432745E+03  0.10337821139E+04  0.15294330000E+03 0.  0.
<mgrwt>
<rscale>  0 0.10149226E+04</rscale>
<asrwt>0</asrwt>
<pdfrwt beam="1">  1        2 0.13682771E+00 0.10149226E+04</pdfrwt>
<pdfrwt beam="2">  1       -2 0.20888352E+00 0.10149226E+04</pdfrwt>
<totfact> 0.34412208E+00</totfact>
</mgrwt>
</event>
<event>
 4    1  0.4880711E-008  0.1241977E+04  0.7818608E-02  0.9076887E-01
         -2   -1    0    0    0  501 -0.00000000000E+00  0.00000000000E+00  0.10011540640E+04  0.10011540640E+04  0.25500000000E-02 0.  1.
          2   -1    0    0  501    0  0.00000000000E+00 -0.00000000000E+00 -0.20684651896E+04  0.20684651896E+04  0.25500000000E-02 0. -1.
    8880022    1    1    2    0    0 -0.33711079941E+03 -0.11855261233E+04  0.24158888889E+03  0.12652559916E+04  0.15294330000E+03 0.  0.
    8880022    1    1    2    0    0  0.33711079941E+03  0.11855261233E+04 -0.13089000146E+04  0.18043632620E+04  0.15294330000E+03 0.  0.
<mgrwt>
<rscale>  0 0.12419773E+04</rscale>
<asrwt>0</asrwt>
<pdfrwt beam="1">  1        2 0.31822541E+00 0.12419773E+04</pdfrwt>
<pdfrwt beam="2">  1       -2 0.15402370E+00 0.12419773E+04</pdfrwt>
<totfact> 0.16552368E+00</totfact>
</mgrwt>
</event>
<event>
 4    1  0.4880711E-008  0.6330730E+03  0.7818608E-02  0.9839070E-01
          2   -1    0    0  501    0  0.00000000000E+00  0.00000000000E+00  0.87009324668E+03  0.87009324668E+03  0.25500000000E-02 0. -1.
         -2   -1    0    0    0  501 -0.00000000000E+00 -0.00000000000E+00 -0.61723345582E+03  0.61723345583E+03  0.25500000000E-02 0.  1.
    8880022    1    1    2    0    0  0.10640257843E+03 -0.60503571471E+03 -0.24817007440E+03  0.67997776700E+03  0.15294330000E+03 0.  0.
    8880022    1    1    2    0    0 -0.10640257843E+03  0.60503571471E+03  0.50102986526E+03  0.80734893551E+03  0.15294330000E+03 0.  0.
<mgrwt>
<rscale>  0 0.63307296E+03</rscale>
<asrwt>0</asrwt>
<pdfrwt beam="1">  1        2 0.13386050E+00 0.63307296E+03</pdfrwt>
<pdfrwt beam="2">  1       -2 0.94958994E-01 0.63307296E+03</pdfrwt>
<totfact> 0.29443079E+01</totfact>
</mgrwt>
</event>
<event>
 4    1  0.4880711E-008  0.4732362E+03  0.7818608E-02  0.1021011E+00
         -2   -1    0    0    0  501 -0.00000000000E+00  0.00000000000E+00  0.72559016052E+03  0.72559016052E+03  0.25500000000E-02 0.  1.
          2   -1    0    0  501    0  0.00000000000E+00 -0.00000000000E+00 -0.14400026833E+04  0.14400026833E+04  0.25500000000E-02 0. -1.
    8880022    1    1    2    0    0  0.43292449969E+03  0.11461786872E+03  0.60255760970E+03  0.76617765843E+03  0.15294330000E+03 0.  0.
    8880022    1    1    2    0    0 -0.43292449969E+03 -0.11461786872E+03 -0.13169701325E+04  0.13994151854E+04  0.15294330000E+03 0. -1.
<mgrwt>
<rscale>  0 0.47323623E+03</rscale>
<asrwt>0</asrwt>
<pdfrwt beam="1">  1        2 0.22153887E+00 0.47323623E+03</pdfrwt>
<pdfrwt beam="2">  1       -2 0.11162926E+00 0.47323623E+03</pdfrwt>
<totfact> 0.93435944E+00</totfact>
</mgrwt>
</event>
<event>
 4    1  0.4880711E-008  0.7529961E+03  0.7818608E-02  0.9630662E-01
         -2   -1    0    0    0  501 -0.00000000000E+00  0.00000000000E+00  0.65128611708E+03  0.65128611709E+03  0.25500000000E-02 0.  1.
          2   -1    0    0  501    0  0.00000000000E+00 -0.00000000000E+00 -0.20041999498E+04  0.20041999498E+04  0.25500000000E-02 0. -1.
    8880022    1    1    2    0    0  0.67841035663E+03  0.28874019899E+03 -0.16750196090E+04  0.18364895475E+04  0.15294330000E+03 0.  0.
    8880022    1    1    2    0    0 -0.67841035663E+03 -0.28874019899E+03  0.32210577635E+03  0.81899651933E+03  0.15294330000E+03 0.  0.
<mgrwt>
<rscale>  0 0.75299613E+03</rscale>
<asrwt>0</asrwt>
<pdfrwt beam="1">  1        2 0.30833845E+00 0.75299613E+03</pdfrwt>
<pdfrwt beam="2">  1       -2 0.10019787E+00 0.75299613E+03</pdfrwt>
<totfact> 0.56577573E+00</totfact>
</mgrwt>
</event>
<event>
 4    1  0.4880711E-008  0.5972618E+03  0.7818608E-02  0.9911103E-01
         -2   -1    0    0    0  501 -0.00000000000E+00  0.00000000000E+00  0.10457704200E+04  0.10457704200E+04  0.25500000000E-02 0.  1.
          2   -1    0    0  501    0  0.00000000000E+00 -0.00000000000E+00 -0.43734956087E+03  0.43734956088E+03  0.25500000000E-02 0. -1.
    8880022    1    1    2    0    0 -0.42076040196E+03  0.39533622057E+03  0.65207566464E+03  0.88426487467E+03  0.15294330000E+03 0.  0.
    8880022    1    1    2    0    0  0.42076040196E+03 -0.39533622057E+03 -0.43654805529E+02  0.59885510619E+03  0.15294330000E+03 0.  0.
<mgrwt>
<rscale>  0 0.59726183E+03</rscale>
<asrwt>0</asrwt>
<pdfrwt beam="1">  1        2 0.67284549E-01 0.59726183E+03</pdfrwt>
<pdfrwt beam="2">  1       -2 0.16088775E+00 0.59726183E+03</pdfrwt>
<totfact> 0.18350581E+01</totfact>
</mgrwt>
</event>
<event>
 4    1  0.4880711E-008  0.4071554E+03  0.7818608E-02  0.1041330E+00
          2   -1    0    0  501    0  0.00000000000E+00  0.00000000000E+00  0.12111185200E+04  0.12111185200E+04  0.25500000000E-02 0. -1.
         -2   -1    0    0    0  501 -0.00000000000E+00 -0.00000000000E+00 -0.34214069062E+03  0.34214069063E+03  0.25500000000E-02 0.  1.
    8880022    1    1    2    0    0  0.20697832989E+03 -0.31550567173E+03 -0.16705392335E+03  0.44009376757E+03  0.15294330000E+03 0.  0.
    8880022    1    1    2    0    0 -0.20697832989E+03  0.31550567173E+03  0.10360317527E+04  0.11131654431E+04  0.15294330000E+03 0.  0.
<mgrwt>
<rscale>  0 0.40715539E+03</rscale>
<asrwt>0</asrwt>
<pdfrwt beam="1">  1        2 0.18632593E+00 0.40715539E+03</pdfrwt>
<pdfrwt beam="2">  1       -2 0.52637029E-01 0.40715539E+03</pdfrwt>
<totfact> 0.67308871E+01</totfact>
</mgrwt>
</event>
<event>
 4    1  0.4880711E-008  0.4521525E+03  0.7818608E-02  0.1027082E+00
         -2   -1    0    0    0  501 -0.00000000000E+00  0.00000000000E+00  0.23685816317E+03  0.23685816319E+03  0.25500000000E-02 0.  1.
          2   -1    0    0  501    0  0.00000000000E+00 -0.00000000000E+00 -0.14786951362E+04  0.14786951362E+04  0.25500000000E-02 0. -1.
    8880022    1    1    2    0    0  0.29567811381E+03 -0.30598148379E+03 -0.11743555092E+04  0.12583929158E+04  0.15294330000E+03 0.  0.
    8880022    1    1    2    0    0 -0.29567811381E+03  0.30598148379E+03 -0.67481463842E+02  0.45716038366E+03  0.15294330000E+03 0.  1.
<mgrwt>
<rscale>  0 0.45215248E+03</rscale>
<asrwt>0</asrwt>
<pdfrwt beam="1">  1        2 0.22749155E+00 0.45215248E+03</pdfrwt>
<pdfrwt beam="2">  1       -2 0.36439718E-01 0.45215248E+03</pdfrwt>
<totfact> 0.97529519E+01</totfact>
</mgrwt>
</event>
<event>
 4    1  0.4880711E-008  0.2346731E+03  0.7818608E-02  0.1123393E+00
         -2   -1    0    0    0  501 -0.00000000000E+00  0.00000000000E+00  0.86126599367E+02  0.86126599405E+02  0.25500000000E-02 0.  1.
          2   -1    0    0  501    0  0.00000000000E+00 -0.00000000000E+00 -0.15063522668E+04  0.15063522668E+04  0.25500000000E-02 0. -1.
    8880022    1    1    2    0    0 -0.15013680419E+03  0.95596884771E+02 -0.13141613316E+04  0.13349499927E+04  0.15294330000E+03 0. -1.
    8880022    1    1    2    0    0  0.15013680419E+03 -0.95596884771E+02 -0.10606433576E+03  0.25752887350E+03  0.15294330000E+03 0.  0.
<mgrwt>
<rscale>  0 0.23467313E+03</rscale>
<asrwt>0</asrwt>
<pdfrwt beam="1">  1        2 0.23174648E+00 0.23467313E+03</pdfrwt>
<pdfrwt beam="2">  1       -2 0.13250247E-01 0.23467313E+03</pdfrwt>
<totfact> 0.57393511E+02</totfact>
</mgrwt>
</event>
<event>
 4    1  0.4880711E-008  0.3224255E+03  0.7818608E-02  0.1074538E+00
          2   -1    0    0  501    0  0.00000000000E+00  0.00000000000E+00  0.11017601275E+04  0.11017601275E+04  0.25500000000E-02 0. -1.
         -2   -1    0    0    0  501 -0.00000000000E+00 -0.00000000000E+00 -0.50671788271E+03  0.50671788271E+03  0.25500000000E-02 0.  1.
    8880022    1    1    2    0    0  0.28171217129E+03  0.34710157591E+02 -0.42798490770E+03  0.53584445198E+03  0.15294330000E+03 0.  1.
    8880022    1    1    2    0    0 -0.28171217129E+03 -0.34710157591E+02  0.10230271525E+04  0.10726335582E+04  0.15294330000E+03 0.  0.
<mgrwt>
<rscale>  0 0.32242549E+03</rscale>
<asrwt>0</asrwt>
<pdfrwt beam="1">  1        2 0.16950156E+00 0.32242549E+03</pdfrwt>
<pdfrwt beam="2">  1       -2 0.77956598E-01 0.32242549E+03</pdfrwt>
<totfact> 0.34488443E+01</totfact>
</mgrwt>
</event>
<event>
 4    1  0.4880711E-008  0.8427153E+03  0.7818608E-02  0.9500167E-01
          2   -1    0    0  501    0  0.00000000000E+00  0.00000000000E+00  0.25297918962E+04  0.25297918962E+04  0.25500000000E-02 0. -1.
         -2   -1    0    0    0  501 -0.00000000000E+00 -0.00000000000E+00 -0.38983018728E+03  0.38983018729E+03  0.25500000000E-02 0.  1.
    8880022    1    1    2    0    0  0.28951874187E+02 -0.82821446307E+03  0.18422824569E+04  0.20258760357E+04  0.15294330000E+03 0.  0.
    8880022    1    1    2    0    0 -0.28951874187E+02  0.82821446307E+03  0.29767925199E+03  0.89374604779E+03  0.15294330000E+03 0.  0.
<mgrwt>
<rscale>  0 0.84271529E+03</rscale>
<asrwt>0</asrwt>
<pdfrwt beam="1">  1        2 0.38919876E+00 0.84271529E+03</pdfrwt>
<pdfrwt beam="2">  1       -2 0.59973874E-01 0.84271529E+03</pdfrwt>
<totfact> 0.89687754E+00</totfact>
</mgrwt>
</event>
<event>
 4    1  0.4880711E-008  0.8475435E+03  0.7818608E-02  0.9493640E-01
         -2   -1    0    0    0  501 -0.00000000000E+00  0.00000000000E+00  0.82296548494E+03  0.82296548495E+03  0.25500000000E-02 0.  1.
          2   -1    0    0  501    0  0.00000000000E+00 -0.00000000000E+00 -0.12563472179E+04  0.12563472179E+04  0.25500000000E-02 0. -1.
    8880022    1    1    2    0    0  0.53542246751E+03  0.63895312256E+03  0.35770718017E+03  0.91993716704E+03  0.15294330000E+03 0.  0.
    8880022    1    1    2    0    0 -0.53542246751E+03 -0.63895312256E+03 -0.79108891314E+03  0.11593755358E+04  0.15294330000E+03 0.  0.
<mgrwt>
<rscale>  0 0.84754349E+03</rscale>
<asrwt>0</asrwt>
<pdfrwt beam="1">  1        2 0.19328419E+00 0.84754349E+03</pdfrwt>
<pdfrwt beam="2">  1       -2 0.12661007E+00 0.84754349E+03</pdfrwt>
<totfact> 0.82123878E+00</totfact>
</mgrwt>
</event>
<event>
 4    1  0.4880711E-008  0.1045320E+04  0.7818608E-02  0.9260189E-01
         -2   -1    0    0    0  501 -0.00000000000E+00  0.00000000000E+00  0.88879149023E+03  0.88879149024E+03  0.25500000000E-02 0.  1.
          2   -1    0    0  501    0  0.00000000000E+00 -0.00000000000E+00 -0.22164376485E+04  0.22164376485E+04  0.25500000000E-02 0. -1.
    8880022    1    1    2    0    0  0.10199116707E+04 -0.17053587246E+03  0.37227141829E+03  0.11096305519E+04  0.15294330000E+03 0.  0.
    8880022    1    1    2    0    0 -0.10199116707E+04  0.17053587246E+03 -0.16999175765E+04  0.19955985868E+04  0.15294330000E+03 0.  0.
<mgrwt>
<rscale>  0 0.10453200E+04</rscale>
<asrwt>0</asrwt>
<pdfrwt beam="1">  1        2 0.34099041E+00 0.10453200E+04</pdfrwt>
<pdfrwt beam="2">  1       -2 0.13673715E+00 0.10453200E+04</pdfrwt>
<totfact> 0.19203013E+00</totfact>
</mgrwt>
</event>
<event>
 4    1  0.4880711E-008  0.4924015E+03  0.7818608E-02  0.1015781E+00
         -2   -1    0    0    0  501 -0.00000000000E+00  0.00000000000E+00  0.18647375601E+03  0.18647375603E+03  0.25500000000E-02 0.  1.
          2   -1    0    0  501    0  0.00000000000E+00 -0.00000000000E+00 -0.16139766536E+04  0.16139766536E+04  0.25500000000E-02 0. -1.
    8880022    1    1    2    0    0  0.29860722039E+03 -0.36041823382E+03 -0.31684294778E+03  0.58553281882E+03  0.15294330000E+03 0.  0.
    8880022    1    1    2    0    0 -0.29860722039E+03  0.36041823382E+03 -0.11106599498E+04  0.12149175908E+04  0.15294330000E+03 0.  0.
<mgrwt>
<rscale>  0 0.49240149E+03</rscale>
<asrwt>0</asrwt>
<pdfrwt beam="1">  1        2 0.24830409E+00 0.49240149E+03</pdfrwt>
<pdfrwt beam="2">  1       -2 0.28688271E-01 0.49240149E+03</pdfrwt>
<totfact> 0.12782415E+02</totfact>
</mgrwt>
</event>
<event>
 4    1  0.4880711E-008  0.9076868E+03  0.7818608E-02  0.9416023E-01
          2   -1    0    0  501    0  0.00000000000E+00  0.00000000000E+00  0.21222327149E+04  0.21222327149E+04  0.25500000000E-02 0. -1.
         -2   -1    0    0    0  501 -0.00000000000E+00 -0.00000000000E+00 -0.40520196392E+03  0.40520196393E+03  0.25500000000E-02 0.  1.
    8880022    1    1    2    0    0  0.57447820315E+03 -0.68591428441E+03  0.11172148810E+04  0.14394666911E+04  0.15294330000E+03 0.  0.
    8880022    1    1    2    0    0 -0.57447820315E+03  0.68591428441E+03  0.59981587001E+03  0.10879679878E+04  0.15294330000E+03 0.  0.
<mgrwt>
<rscale>  0 0.90768677E+03</rscale>
<asrwt>0</asrwt>
<pdfrwt beam="1">  1        2 0.32649734E+00 0.90768677E+03</pdfrwt>
<pdfrwt beam="2">  1       -2 0.62338763E-01 0.90768677E+03</pdfrwt>
<totfact> 0.13852167E+01</totfact>
</mgrwt>
</event>
<event>
 4    1  0.4880711E-008  0.2313094E+03  0.7818608E-02  0.1125722E+00
          2   -1    0    0  501    0  0.00000000000E+00  0.00000000000E+00  0.12629618643E+04  0.12629618643E+04  0.25500000000E-02 0. -1.
         -2   -1    0    0    0  501 -0.00000000000E+00 -0.00000000000E+00 -0.26644157235E+03  0.26644157237E+03  0.25500000000E-02 0.  1.
    8880022    1    1    2    0    0 -0.67347253971E+02 -0.15992729991E+03 -0.20301802536E+03  0.30776673880E+03  0.15294330000E+03 0.  0.
    8880022    1    1    2    0    0  0.67347253971E+02  0.15992729991E+03  0.11995383173E+04  0.12216366979E+04  0.15294330000E+03 0.  0.
<mgrwt>
<rscale>  0 0.23130942E+03</rscale>
<asrwt>0</asrwt>
<pdfrwt beam="1">  1        2 0.19430183E+00 0.23130942E+03</pdfrwt>
<pdfrwt beam="2">  1       -2 0.40991011E-01 0.23130942E+03</pdfrwt>
<totfact> 0.10695169E+02</totfact>
</mgrwt>
</event>
<event>
 4    1  0.4880711E-008  0.9948402E+03  0.7818608E-02  0.9314222E-01
          2   -1    0    0  501    0  0.00000000000E+00  0.00000000000E+00  0.20937874611E+04  0.20937874611E+04  0.25500000000E-02 0. -1.
         -2   -1    0    0    0  501 -0.00000000000E+00 -0.00000000000E+00 -0.83699633209E+03  0.83699633210E+03  0.25500000000E-02 0.  1.
    8880022    1    1    2    0    0 -0.71528364152E+03  0.67430307956E+03 -0.33838276834E+03  0.10508139140E+04  0.15294330000E+03 0.  0.
    8880022    1    1    2    0    0  0.71528364152E+03 -0.67430307956E+03  0.15951738974E+04  0.18799698792E+04  0.15294330000E+03 0.  0.
<mgrwt>
<rscale>  0 0.99484018E+03</rscale>
<asrwt>0</asrwt>
<pdfrwt beam="1">  1        2 0.32212114E+00 0.99484018E+03</pdfrwt>
<pdfrwt beam="2">  1       -2 0.12876867E+00 0.99484018E+03</pdfrwt>
<totfact> 0.26364957E+00</totfact>
</mgrwt>
</event>
<event>
 4    1  0.4880711E-008  0.9375816E+03  0.7818608E-02  0.9379785E-01
          2   -1    0    0  501    0  0.00000000000E+00  0.00000000000E+00  0.81799450483E+03  0.81799450483E+03  0.25500000000E-02 0. -1.
         -2   -1    0    0    0  501 -0.00000000000E+00 -0.00000000000E+00 -0.14219367218E+04  0.14219367218E+04  0.25500000000E-02 0.  1.
    8880022    1    1    2    0    0 -0.66623906295E+03 -0.64171106995E+03  0.25151603646E+03  0.97073145406E+03  0.15294330000E+03 0.  0.
    8880022    1    1    2    0    0  0.66623906295E+03  0.64171106995E+03 -0.85545825341E+03  0.12691997726E+04  0.15294330000E+03 0.  0.
<mgrwt>
<rscale>  0 0.93758159E+03</rscale>
<asrwt>0</asrwt>
<pdfrwt beam="1">  1        2 0.12584531E+00 0.93758159E+03</pdfrwt>
<pdfrwt beam="2">  1       -2 0.21875950E+00 0.93758159E+03</pdfrwt>
<totfact> 0.33684271E+00</totfact>
</mgrwt>
</event>
<event>
 4    1  0.4880711E-008  0.3697899E+03  0.7818608E-02  0.1054773E+00
         -2   -1    0    0    0  501 -0.00000000000E+00  0.00000000000E+00  0.47648469938E+02  0.47648470007E+02  0.25500000000E-02 0.  1.
          2   -1    0    0  501    0  0.00000000000E+00 -0.00000000000E+00 -0.33704704909E+04  0.33704704909E+04  0.25500000000E-02 0. -1.
    8880022    1    1    2    0    0 -0.77315533364E+02  0.32768162339E+03 -0.10027522178E+04  0.10687640531E+04  0.15294330000E+03 0.  0.
    8880022    1    1    2    0    0  0.77315533364E+02 -0.32768162339E+03 -0.23200698032E+04  0.23493549078E+04  0.15294330000E+03 0.  0.
<mgrwt>
<rscale>  0 0.36978993E+03</rscale>
<asrwt>0</asrwt>
<pdfrwt beam="1">  1        2 0.51853373E+00 0.36978993E+03</pdfrwt>
<pdfrwt beam="2">  1       -2 0.73305365E-02 0.36978993E+03</pdfrwt>
<totfact> 0.12967152E+02</totfact>
</mgrwt>
</event>
<event>
 4    1  0.4880711E-008  0.8247388E+03  0.7818608E-02  0.9524883E-01
          2   -1    0    0  501    0  0.00000000000E+00  0.00000000000E+00  0.12127452631E+04  0.12127452631E+04  0.25500000000E-02 0. -1.
         -2   -1    0    0    0  501 -0.00000000000E+00 -0.00000000000E+00 -0.62059873678E+03  0.62059873678E+03  0.25500000000E-02 0.  1.
    8880022    1    1    2    0    0 -0.73783290375E+03 -0.33526852036E+03  0.58045088305E+03  0.10085223127E+04  0.15294330000E+03 0.  0.
    8880022    1    1    2    0    0  0.73783290375E+03  0.33526852036E+03  0.11695643322E+02  0.82482168721E+03  0.15294330000E+03 0.  0.
<mgrwt>
<rscale>  0 0.82473876E+03</rscale>
<asrwt>0</asrwt>
<pdfrwt beam="1">  1        2 0.18657619E+00 0.82473876E+03</pdfrwt>
<pdfrwt beam="2">  1       -2 0.95476730E-01 0.82473876E+03</pdfrwt>
<totfact> 0.17334667E+01</totfact>
</mgrwt>
</event>
<event>
 4    1  0.4880711E-008  0.4342241E+03  0.7818608E-02  0.1032534E+00
         -2   -1    0    0    0  501 -0.00000000000E+00  0.00000000000E+00  0.10786361865E+04  0.10786361865E+04  0.25500000000E-02 0.  1.
          2   -1    0    0  501    0  0.00000000000E+00 -0.00000000000E+00 -0.68242890417E+03  0.68242890417E+03  0.25500000000E-02 0. -1.
    8880022    1    1    2    0    0 -0.40093804849E+03 -0.66389999533E+02  0.95753389626E+03  0.10513903967E+04  0.15294330000E+03 0.  0.
    8880022    1    1    2    0    0  0.40093804849E+03  0.66389999533E+02 -0.56132661392E+03  0.70967469398E+03  0.15294330000E+03 0. -1.
<mgrwt>
<rscale>  0 0.43422414E+03</rscale>
<asrwt>0</asrwt>
<pdfrwt beam="1">  1        2 0.10498906E+00 0.43422414E+03</pdfrwt>
<pdfrwt beam="2">  1       -2 0.16594403E+00 0.43422414E+03</pdfrwt>
<totfact> 0.10256847E+01</totfact>
</mgrwt>
</event>
<event>
 4    1  0.4880711E-008  0.5488979E+03  0.7818608E-02  0.1001749E+00
          2   -1    0    0  501    0  0.00000000000E+00  0.00000000000E+00  0.92120049488E+03  0.92120049488E+03  0.25500000000E-02 0. -1.
         -2   -1    0    0    0  501 -0.00000000000E+00 -0.00000000000E+00 -0.14092753350E+04  0.14092753350E+04  0.25500000000E-02 0.  1.
    8880022    1    1    2    0    0  0.50975424421E+03  0.13434235156E+03  0.77707436674E+03  0.95138503319E+03  0.15294330000E+03 0.  0.
    8880022    1    1    2    0    0 -0.50975424421E+03 -0.13434235156E+03 -0.12651492069E+04  0.13790907967E+04  0.15294330000E+03 0.  0.
<mgrwt>
<rscale>  0 0.54889790E+03</rscale>
<asrwt>0</asrwt>
<pdfrwt beam="1">  1        2 0.14172315E+00 0.54889790E+03</pdfrwt>
<pdfrwt beam="2">  1       -2 0.21681159E+00 0.54889790E+03</pdfrwt>
<totfact> 0.31237513E+00</totfact>
</mgrwt>
</event>
<event>
 4    1  0.4880711E-008  0.5856376E+03  0.7818608E-02  0.9935660E-01
         -2   -1    0    0    0  501 -0.00000000000E+00  0.00000000000E+00  0.71024156775E+03  0.71024156775E+03  0.25500000000E-02 0.  1.
          2   -1    0    0  501    0  0.00000000000E+00 -0.00000000000E+00 -0.51477404948E+03  0.51477404949E+03  0.25500000000E-02 0. -1.
    8880022    1    1    2    0    0  0.56391229062E+03  0.39782338411E+02  0.25016118431E+03  0.63682962958E+03  0.15294330000E+03 0.  0.
    8880022    1    1    2    0    0 -0.56391229062E+03 -0.39782338411E+02 -0.54693666048E+02  0.58818598766E+03  0.15294330000E+03 0.  0.
<mgrwt>
<rscale>  0 0.58563757E+03</rscale>
<asrwt>0</asrwt>
<pdfrwt beam="1">  1        2 0.79196008E-01 0.58563757E+03</pdfrwt>
<pdfrwt beam="2">  1       -2 0.10926793E+00 0.58563757E+03</pdfrwt>
<totfact> 0.40759174E+01</totfact>
</mgrwt>
</event>
<event>
 4    1  0.4880711E-008  0.7833622E+03  0.7818608E-02  0.9584417E-01
         -2   -1    0    0    0  501 -0.00000000000E+00  0.00000000000E+00  0.79683903830E+03  0.79683903831E+03  0.25500000000E-02 0.  1.
          2   -1    0    0  501    0  0.00000000000E+00 -0.00000000000E+00 -0.96794694755E+03  0.96794694756E+03  0.25500000000E-02 0. -1.
    8880022    1    1    2    0    0 -0.76732766324E+03  0.38378286791E+02  0.31336661010E+03  0.84371495246E+03  0.15294330000E+03 0.  0.
    8880022    1    1    2    0    0  0.76732766324E+03 -0.38378286791E+02 -0.48447451935E+03  0.92107103341E+03  0.15294330000E+03 0.  0.
<mgrwt>
<rscale>  0 0.78336217E+03</rscale>
<asrwt>0</asrwt>
<pdfrwt beam="1">  1        2 0.14891491E+00 0.78336217E+03</pdfrwt>
<pdfrwt beam="2">  1       -2 0.12259062E+00 0.78336217E+03</pdfrwt>
<totfact> 0.13474970E+01</totfact>
</mgrwt>
</event>
<event>
 4    1  0.4880711E-008  0.1676237E+03  0.7818608E-02  0.1180349E+00
          2   -1    0    0  501    0  0.00000000000E+00  0.00000000000E+00  0.63473090797E+03  0.63473090797E+03  0.25500000000E-02 0. -1.
         -2   -1    0    0    0  501 -0.00000000000E+00 -0.00000000000E+00 -0.59988336068E+03  0.59988336069E+03  0.25500000000E-02 0.  1.
    8880022    1    1    2    0    0 -0.44225354941E+02  0.52441952333E+02 -0.57667049673E+03  0.60053855429E+03  0.15294330000E+03 0.  0.
    8880022    1    1    2    0    0  0.44225354941E+02 -0.52441952333E+02  0.61151804401E+03  0.63407571437E+03  0.15294330000E+03 0. -1.
<mgrwt>
<rscale>  0 0.16762367E+03</rscale>
<asrwt>0</asrwt>
<pdfrwt beam="1">  1        2 0.97650908E-01 0.16762367E+03</pdfrwt>
<pdfrwt beam="2">  1       -2 0.92289748E-01 0.16762367E+03</pdfrwt>
<totfact> 0.50655540E+01</totfact>
</mgrwt>
</event>
<event>
 4    1  0.4880711E-008  0.1818092E+03  0.7818608E-02  0.1166064E+00
         -2   -1    0    0    0  501 -0.00000000000E+00  0.00000000000E+00  0.45999564292E+02  0.45999564362E+02  0.25500000000E-02 0.  1.
          2   -1    0    0  501    0  0.00000000000E+00 -0.00000000000E+00 -0.23953802979E+04  0.23953802979E+04  0.25500000000E-02 0. -1.
    8880022    1    1    2    0    0  0.73906446209E+02 -0.64813279710E+02 -0.21960018277E+04  0.22035150565E+04  0.15294330000E+03 0.  0.
    8880022    1    1    2    0    0 -0.73906446209E+02  0.64813279710E+02 -0.15337890589E+03  0.23786480573E+03  0.15294330000E+03 0.  1.
<mgrwt>
<rscale>  0 0.18180918E+03</rscale>
<asrwt>0</asrwt>
<pdfrwt beam="1">  1        2 0.36851995E+00 0.18180918E+03</pdfrwt>
<pdfrwt beam="2">  1       -2 0.70768579E-02 0.18180918E+03</pdfrwt>
<totfact> 0.53561476E+02</totfact>
</mgrwt>
</event>
<event>
 4    1  0.4880711E-008  0.3522162E+03  0.7818608E-02  0.1061709E+00
         -2   -1    0    0    0  501 -0.00000000000E+00  0.00000000000E+00  0.99038407453E+02  0.99038407486E+02  0.25500000000E-02 0.  1.
          2   -1    0    0  501    0  0.00000000000E+00 -0.00000000000E+00 -0.19490822323E+04  0.19490822323E+04  0.25500000000E-02 0. -1.
    8880022    1    1    2    0    0  0.29462606451E+03  0.11772869926E+03 -0.15371795161E+04  0.15770152448E+04  0.15294330000E+03 0.  0.
    8880022    1    1    2    0    0 -0.29462606451E+03 -0.11772869926E+03 -0.31286430878E+03  0.47110539505E+03  0.15294330000E+03 0.  0.
<mgrwt>
<rscale>  0 0.35221615E+03</rscale>
<asrwt>0</asrwt>
<pdfrwt beam="1">  1        2 0.29985878E+00 0.35221615E+03</pdfrwt>
<pdfrwt beam="2">  1       -2 0.15236679E-01 0.35221615E+03</pdfrwt>
<totfact> 0.26060714E+02</totfact>
</mgrwt>
</event>
<event>
 4    1  0.4880711E-008  0.1848545E+03  0.7818608E-02  0.1163186E+00
          2   -1    0    0  501    0  0.00000000000E+00  0.00000000000E+00  0.83597127912E+03  0.83597127912E+03  0.25500000000E-02 0. -1.
         -2   -1    0    0    0  501 -0.00000000000E+00 -0.00000000000E+00 -0.18890469448E+03  0.18890469449E+03  0.25500000000E-02 0.  1.
    8880022    1    1    2    0    0 -0.11714979546E+02 -0.10316142902E+03 -0.13008741773E+03  0.22603962142E+03  0.15294330000E+03 0.  1.
    8880022    1    1    2    0    0  0.11714979546E+02  0.10316142902E+03  0.77715400237E+03  0.79883635220E+03  0.15294330000E+03 0.  0.
<mgrwt>
<rscale>  0 0.18485447E+03</rscale>
<asrwt>0</asrwt>
<pdfrwt beam="1">  1        2 0.12861097E+00 0.18485447E+03</pdfrwt>
<pdfrwt beam="2">  1       -2 0.29062261E-01 0.18485447E+03</pdfrwt>
<totfact> 0.36909842E+02</totfact>
</mgrwt>
</event>
<event>
 4    1  0.4880711E-008  0.4348961E+03  0.7818608E-02  0.1032324E+00
          2   -1    0    0  501    0  0.00000000000E+00  0.00000000000E+00  0.68890582484E+03  0.68890582485E+03  0.25500000000E-02 0. -1.
         -2   -1    0    0    0  501 -0.00000000000E+00 -0.00000000000E+00 -0.28636219102E+04  0.28636219102E+04  0.25500000000E-02 0.  1.
    8880022    1    1    2    0    0 -0.37749461269E+03 -0.15244928271E+03  0.60161315861E+03  0.74234292078E+03  0.15294330000E+03 0. -1.
    8880022    1    1    2    0    0  0.37749461269E+03  0.15244928271E+03 -0.27763292439E+04  0.28101848142E+04  0.15294330000E+03 0.  0.
<mgrwt>
<rscale>  0 0.43489610E+03</rscale>
<asrwt>0</asrwt>
<pdfrwt beam="1">  1        2 0.10598551E+00 0.43489610E+03</pdfrwt>
<pdfrwt beam="2">  1       -2 0.44055721E+00 0.43489610E+03</pdfrwt>
<totfact> 0.19635409E-01</totfact>
</mgrwt>
</event>
<event>
 4    1  0.4880711E-008  0.5717360E+03  0.7818608E-02  0.9965845E-01
          2   -1    0    0  501    0  0.00000000000E+00  0.00000000000E+00  0.71406523960E+03  0.71406523961E+03  0.25500000000E-02 0. -1.
         -2   -1    0    0    0  501 -0.00000000000E+00 -0.00000000000E+00 -0.80842616182E+03  0.80842616182E+03  0.25500000000E-02 0.  1.
    8880022    1    1    2    0    0  0.44336777746E+02  0.54911255682E+03 -0.54853116725E+03  0.79231839836E+03  0.15294330000E+03 0.  0.
    8880022    1    1    2    0    0 -0.44336777746E+02 -0.54911255682E+03  0.45417024503E+03  0.73017300307E+03  0.15294330000E+03 0.  0.
<mgrwt>
<rscale>  0 0.57173596E+03</rscale>
<asrwt>0</asrwt>
<pdfrwt beam="1">  1        2 0.10985619E+00 0.57173596E+03</pdfrwt>
<pdfrwt beam="2">  1       -2 0.12437326E+00 0.57173596E+03</pdfrwt>
<totfact> 0.20052496E+01</totfact>
</mgrwt>
</event>
<event>
 4    1  0.4880711E-008  0.4282810E+03  0.7818608E-02  0.1034404E+00
         -2   -1    0    0    0  501 -0.00000000000E+00  0.00000000000E+00  0.47606226004E+03  0.47606226005E+03  0.25500000000E-02 0.  1.
          2   -1    0    0  501    0  0.00000000000E+00 -0.00000000000E+00 -0.33905984284E+04  0.33905984284E+04  0.25500000000E-02 0. -1.
    8880022    1    1    2    0    0  0.15050299939E+03 -0.37065055204E+03  0.36290219145E+03  0.56135785211E+03  0.15294330000E+03 0.  0.
    8880022    1    1    2    0    0 -0.15050299939E+03  0.37065055204E+03 -0.32774383598E+04  0.33053028363E+04  0.15294330000E+03 0.  0.
<mgrwt>
<rscale>  0 0.42828103E+03</rscale>
<asrwt>0</asrwt>
<pdfrwt beam="1">  1        2 0.52163051E+00 0.42828103E+03</pdfrwt>
<pdfrwt beam="2">  1       -2 0.73240350E-01 0.42828103E+03</pdfrwt>
<totfact> 0.19413258E+00</totfact>
</mgrwt>
</event>
<event>
 4    1  0.4880711E-008  0.4699207E+03  0.7818608E-02  0.1021943E+00
         -2   -1    0    0    0  501 -0.00000000000E+00  0.00000000000E+00  0.13178301237E+03  0.13178301240E+03  0.25500000000E-02 0.  1.
          2   -1    0    0  501    0  0.00000000000E+00 -0.00000000000E+00 -0.23196480722E+04  0.23196480722E+04  0.25500000000E-02 0. -1.
    8880022    1    1    2    0    0  0.39498332924E+03  0.20352384037E+03 -0.17397542634E+04  0.18021016437E+04  0.15294330000E+03 0.  0.
    8880022    1    1    2    0    0 -0.39498332924E+03 -0.20352384037E+03 -0.44811079637E+03  0.64932944090E+03  0.15294330000E+03 0.  1.
<mgrwt>
<rscale>  0 0.46992067E+03</rscale>
<asrwt>0</asrwt>
<pdfrwt beam="1">  1        2 0.35686890E+00 0.46992067E+03</pdfrwt>
<pdfrwt beam="2">  1       -2 0.20274311E-01 0.46992067E+03</pdfrwt>
<totfact> 0.99061960E+01</totfact>
</mgrwt>
</event>
<event>
 4    1  0.4880711E-008  0.5890429E+03  0.7818608E-02  0.9928403E-01
          2   -1    0    0  501    0  0.00000000000E+00  0.00000000000E+00  0.16559539027E+04  0.16559539027E+04  0.25500000000E-02 0. -1.
         -2   -1    0    0    0  501 -0.00000000000E+00 -0.00000000000E+00 -0.57879221586E+03  0.57879221587E+03  0.25500000000E-02 0.  1.
    8880022    1    1    2    0    0 -0.36215317919E+03  0.43866270394E+03  0.14310731058E+04  0.15475599440E+04  0.15294330000E+03 0.  0.
    8880022    1    1    2    0    0  0.36215317919E+03 -0.43866270394E+03 -0.35391141899E+03  0.68718617457E+03  0.15294330000E+03 0.  0.
<mgrwt>
<rscale>  0 0.58904291E+03</rscale>
<asrwt>0</asrwt>
<pdfrwt beam="1">  1        2 0.25476213E+00 0.58904291E+03</pdfrwt>
<pdfrwt beam="2">  1       -2 0.89044958E-01 0.58904291E+03</pdfrwt>
<totfact> 0.11843460E+01</totfact>
</mgrwt>
</event>
<event>
 4    1  0.4880711E-008  0.2796571E+03  0.7818608E-02  0.1095876E+00
         -2   -1    0    0    0  501 -0.00000000000E+00  0.00000000000E+00  0.64868263381E+03  0.64868263382E+03  0.25500000000E-02 0.  1.
          2   -1    0    0  501    0  0.00000000000E+00 -0.00000000000E+00 -0.10406084210E+04  0.10406084210E+04  0.25500000000E-02 0. -1.
    8880022    1    1    2    0    0 -0.30394113021E+02 -0.23214789572E+03 -0.99017243012E+03  0.10289069647E+04  0.15294330000E+03 0.  0.
    8880022    1    1    2    0    0  0.30394113021E+02  0.23214789572E+03  0.59824664298E+03  0.66038409009E+03  0.15294330000E+03 0.  0.
<mgrwt>
<rscale>  0 0.27965711E+03</rscale>
<asrwt>0</asrwt>
<pdfrwt beam="1">  1        2 0.16009360E+00 0.27965711E+03</pdfrwt>
<pdfrwt beam="2">  1       -2 0.99797328E-01 0.27965711E+03</pdfrwt>
<totfact> 0.21677215E+01</totfact>
</mgrwt>
</event>
<event>
 4    1  0.4880711E-008  0.1007679E+04  0.7818608E-02  0.9300162E-01
         -2   -1    0    0    0  501 -0.00000000000E+00  0.00000000000E+00  0.87129093782E+03  0.87129093782E+03  0.25500000000E-02 0.  1.
          2   -1    0    0  501    0  0.00000000000E+00 -0.00000000000E+00 -0.15992653848E+04  0.15992653848E+04  0.25500000000E-02 0. -1.
    8880022    1    1    2    0    0 -0.48957709619E+03 -0.86737524499E+03  0.27940162177E+03  0.10456971206E+04  0.15294330000E+03 0.  0.
    8880022    1    1    2    0    0  0.48957709619E+03  0.86737524499E+03 -0.10073760688E+04  0.14248592021E+04  0.15294330000E+03 0.  0.
<mgrwt>
<rscale>  0 0.10076791E+04</rscale>
<asrwt>0</asrwt>
<pdfrwt beam="1">  1        2 0.24604083E+00 0.10076791E+04</pdfrwt>
<pdfrwt beam="2">  1       -2 0.13404476E+00 0.10076791E+04</pdfrwt>
<totfact> 0.44534732E+00</totfact>
</mgrwt>
</event>
<event>
 4    1  0.4880711E-008  0.1996763E+03  0.7818608E-02  0.1150012E+00
         -2   -1    0    0    0  501 -0.00000000000E+00  0.00000000000E+00  0.23490414813E+03  0.23490414814E+03  0.25500000000E-02 0.  1.
          2   -1    0    0  501    0  0.00000000000E+00 -0.00000000000E+00 -0.87489529812E+03  0.87489529813E+03  0.25500000000E-02 0. -1.
    8880022    1    1    2    0    0 -0.74128625538E+02  0.10480423799E+03 -0.81817004754E+03  0.84218338925E+03  0.15294330000E+03 0.  0.
    8880022    1    1    2    0    0  0.74128625538E+02 -0.10480423799E+03  0.17817889755E+03  0.26761605701E+03  0.15294330000E+03 0.  1.
<mgrwt>
<rscale>  0 0.19967632E+03</rscale>
<asrwt>0</asrwt>
<pdfrwt beam="1">  1        2 0.13459928E+00 0.19967632E+03</pdfrwt>
<pdfrwt beam="2">  1       -2 0.36139100E-01 0.19967632E+03</pdfrwt>
<totfact> 0.23275259E+02</totfact>
</mgrwt>
</event>
<event>
 4    1  0.4880711E-008  0.3731196E+03  0.7818608E-02  0.1053506E+00
         -2   -1    0    0    0  501 -0.00000000000E+00  0.00000000000E+00  0.22126210098E+03  0.22126210100E+03  0.25500000000E-02 0.  1.
          2   -1    0    0  501    0  0.00000000000E+00 -0.00000000000E+00 -0.19828636168E+04  0.19828636168E+04  0.25500000000E-02 0. -1.
    8880022    1    1    2    0    0 -0.11759601229E+03 -0.31937092048E+03  0.29773181244E+02  0.37430562685E+03  0.15294330000E+03 0.  0.
    8880022    1    1    2    0    0  0.11759601229E+03  0.31937092048E+03 -0.17913746971E+04  0.18298200910E+04  0.15294330000E+03 0.  0.
<mgrwt>
<rscale>  0 0.37311963E+03</rscale>
<asrwt>0</asrwt>
<pdfrwt beam="1">  1        2 0.30505593E+00 0.37311963E+03</pdfrwt>
<pdfrwt beam="2">  1       -2 0.34040324E-01 0.37311963E+03</pdfrwt>
<totfact> 0.60371981E+01</totfact>
</mgrwt>
</event>
<event>
 4    1  0.4880711E-008  0.6470598E+03  0.7818608E-02  0.9812312E-01
         -2   -1    0    0    0  501 -0.00000000000E+00  0.00000000000E+00  0.58091976224E+03  0.58091976225E+03  0.25500000000E-02 0.  1.
          2   -1    0    0  501    0  0.00000000000E+00 -0.00000000000E+00 -0.11284811844E+04  0.11284811844E+04  0.25500000000E-02 0. -1.
    8880022    1    1    2    0    0  0.21115389553E+03  0.59220664719E+03  0.23998411563E+03  0.69012948738E+03  0.15294330000E+03 0.  0.
    8880022    1    1    2    0    0 -0.21115389553E+03 -0.59220664719E+03 -0.78754553776E+03  0.10192714593E+04  0.15294330000E+03 0.  0.
<mgrwt>
<rscale>  0 0.64705976E+03</rscale>
<asrwt>0</asrwt>
<pdfrwt beam="1">  1        2 0.17361249E+00 0.64705976E+03</pdfrwt>
<pdfrwt beam="2">  1       -2 0.89372272E-01 0.64705976E+03</pdfrwt>
<totfact> 0.23150689E+01</totfact>
</mgrwt>
</event>
<event>
 4    1  0.4880712E-008  0.1013710E+04  0.7818608E-02  0.9293634E-01
          2   -1    0    0  501    0  0.00000000000E+00  0.00000000000E+00  0.21139553279E+04  0.21139553279E+04  0.25500000000E-02 0. -1.
         -2   -1    0    0    0  501 -0.00000000000E+00 -0.00000000000E+00 -0.15464032022E+04  0.15464032022E+04  0.25500000000E-02 0.  1.
    8880022    1    1    2    0    0 -0.59619729161E+03 -0.80545991354E+03  0.17992408801E+04  0.20651576890E+04  0.15294330000E+03 0.  0.
    8880022    1    1    2    0    0  0.59619729161E+03  0.80545991354E+03 -0.12316887543E+04  0.15952008411E+04  0.15294330000E+03 0.  0.
<mgrwt>
<rscale>  0 0.10137103E+04</rscale>
<asrwt>0</asrwt>
<pdfrwt beam="1">  1        2 0.32522389E+00 0.10137103E+04</pdfrwt>
<pdfrwt beam="2">  1       -2 0.23790819E+00 0.10137103E+04</pdfrwt>
<totfact> 0.44096672E-01</totfact>
</mgrwt>
</event>
<event>
 4    1  0.4880711E-008  0.6220978E+03  0.7818608E-02  0.9860592E-01
          2   -1    0    0  501    0  0.00000000000E+00  0.00000000000E+00  0.52212138928E+03  0.52212138929E+03  0.25500000000E-02 0. -1.
         -2   -1    0    0    0  501 -0.00000000000E+00 -0.00000000000E+00 -0.10403932364E+04  0.10403932364E+04  0.25500000000E-02 0.  1.
    8880022    1    1    2    0    0  0.56262229092E+03 -0.21695663741E+03  0.15981030748E+03  0.64229666989E+03  0.15294330000E+03 0.  0.
    8880022    1    1    2    0    0 -0.56262229092E+03  0.21695663741E+03 -0.67808215457E+03  0.92021795577E+03  0.15294330000E+03 0.  1.
<mgrwt>
<rscale>  0 0.62209780E+03</rscale>
<asrwt>0</asrwt>
<pdfrwt beam="1">  1        2 0.80326368E-01 0.62209780E+03</pdfrwt>
<pdfrwt beam="2">  1       -2 0.16006050E+00 0.62209780E+03</pdfrwt>
<totfact> 0.15145914E+01</totfact>
</mgrwt>
</event>
<event>
 4    1  0.4880711E-008  0.2057277E+03  0.7818608E-02  0.1144995E+00
          2   -1    0    0  501    0  0.00000000000E+00  0.00000000000E+00  0.26510396636E+04  0.26510396636E+04  0.25500000000E-02 0. -1.
         -2   -1    0    0    0  501 -0.00000000000E+00 -0.00000000000E+00 -0.18087137918E+03  0.18087137920E+03  0.25500000000E-02 0.  1.
    8880022    1    1    2    0    0  0.11931999814E+03 -0.68519797157E+02 -0.11693674087E+03  0.23663913231E+03  0.15294330000E+03 0.  1.
    8880022    1    1    2    0    0 -0.11931999814E+03  0.68519797157E+02  0.25871050253E+04  0.25952719105E+04  0.15294330000E+03 0.  0.
<mgrwt>
<rscale>  0 0.20572768E+03</rscale>
<asrwt>0</asrwt>
<pdfrwt beam="1">  1        2 0.40785226E+00 0.20572768E+03</pdfrwt>
<pdfrwt beam="2">  1       -2 0.27826366E-01 0.20572768E+03</pdfrwt>
<totfact> 0.40444386E+01</totfact>
</mgrwt>
</event>
<event>
 4    1  0.4880711E-008  0.8606596E+03  0.7818608E-02  0.9476141E-01
         -2   -1    0    0    0  501 -0.00000000000E+00  0.00000000000E+00  0.24028053614E+04  0.24028053614E+04  0.25500000000E-02 0.  1.
          2   -1    0    0  501    0  0.00000000000E+00 -0.00000000000E+00 -0.10396906623E+04  0.10396906623E+04  0.25500000000E-02 0. -1.
    8880022    1    1    2    0    0  0.49525687342E+03  0.68706903757E+03  0.21252417523E+04  0.22928993418E+04  0.15294330000E+03 0.  0.
    8880022    1    1    2    0    0 -0.49525687342E+03 -0.68706903757E+03 -0.76212705316E+03  0.11495966820E+04  0.15294330000E+03 0.  0.
<mgrwt>
<rscale>  0 0.86065956E+03</rscale>
<asrwt>0</asrwt>
<pdfrwt beam="1">  1        2 0.15995241E+00 0.86065956E+03</pdfrwt>
<pdfrwt beam="2">  1       -2 0.36966236E+00 0.86065956E+03</pdfrwt>
<totfact> 0.28820321E-01</totfact>
</mgrwt>
</event>
<event>
 4    1  0.4880711E-008  0.4585903E+03  0.7818608E-02  0.1025191E+00
          2   -1    0    0  501    0  0.00000000000E+00  0.00000000000E+00  0.73310799277E+03  0.73310799277E+03  0.25500000000E-02 0. -1.
         -2   -1    0    0    0  501 -0.00000000000E+00 -0.00000000000E+00 -0.53843171210E+03  0.53843171210E+03  0.25500000000E-02 0.  1.
    8880022    1    1    2    0    0  0.31238007816E+03  0.29888471584E+03 -0.33723094598E+03  0.56923611142E+03  0.15294330000E+03 0.  0.
    8880022    1    1    2    0    0 -0.31238007816E+03 -0.29888471584E+03  0.53190722666E+03  0.70230359346E+03  0.15294330000E+03 0.  0.
<mgrwt>
<rscale>  0 0.45859027E+03</rscale>
<asrwt>0</asrwt>
<pdfrwt beam="1">  1        2 0.11278584E+00 0.45859027E+03</pdfrwt>
<pdfrwt beam="2">  1       -2 0.82835648E-01 0.45859027E+03</pdfrwt>
<totfact> 0.51417030E+01</totfact>
</mgrwt>
</event>
<event>
 4    1  0.4880711E-008  0.2316016E+03  0.7818608E-02  0.1125518E+00
         -2   -1    0    0    0  501 -0.00000000000E+00  0.00000000000E+00  0.15709276269E+03  0.15709276271E+03  0.25500000000E-02 0.  1.
          2   -1    0    0  501    0  0.00000000000E+00 -0.00000000000E+00 -0.12531832198E+04  0.12531832198E+04  0.25500000000E-02 0. -1.
    8880022    1    1    2    0    0  0.15646280381E+03 -0.75941058258E+02 -0.11494969118E+04  0.11725964594E+04  0.15294330000E+03 0.  0.
    8880022    1    1    2    0    0 -0.15646280381E+03  0.75941058258E+02  0.53406454680E+02  0.23767952314E+03  0.15294330000E+03 0.  0.
<mgrwt>
<rscale>  0 0.23160161E+03</rscale>
<asrwt>0</asrwt>
<pdfrwt beam="1">  1        2 0.19279741E+00 0.23160161E+03</pdfrwt>
<pdfrwt beam="2">  1       -2 0.24168118E-01 0.23160161E+03</pdfrwt>
<totfact> 0.28544847E+02</totfact>
</mgrwt>
</event>
<event>
 4    1  0.4880711E-008  0.3337718E+03  0.7818608E-02  0.1069480E+00
          2   -1    0    0  501    0  0.00000000000E+00  0.00000000000E+00  0.29390492710E+04  0.29390492710E+04  0.25500000000E-02 0. -1.
         -2   -1    0    0    0  501 -0.00000000000E+00 -0.00000000000E+00 -0.16585026468E+03  0.16585026470E+03  0.25500000000E-02 0.  1.
    8880022    1    1    2    0    0 -0.24643128251E+03  0.16517743355E+03  0.27501530142E+04  0.27703330515E+04  0.15294330000E+03 0.  0.
    8880022    1    1    2    0    0  0.24643128251E+03 -0.16517743355E+03  0.23045992042E+02  0.33456648415E+03  0.15294330000E+03 0.  1.
<mgrwt>
<rscale>  0 0.33377180E+03</rscale>
<asrwt>0</asrwt>
<pdfrwt beam="1">  1        2 0.45216136E+00 0.33377180E+03</pdfrwt>
<pdfrwt beam="2">  1       -2 0.25515429E-01 0.33377180E+03</pdfrwt>
<totfact> 0.30532213E+01</totfact>
</mgrwt>
</event>
<event>
 4    1  0.4880711E-008  0.4260151E+03  0.7818608E-02  0.1035126E+00
         -2   -1    0    0    0  501 -0.00000000000E+00  0.00000000000E+00  0.31580058497E+03  0.31580058498E+03  0.25500000000E-02 0.  1.
          2   -1    0    0  501    0  0.00000000000E+00 -0.00000000000E+00 -0.23918826404E+04  0.23918826404E+04  0.25500000000E-02 0. -1.
    8880022    1    1    2    0    0 -0.25145128575E+03  0.30800883967E+03 -0.22180841465E+04  0.22586248313E+04  0.15294330000E+03 0.  0.
    8880022    1    1    2    0    0  0.25145128575E+03 -0.30800883967E+03  0.14200209109E+03  0.44905839410E+03  0.15294330000E+03 0.  0.
<mgrwt>
<rscale>  0 0.42601508E+03</rscale>
<asrwt>0</asrwt>
<pdfrwt beam="1">  1        2 0.36798193E+00 0.42601508E+03</pdfrwt>
<pdfrwt beam="2">  1       -2 0.48584707E-01 0.42601508E+03</pdfrwt>
<totfact> 0.17975141E+01</totfact>
</mgrwt>
</event>
<event>
 4    1  0.4880711E-008  0.4735637E+03  0.7818608E-02  0.1020919E+00
         -2   -1    0    0    0  501 -0.00000000000E+00  0.00000000000E+00  0.15341881479E+03  0.15341881481E+03  0.25500000000E-02 0.  1.
          2   -1    0    0  501    0  0.00000000000E+00 -0.00000000000E+00 -0.15608387031E+04  0.15608387031E+04  0.25500000000E-02 0. -1.
    8880022    1    1    2    0    0 -0.17105295429E+03  0.41426053250E+03 -0.91965434618E+03  0.10344209353E+04  0.15294330000E+03 0.  0.
    8880022    1    1    2    0    0  0.17105295429E+03 -0.41426053250E+03 -0.48776554218E+03  0.67983658265E+03  0.15294330000E+03 0.  0.
<mgrwt>
<rscale>  0 0.47356368E+03</rscale>
<asrwt>0</asrwt>
<pdfrwt beam="1">  1        2 0.24012902E+00 0.47356368E+03</pdfrwt>
<pdfrwt beam="2">  1       -2 0.23602896E-01 0.47356368E+03</pdfrwt>
<totfact> 0.19464122E+02</totfact>
</mgrwt>
</event>
<event>
 4    1  0.4880711E-008  0.4641888E+03  0.7818608E-02  0.1023573E+00
         -2   -1    0    0    0  501 -0.00000000000E+00  0.00000000000E+00  0.34620971824E+03  0.34620971825E+03  0.25500000000E-02 0.  1.
          2   -1    0    0  501    0  0.00000000000E+00 -0.00000000000E+00 -0.20454111136E+04  0.20454111136E+04  0.25500000000E-02 0. -1.
    8880022    1    1    2    0    0 -0.10996867123E+03 -0.42424812336E+03  0.14782475429E+03  0.48715848532E+03  0.15294330000E+03 0.  0.
    8880022    1    1    2    0    0  0.10996867123E+03  0.42424812336E+03 -0.18470261496E+04  0.19044623465E+04  0.15294330000E+03 0. -1.
<mgrwt>
<rscale>  0 0.46418879E+03</rscale>
<asrwt>0</asrwt>
<pdfrwt beam="1">  1        2 0.31467863E+00 0.46418879E+03</pdfrwt>
<pdfrwt beam="2">  1       -2 0.53263035E-01 0.46418879E+03</pdfrwt>
<totfact> 0.22789728E+01</totfact>
</mgrwt>
</event>
<event>
 4    1  0.4880711E-008  0.5605475E+03  0.7818608E-02  0.9990817E-01
          2   -1    0    0  501    0  0.00000000000E+00  0.00000000000E+00  0.19348069977E+04  0.19348069977E+04  0.25500000000E-02 0. -1.
         -2   -1    0    0    0  501 -0.00000000000E+00 -0.00000000000E+00 -0.37181097016E+03  0.37181097017E+03  0.25500000000E-02 0.  1.
    8880022    1    1    2    0    0  0.49515078422E+03  0.21365283511E+03 -0.84035413459E+02  0.56681164137E+03  0.15294330000E+03 0.  0.
    8880022    1    1    2    0    0 -0.49515078422E+03 -0.21365283511E+03  0.16470314410E+04  0.17398063265E+04  0.15294330000E+03 0.  0.
<mgrwt>
<rscale>  0 0.56054749E+03</rscale>
<asrwt>0</asrwt>
<pdfrwt beam="1">  1        2 0.29766262E+00 0.56054749E+03</pdfrwt>
<pdfrwt beam="2">  1       -2 0.57201687E-01 0.56054749E+03</pdfrwt>
<totfact> 0.22122261E+01</totfact>
</mgrwt>
</event>
<event>
 4    1  0.4880711E-008  0.7878800E+03  0.7818608E-02  0.9577728E-01
          2   -1    0    0  501    0  0.00000000000E+00  0.00000000000E+00  0.82139120340E+03  0.82139120340E+03  0.25500000000E-02 0. -1.
         -2   -1    0    0    0  501 -0.00000000000E+00 -0.00000000000E+00 -0.77583733062E+03  0.77583733062E+03  0.25500000000E-02 0.  1.
    8880022    1    1    2    0    0 -0.63206144288E+03  0.44481637674E+03 -0.10577060512E+03  0.79494801749E+03  0.15294330000E+03 0.  0.
    8880022    1    1    2    0    0  0.63206144288E+03 -0.44481637674E+03  0.15132447790E+03  0.80228051654E+03  0.15294330000E+03 0.  0.
<mgrwt>
<rscale>  0 0.78788002E+03</rscale>
<asrwt>0</asrwt>
<pdfrwt beam="1">  1        2 0.12636788E+00 0.78788002E+03</pdfrwt>
<pdfrwt beam="2">  1       -2 0.11935959E+00 0.78788002E+03</pdfrwt>
<totfact> 0.18090697E+01</totfact>
</mgrwt>
</event>
<event>
 4    1  0.4880711E-008  0.5605823E+03  0.7818608E-02  0.9990738E-01
         -2   -1    0    0    0  501 -0.00000000000E+00  0.00000000000E+00  0.30851523828E+03  0.30851523829E+03  0.25500000000E-02 0.  1.
          2   -1    0    0  501    0  0.00000000000E+00 -0.00000000000E+00 -0.20181446350E+04  0.20181446350E+04  0.25500000000E-02 0. -1.
    8880022    1    1    2    0    0 -0.50793687254E+03  0.18127613001E+03 -0.36107501986E+02  0.56174398663E+03  0.15294330000E+03 0.  1.
    8880022    1    1    2    0    0  0.50793687254E+03 -0.18127613001E+03 -0.16735218948E+04  0.17649158867E+04  0.15294330000E+03 0.  0.
<mgrwt>
<rscale>  0 0.56058234E+03</rscale>
<asrwt>0</asrwt>
<pdfrwt beam="1">  1        2 0.31048378E+00 0.56058234E+03</pdfrwt>
<pdfrwt beam="2">  1       -2 0.47463884E-01 0.56058234E+03</pdfrwt>
<totfact> 0.29203995E+01</totfact>
</mgrwt>
</event>
<event>
 4    1  0.4880711E-008  0.4476825E+03  0.7818608E-02  0.1028415E+00
         -2   -1    0    0    0  501 -0.00000000000E+00  0.00000000000E+00  0.40630120232E+03  0.40630120232E+03  0.25500000000E-02 0.  1.
          2   -1    0    0  501    0  0.00000000000E+00 -0.00000000000E+00 -0.55396348536E+03  0.55396348537E+03  0.25500000000E-02 0. -1.
    8880022    1    1    2    0    0 -0.38210959337E+03 -0.17612559789E+03 -0.23274481147E+03  0.50456889307E+03  0.15294330000E+03 0. -1.
    8880022    1    1    2    0    0  0.38210959337E+03  0.17612559789E+03  0.85082528421E+02  0.45569579462E+03  0.15294330000E+03 0.  0.
<mgrwt>
<rscale>  0 0.44768250E+03</rscale>
<asrwt>0</asrwt>
<pdfrwt beam="1">  1        2 0.85225152E-01 0.44768250E+03</pdfrwt>
<pdfrwt beam="2">  1       -2 0.62507877E-01 0.44768250E+03</pdfrwt>
<totfact> 0.13349091E+02</totfact>
</mgrwt>
</event>
<event>
 4    1  0.4880711E-008  0.5170911E+03  0.7818608E-02  0.1009412E+00
          2   -1    0    0  501    0  0.00000000000E+00  0.00000000000E+00  0.85024938654E+03  0.85024938655E+03  0.25500000000E-02 0. -1.
         -2   -1    0    0    0  501 -0.00000000000E+00 -0.00000000000E+00 -0.14482074220E+04  0.14482074220E+04  0.25500000000E-02 0.  1.
    8880022    1    1    2    0    0 -0.35098089648E+03 -0.34756868985E+03 -0.13158035399E+04  0.14137617170E+04  0.15294330000E+03 0.  0.
    8880022    1    1    2    0    0  0.35098089648E+03  0.34756868985E+03  0.71784550440E+03  0.88469509158E+03  0.15294330000E+03 0.  0.
<mgrwt>
<rscale>  0 0.51709113E+03</rscale>
<asrwt>0</asrwt>
<pdfrwt beam="1">  1        2 0.13080760E+00 0.51709113E+03</pdfrwt>
<pdfrwt beam="2">  1       -2 0.22280114E+00 0.51709113E+03</pdfrwt>
<totfact> 0.32213952E+00</totfact>
</mgrwt>
</event>
<event>
 4    1  0.4880711E-008  0.1909549E+03  0.7818608E-02  0.1157603E+00
          2   -1    0    0  501    0  0.00000000000E+00  0.00000000000E+00  0.21099441269E+04  0.21099441269E+04  0.25500000000E-02 0. -1.
         -2   -1    0    0    0  501 -0.00000000000E+00 -0.00000000000E+00 -0.25279989032E+03  0.25279989033E+03  0.25500000000E-02 0.  1.
    8880022    1    1    2    0    0 -0.11421626123E+03 -0.51737425016E+01 -0.21170473667E+03  0.28510115834E+03  0.15294330000E+03 0.  0.
    8880022    1    1    2    0    0  0.11421626123E+03  0.51737425016E+01  0.20688489732E+04  0.20776428589E+04  0.15294330000E+03 0.  0.
<mgrwt>
<rscale>  0 0.19095490E+03</rscale>
<asrwt>0</asrwt>
<pdfrwt beam="1">  1        2 0.32460678E+00 0.19095490E+03</pdfrwt>
<pdfrwt beam="2">  1       -2 0.38892291E-01 0.19095490E+03</pdfrwt>
<totfact> 0.42891183E+01</totfact>
</mgrwt>
</event>
<event>
 4    1  0.4880711E-008  0.2625582E+03  0.7818608E-02  0.1105616E+00
         -2   -1    0    0    0  501 -0.00000000000E+00  0.00000000000E+00  0.18683016111E+03  0.18683016113E+03  0.25500000000E-02 0.  1.
          2   -1    0    0  501    0  0.00000000000E+00 -0.00000000000E+00 -0.12272091770E+04  0.12272091770E+04  0.25500000000E-02 0. -1.
    8880022    1    1    2    0    0  0.11103650666E+03 -0.18225275118E+03  0.71063717677E+02  0.27200528692E+03  0.15294330000E+03 0.  0.
    8880022    1    1    2    0    0 -0.11103650666E+03  0.18225275118E+03 -0.11114427336E+04  0.11420340512E+04  0.15294330000E+03 0.  0.
<mgrwt>
<rscale>  0 0.26255823E+03</rscale>
<asrwt>0</asrwt>
<pdfrwt beam="1">  1        2 0.18880141E+00 0.26255823E+03</pdfrwt>
<pdfrwt beam="2">  1       -2 0.28743102E-01 0.26255823E+03</pdfrwt>
<totfact> 0.21552228E+02</totfact>
</mgrwt>
</event>
<event>
 4    1  0.4880711E-008  0.2520952E+03  0.7818608E-02  0.1111988E+00
          2   -1    0    0  501    0  0.00000000000E+00  0.00000000000E+00  0.33294917105E+04  0.33294917105E+04  0.25500000000E-02 0. -1.
         -2   -1    0    0    0  501 -0.00000000000E+00 -0.00000000000E+00 -0.44240732700E+02  0.44240732774E+02  0.25500000000E-02 0.  1.
    8880022    1    1    2    0    0 -0.72659421800E+02  0.18676442101E+03  0.37068860948E+03  0.44828789716E+03  0.15294330000E+03 0.  0.
    8880022    1    1    2    0    0  0.72659421800E+02 -0.18676442101E+03  0.29145623683E+04  0.29254445461E+04  0.15294330000E+03 0. -1.
<mgrwt>
<rscale>  0 0.25209521E+03</rscale>
<asrwt>0</asrwt>
<pdfrwt beam="1">  1        2 0.51222951E+00 0.25209521E+03</pdfrwt>
<pdfrwt beam="2">  1       -2 0.68062664E-02 0.25209521E+03</pdfrwt>
<totfact> 0.16056303E+02</totfact>
</mgrwt>
</event>
<event>
 4    1  0.4880711E-008  0.5274352E+03  0.7818608E-02  0.1006856E+00
         -2   -1    0    0    0  501 -0.00000000000E+00  0.00000000000E+00  0.35063662528E+03  0.35063662529E+03  0.25500000000E-02 0.  1.
          2   -1    0    0  501    0  0.00000000000E+00 -0.00000000000E+00 -0.89839433580E+03  0.89839433581E+03  0.25500000000E-02 0. -1.
    8880022    1    1    2    0    0  0.47202937441E+03 -0.17884220718E+03 -0.60360611975E+02  0.53087787849E+03  0.15294330000E+03 0.  0.
    8880022    1    1    2    0    0 -0.47202937441E+03  0.17884220718E+03 -0.48739709855E+03  0.71815308261E+03  0.15294330000E+03 0.  0.
<mgrwt>
<rscale>  0 0.52743523E+03</rscale>
<asrwt>0</asrwt>
<pdfrwt beam="1">  1        2 0.13821451E+00 0.52743523E+03</pdfrwt>
<pdfrwt beam="2">  1       -2 0.53944097E-01 0.52743523E+03</pdfrwt>
<totfact> 0.98177120E+01</totfact>
</mgrwt>
</event>
<event>
 4    1  0.4880711E-008  0.3432469E+03  0.7818608E-02  0.1065421E+00
          2   -1    0    0  501    0  0.00000000000E+00  0.00000000000E+00  0.28514653333E+04  0.28514653333E+04  0.25500000000E-02 0. -1.
         -2   -1    0    0    0  501 -0.00000000000E+00 -0.00000000000E+00 -0.78681529990E+02  0.78681530032E+02  0.25500000000E-02 0.  1.
    8880022    1    1    2    0    0 -0.19890993863E+03  0.23422560626E+03  0.37680508684E+03  0.50970631230E+03  0.15294330000E+03 0.  0.
    8880022    1    1    2    0    0  0.19890993863E+03 -0.23422560626E+03  0.23959787165E+04  0.24204405510E+04  0.15294330000E+03 0.  0.
<mgrwt>
<rscale>  0 0.34324692E+03</rscale>
<asrwt>0</asrwt>
<pdfrwt beam="1">  1        2 0.43868695E+00 0.34324692E+03</pdfrwt>
<pdfrwt beam="2">  1       -2 0.12104851E-01 0.34324692E+03</pdfrwt>
<totfact> 0.12176419E+02</totfact>
</mgrwt>
</event>
<event>
 4    1  0.4880711E-008  0.6289310E+03  0.7818608E-02  0.9847137E-01
          2   -1    0    0  501    0  0.00000000000E+00  0.00000000000E+00  0.11319159765E+04  0.11319159765E+04  0.25500000000E-02 0. -1.
         -2   -1    0    0    0  501 -0.00000000000E+00 -0.00000000000E+00 -0.14461551933E+04  0.14461551933E+04  0.25500000000E-02 0.  1.
    8880022    1    1    2    0    0 -0.60972245832E+03  0.20026383028E+02 -0.12796583293E+04  0.14258610118E+04  0.15294330000E+03 0.  0.
    8880022    1    1    2    0    0  0.60972245832E+03 -0.20026383028E+02  0.96541911259E+03  0.11522101580E+04  0.15294330000E+03 0.  0.
<mgrwt>
<rscale>  0 0.62893099E+03</rscale>
<asrwt>0</asrwt>
<pdfrwt beam="1">  1        2 0.17414092E+00 0.62893099E+03</pdfrwt>
<pdfrwt beam="2">  1       -2 0.22248541E+00 0.62893099E+03</pdfrwt>
<totfact> 0.20902733E+00</totfact>
</mgrwt>
</event>
<event>
 4    1  0.5438539E-008  0.5357951E+03  0.7818608E-02  0.1004836E+00
         -2   -1    0    0    0  501 -0.00000000000E+00  0.00000000000E+00  0.42264469381E+03  0.42264469382E+03  0.25500000000E-02 0.  1.
          2   -1    0    0  501    0  0.00000000000E+00 -0.00000000000E+00 -0.32613150442E+04  0.32613150442E+04  0.25500000000E-02 0. -1.
    8880022    1    1    2    0    0  0.18775070924E+02 -0.51315909215E+03  0.21964268199E+03  0.57906762810E+03  0.15294330000E+03 0.  0.
    8880022    1    1    2    0    0 -0.18775070924E+02  0.51315909215E+03 -0.30583130324E+04  0.31048921099E+04  0.15294330000E+03 0.  0.
<mgrwt>
<rscale>  0 0.53579512E+03</rscale>
<asrwt>0</asrwt>
<pdfrwt beam="1">  1        2 0.50174076E+00 0.53579512E+03</pdfrwt>
<pdfrwt beam="2">  1       -2 0.65022263E-01 0.53579512E+03</pdfrwt>
<totfact> 0.29309474E+00</totfact>
</mgrwt>
</event>
<event>
 4    1  0.4880711E-008  0.4996719E+03  0.7818608E-02  0.1013865E+00
         -2   -1    0    0    0  501 -0.00000000000E+00  0.00000000000E+00  0.35175000525E+03  0.35175000526E+03  0.25500000000E-02 0.  1.
          2   -1    0    0  501    0  0.00000000000E+00 -0.00000000000E+00 -0.16104796060E+04  0.16104796060E+04  0.25500000000E-02 0. -1.
    8880022    1    1    2    0    0  0.38709817021E+03  0.27646952815E+03  0.10435029265E+03  0.51045179005E+03  0.15294330000E+03 0.  0.
    8880022    1    1    2    0    0 -0.38709817021E+03 -0.27646952815E+03 -0.13630798934E+04  0.14517778212E+04  0.15294330000E+03 0.  0.
<mgrwt>
<rscale>  0 0.49967194E+03</rscale>
<asrwt>0</asrwt>
<pdfrwt beam="1">  1        2 0.24776609E+00 0.49967194E+03</pdfrwt>
<pdfrwt beam="2">  1       -2 0.54115386E-01 0.49967194E+03</pdfrwt>
<totfact> 0.37541171E+01</totfact>
</mgrwt>
</event>
<event>
 4    1  0.4880711E-008  0.6742117E+03  0.7818608E-02  0.9762379E-01
          2   -1    0    0  501    0  0.00000000000E+00  0.00000000000E+00  0.14805766766E+04  0.14805766766E+04  0.25500000000E-02 0. -1.
         -2   -1    0    0    0  501 -0.00000000000E+00 -0.00000000000E+00 -0.61833698321E+03  0.61833698321E+03  0.25500000000E-02 0.  1.
    8880022    1    1    2    0    0  0.64589299232E+03  0.11828757158E+03 -0.31353645011E+03  0.74354990800E+03  0.15294330000E+03 0.  0.
    8880022    1    1    2    0    0 -0.64589299232E+03 -0.11828757158E+03  0.11757761435E+04  0.13553637518E+04  0.15294330000E+03 0.  0.
<mgrwt>
<rscale>  0 0.67421166E+03</rscale>
<asrwt>0</asrwt>
<pdfrwt beam="1">  1        2 0.22778103E+00 0.67421166E+03</pdfrwt>
<pdfrwt beam="2">  1       -2 0.95128767E-01 0.67421166E+03</pdfrwt>
<totfact> 0.12517943E+01</totfact>
</mgrwt>
</event>
<event>
 4    1  0.4880711E-008  0.4270752E+03  0.7818608E-02  0.1034788E+00
          2   -1    0    0  501    0  0.00000000000E+00  0.00000000000E+00  0.63213399913E+03  0.63213399914E+03  0.25500000000E-02 0. -1.
         -2   -1    0    0    0  501 -0.00000000000E+00 -0.00000000000E+00 -0.57767620369E+03  0.57767620370E+03  0.25500000000E-02 0.  1.
    8880022    1    1    2    0    0  0.17149772178E+03  0.35998623140E+03  0.45518526822E+03  0.62416891687E+03  0.15294330000E+03 0. -1.
    8880022    1    1    2    0    0 -0.17149772178E+03 -0.35998623140E+03 -0.40072747278E+03  0.58564128596E+03  0.15294330000E+03 0.  0.
<mgrwt>
<rscale>  0 0.42707518E+03</rscale>
<asrwt>0</asrwt>
<pdfrwt beam="1">  1        2 0.97251385E-01 0.42707518E+03</pdfrwt>
<pdfrwt beam="2">  1       -2 0.88873262E-01 0.42707518E+03</pdfrwt>
<totfact> 0.52824869E+01</totfact>
</mgrwt>
</event>
<event>
 4    1  0.4880711E-008  0.1641644E+04  0.7818608E-02  0.8795365E-01
          2   -1    0    0  501    0  0.00000000000E+00  0.00000000000E+00  0.41701300023E+04  0.41701300023E+04  0.25500000000E-02 0. -1.
         -2   -1    0    0    0  501 -0.00000000000E+00 -0.00000000000E+00 -0.66033825435E+03  0.66033825435E+03  0.25500000000E-02 0.  1.
    8880022    1    1    2    0    0 -0.14671858830E+04 -0.72039584937E+03  0.14022647036E+04  0.21590142536E+04  0.15294330000E+03 0.  0.
    8880022    1    1    2    0    0  0.14671858830E+04  0.72039584937E+03  0.21075270443E+04  0.26714540031E+04  0.15294330000E+03 0.  0.
<mgrwt>
<rscale>  0 0.16416444E+04</rscale>
<asrwt>0</asrwt>
<pdfrwt beam="1">  1        2 0.64155845E+00 0.16416444E+04</pdfrwt>
<pdfrwt beam="2">  1       -2 0.10159050E+00 0.16416444E+04</pdfrwt>
<totfact> 0.18756721E-01</totfact>
</mgrwt>
</event>
<event>
 4    1  0.4880711E-008  0.3057189E+03  0.7818608E-02  0.1082416E+00
          2   -1    0    0  501    0  0.00000000000E+00  0.00000000000E+00  0.60065688319E+03  0.60065688319E+03  0.25500000000E-02 0. -1.
         -2   -1    0    0    0  501 -0.00000000000E+00 -0.00000000000E+00 -0.20296497271E+03  0.20296497272E+03  0.25500000000E-02 0.  1.
    8880022    1    1    2    0    0  0.24688591974E+03 -0.95497196743E+02  0.47457489840E+01  0.30575569839E+03  0.15294330000E+03 0.  1.
    8880022    1    1    2    0    0 -0.24688591974E+03  0.95497196743E+02  0.39294616150E+03  0.49786615752E+03  0.15294330000E+03 0. -1.
<mgrwt>
<rscale>  0 0.30571887E+03</rscale>
<asrwt>0</asrwt>
<pdfrwt beam="1">  1        2 0.92408749E-01 0.30571887E+03</pdfrwt>
<pdfrwt beam="2">  1       -2 0.31225381E-01 0.30571887E+03</pdfrwt>
<totfact> 0.48072956E+02</totfact>
</mgrwt>
</event>
<event>
 4    1  0.4880711E-008  0.7441604E+03  0.7818608E-02  0.9644557E-01
         -2   -1    0    0    0  501 -0.00000000000E+00  0.00000000000E+00  0.22753069196E+03  0.22753069197E+03  0.25500000000E-02 0.  1.
          2   -1    0    0  501    0  0.00000000000E+00 -0.00000000000E+00 -0.32092607355E+04  0.32092607355E+04  0.25500000000E-02 0. -1.
    8880022    1    1    2    0    0  0.49682736248E+03 -0.53248999270E+03 -0.64619380884E+03  0.98556639149E+03  0.15294330000E+03 0.  0.
    8880022    1    1    2    0    0 -0.49682736248E+03  0.53248999270E+03 -0.23355362346E+04  0.24512250359E+04  0.15294330000E+03 0.  0.
<mgrwt>
<rscale>  0 0.74416038E+03</rscale>
<asrwt>0</asrwt>
<pdfrwt beam="1">  1        2 0.49373239E+00 0.74416038E+03</pdfrwt>
<pdfrwt beam="2">  1       -2 0.35004724E-01 0.74416038E+03</pdfrwt>
<totfact> 0.10485547E+01</totfact>
</mgrwt>
</event>
<event>
 4    1  0.4880711E-008  0.6070231E+03  0.7818608E-02  0.9890942E-01
         -2   -1    0    0    0  501 -0.00000000000E+00  0.00000000000E+00  0.11724446440E+04  0.11724446440E+04  0.25500000000E-02 0.  1.
          2   -1    0    0  501    0  0.00000000000E+00 -0.00000000000E+00 -0.57275213854E+03  0.57275213855E+03  0.25500000000E-02 0. -1.
    8880022    1    1    2    0    0  0.25310981482E+03  0.53011394213E+03  0.88603450912E+03  0.10740270827E+04  0.15294330000E+03 0.  0.
    8880022    1    1    2    0    0 -0.25310981482E+03 -0.53011394213E+03 -0.28634200363E+03  0.67116969989E+03  0.15294330000E+03 0.  0.
<mgrwt>
<rscale>  0 0.60702308E+03</rscale>
<asrwt>0</asrwt>
<pdfrwt beam="1">  1        2 0.88115714E-01 0.60702308E+03</pdfrwt>
<pdfrwt beam="2">  1       -2 0.18037610E+00 0.60702308E+03</pdfrwt>
<totfact> 0.97833058E+00</totfact>
</mgrwt>
</event>
<event>
 4    1  0.4880711E-008  0.5856107E+03  0.7818608E-02  0.9935717E-01
          2   -1    0    0  501    0  0.00000000000E+00  0.00000000000E+00  0.17254913765E+04  0.17254913765E+04  0.25500000000E-02 0. -1.
         -2   -1    0    0    0  501 -0.00000000000E+00 -0.00000000000E+00 -0.25722397185E+03  0.25722397186E+03  0.25500000000E-02 0.  1.
    8880022    1    1    2    0    0  0.56345339239E+03 -0.45480902662E+02  0.12068049897E+04  0.13413866609E+04  0.15294330000E+03 0.  0.
    8880022    1    1    2    0    0 -0.56345339239E+03  0.45480902662E+02  0.26146241495E+03  0.64132868745E+03  0.15294330000E+03 0.  0.
<mgrwt>
<rscale>  0 0.58561070E+03</rscale>
<asrwt>0</asrwt>
<pdfrwt beam="1">  1        2 0.26546022E+00 0.58561070E+03</pdfrwt>
<pdfrwt beam="2">  1       -2 0.39572918E-01 0.58561070E+03</pdfrwt>
<totfact> 0.59920544E+01</totfact>
</mgrwt>
</event>
<event>
 4    1  0.4880711E-008  0.1141289E+04  0.7818608E-02  0.9165858E-01
          2   -1    0    0  501    0  0.00000000000E+00  0.00000000000E+00  0.12860632446E+04  0.12860632446E+04  0.25500000000E-02 0. -1.
         -2   -1    0    0    0  501 -0.00000000000E+00 -0.00000000000E+00 -0.15901887072E+04  0.15901887072E+04  0.25500000000E-02 0.  1.
    8880022    1    1    2    0    0  0.11144096820E+04 -0.19297554964E+03 -0.10186299706E+04  0.15297539580E+04  0.15294330000E+03 0.  0.
    8880022    1    1    2    0    0 -0.11144096820E+04  0.19297554964E+03  0.71450450800E+03  0.13464979937E+04  0.15294330000E+03 0.  0.
<mgrwt>
<rscale>  0 0.11412888E+04</rscale>
<asrwt>0</asrwt>
<pdfrwt beam="1">  1        2 0.19785588E+00 0.11412888E+04</pdfrwt>
<pdfrwt beam="2">  1       -2 0.24464442E+00 0.11412888E+04</pdfrwt>
<totfact> 0.11429757E+00</totfact>
</mgrwt>
</event>
<event>
 4    1  0.4880711E-008  0.5037644E+03  0.7818608E-02  0.1012801E+00
         -2   -1    0    0    0  501 -0.00000000000E+00  0.00000000000E+00  0.17548507392E+03  0.17548507394E+03  0.25500000000E-02 0.  1.
          2   -1    0    0  501    0  0.00000000000E+00 -0.00000000000E+00 -0.15565358392E+04  0.15565358392E+04  0.25500000000E-02 0. -1.
    8880022    1    1    2    0    0 -0.44374617021E+03  0.18296525163E+03 -0.92114200768E+03  0.10498958035E+04  0.15294330000E+03 0.  0.
    8880022    1    1    2    0    0  0.44374617021E+03 -0.18296525163E+03 -0.45990875764E+03  0.68212510967E+03  0.15294330000E+03 0. -1.
<mgrwt>
<rscale>  0 0.50376443E+03</rscale>
<asrwt>0</asrwt>
<pdfrwt beam="1">  1        2 0.23946704E+00 0.50376443E+03</pdfrwt>
<pdfrwt beam="2">  1       -2 0.26997705E-01 0.50376443E+03</pdfrwt>
<totfact> 0.15320703E+02</totfact>
</mgrwt>
</event>
<event>
 4    1  0.4880711E-008  0.1940677E+03  0.7818608E-02  0.1154843E+00
          2   -1    0    0  501    0  0.00000000000E+00  0.00000000000E+00  0.70345817584E+03  0.70345817585E+03  0.25500000000E-02 0. -1.
         -2   -1    0    0    0  501 -0.00000000000E+00 -0.00000000000E+00 -0.62726067135E+02  0.62726067187E+02  0.25500000000E-02 0.  1.
    8880022    1    1    2    0    0 -0.22125061276E+02  0.11739285397E+03  0.46697961706E+03  0.50569972935E+03  0.15294330000E+03 0.  0.
    8880022    1    1    2    0    0  0.22125061276E+02 -0.11739285397E+03  0.17375249165E+03  0.26048451368E+03  0.15294330000E+03 0.  0.
<mgrwt>
<rscale>  0 0.19406765E+03</rscale>
<asrwt>0</asrwt>
<pdfrwt beam="1">  1        2 0.10822433E+00 0.19406765E+03</pdfrwt>
<pdfrwt beam="2">  1       -2 0.96501644E-02 0.19406765E+03</pdfrwt>
<totfact> 0.28983792E+03</totfact>
</mgrwt>
</event>
<event>
 4    1  0.4880711E-008  0.6833051E+03  0.7818608E-02  0.9746216E-01
         -2   -1    0    0    0  501 -0.00000000000E+00  0.00000000000E+00  0.12308819850E+04  0.12308819850E+04  0.25500000000E-02 0.  1.
          2   -1    0    0  501    0  0.00000000000E+00 -0.00000000000E+00 -0.60213767761E+03  0.60213767762E+03  0.25500000000E-02 0. -1.
    8880022    1    1    2    0    0 -0.33716562127E+03 -0.57431142951E+03  0.87188887039E+03  0.11077437111E+04  0.15294330000E+03 0.  0.
    8880022    1    1    2    0    0  0.33716562127E+03  0.57431142951E+03 -0.24314456302E+03  0.72527595147E+03  0.15294330000E+03 0.  0.
<mgrwt>
<rscale>  0 0.68330515E+03</rscale>
<asrwt>0</asrwt>
<pdfrwt beam="1">  1        2 0.92636567E-01 0.68330515E+03</pdfrwt>
<pdfrwt beam="2">  1       -2 0.18936646E+00 0.68330515E+03</pdfrwt>
<totfact> 0.79367296E+00</totfact>
</mgrwt>
</event>
<event>
 4    1  0.4880711E-008  0.1425911E+04  0.7818608E-02  0.8935273E-01
          2   -1    0    0  501    0  0.00000000000E+00  0.00000000000E+00  0.95289327901E+03  0.95289327901E+03  0.25500000000E-02 0. -1.
         -2   -1    0    0    0  501 -0.00000000000E+00 -0.00000000000E+00 -0.26346146482E+04  0.26346146482E+04  0.25500000000E-02 0.  1.
    8880022    1    1    2    0    0  0.12459443821E+04  0.67635334804E+03 -0.16229754493E+04  0.21603870525E+04  0.15294330000E+03 0.  0.
    8880022    1    1    2    0    0 -0.12459443821E+04 -0.67635334804E+03 -0.58745919842E+02  0.14271208746E+04  0.15294330000E+03 0.  0.
<mgrwt>
<rscale>  0 0.14259113E+04</rscale>
<asrwt>0</asrwt>
<pdfrwt beam="1">  1        2 0.14659897E+00 0.14259113E+04</pdfrwt>
<pdfrwt beam="2">  1       -2 0.40532533E+00 0.14259113E+04</pdfrwt>
<totfact> 0.17750088E-01</totfact>
</mgrwt>
</event>
<event>
 4    1  0.4959399E-008  0.5087514E+03  0.7818608E-02  0.1011520E+00
         -2   -1    0    0    0  501 -0.00000000000E+00  0.00000000000E+00  0.50227839097E+03  0.50227839098E+03  0.25500000000E-02 0.  1.
          2   -1    0    0  501    0  0.00000000000E+00 -0.00000000000E+00 -0.28337107782E+04  0.28337107782E+04  0.25500000000E-02 0. -1.
    8880022    1    1    2    0    0 -0.48414773171E+03  0.32207965168E+02 -0.26744455028E+04  0.27224045951E+04  0.15294330000E+03 0.  0.
    8880022    1    1    2    0    0  0.48414773171E+03 -0.32207965168E+02  0.34301311552E+03  0.61358457410E+03  0.15294330000E+03 0.  0.
<mgrwt>
<rscale>  0 0.50875144E+03</rscale>
<asrwt>0</asrwt>
<pdfrwt beam="1">  1        2 0.43595549E+00 0.50875144E+03</pdfrwt>
<pdfrwt beam="2">  1       -2 0.77273600E-01 0.50875144E+03</pdfrwt>
<totfact> 0.37046201E+00</totfact>
</mgrwt>
</event>
<event>
 4    1  0.4880711E-008  0.3115154E+03  0.7818608E-02  0.1079622E+00
          2   -1    0    0  501    0  0.00000000000E+00  0.00000000000E+00  0.32695733221E+03  0.32695733222E+03  0.25500000000E-02 0. -1.
         -2   -1    0    0    0  501 -0.00000000000E+00 -0.00000000000E+00 -0.49304880979E+03  0.49304880979E+03  0.25500000000E-02 0.  1.
    8880022    1    1    2    0    0  0.27138096172E+03 -0.15969543625E+01  0.17562222502E+03  0.35761011672E+03  0.15294330000E+03 0.  0.
    8880022    1    1    2    0    0 -0.27138096172E+03  0.15969543625E+01 -0.34171370260E+03  0.46239602529E+03  0.15294330000E+03 0.  0.
<mgrwt>
<rscale>  0 0.31151538E+03</rscale>
<asrwt>0</asrwt>
<pdfrwt beam="1">  1        2 0.50301128E-01 0.31151538E+03</pdfrwt>
<pdfrwt beam="2">  1       -2 0.75853663E-01 0.31151538E+03</pdfrwt>
<totfact> 0.16028490E+02</totfact>
</mgrwt>
</event>
<event>
 4    1  0.4880711E-008  0.7077139E+03  0.7818608E-02  0.9704131E-01
         -2   -1    0    0    0  501 -0.00000000000E+00  0.00000000000E+00  0.52286279922E+03  0.52286279923E+03  0.25500000000E-02 0.  1.
          2   -1    0    0  501    0  0.00000000000E+00 -0.00000000000E+00 -0.98389619536E+03  0.98389619537E+03  0.25500000000E-02 0. -1.
    8880022    1    1    2    0    0  0.45268065602E+03 -0.52206090238E+03 -0.10809613162E+03  0.71592163595E+03  0.15294330000E+03 0.  0.
    8880022    1    1    2    0    0 -0.45268065602E+03  0.52206090238E+03 -0.35293726452E+03  0.79083735865E+03  0.15294330000E+03 0.  0.
<mgrwt>
<rscale>  0 0.70771394E+03</rscale>
<asrwt>0</asrwt>
<pdfrwt beam="1">  1        2 0.15136865E+00 0.70771394E+03</pdfrwt>
<pdfrwt beam="2">  1       -2 0.80440431E-01 0.70771394E+03</pdfrwt>
<totfact> 0.35923784E+01</totfact>
</mgrwt>
</event>
<event>
 4    1  0.4880711E-008  0.8699141E+03  0.7818608E-02  0.9463992E-01
         -2   -1    0    0    0  501 -0.00000000000E+00  0.00000000000E+00  0.47045730084E+03  0.47045730085E+03  0.25500000000E-02 0.  1.
          2   -1    0    0  501    0  0.00000000000E+00 -0.00000000000E+00 -0.20973971541E+04  0.20973971541E+04  0.25500000000E-02 0. -1.
    8880022    1    1    2    0    0  0.73368579114E+03 -0.44166063242E+03 -0.14333246382E+04  0.16766544444E+04  0.15294330000E+03 0.  0.
    8880022    1    1    2    0    0 -0.73368579114E+03  0.44166063242E+03 -0.19361521507E+03  0.89120001059E+03  0.15294330000E+03 0.  0.
<mgrwt>
<rscale>  0 0.86991414E+03</rscale>
<asrwt>0</asrwt>
<pdfrwt beam="1">  1        2 0.32267648E+00 0.86991414E+03</pdfrwt>
<pdfrwt beam="2">  1       -2 0.72378047E-01 0.86991414E+03</pdfrwt>
<totfact> 0.10389984E+01</totfact>
</mgrwt>
</event>
<event>
 4    1  0.4880711E-008  0.2236075E+03  0.7818608E-02  0.1131222E+00
          2   -1    0    0  501    0  0.00000000000E+00  0.00000000000E+00  0.15923623093E+04  0.15923623093E+04  0.25500000000E-02 0. -1.
         -2   -1    0    0    0  501 -0.00000000000E+00 -0.00000000000E+00 -0.10076036746E+03  0.10076036749E+03  0.25500000000E-02 0.  1.
    8880022    1    1    2    0    0 -0.17815390461E+02 -0.16214579541E+03  0.43426029119E+02  0.22778525002E+03  0.15294330000E+03 0.  0.
    8880022    1    1    2    0    0  0.17815390461E+02  0.16214579541E+03  0.14481759127E+04  0.14653374268E+04  0.15294330000E+03 0.  0.
<mgrwt>
<rscale>  0 0.22360747E+03</rscale>
<asrwt>0</asrwt>
<pdfrwt beam="1">  1        2 0.24497882E+00 0.22360747E+03</pdfrwt>
<pdfrwt beam="2">  1       -2 0.15501595E-01 0.22360747E+03</pdfrwt>
<totfact> 0.39989448E+02</totfact>
</mgrwt>
</event>
<event>
 4    1  0.4880711E-008  0.8056609E+03  0.7818608E-02  0.9551859E-01
          2   -1    0    0  501    0  0.00000000000E+00  0.00000000000E+00  0.49683179902E+03  0.49683179903E+03  0.25500000000E-02 0. -1.
         -2   -1    0    0    0  501 -0.00000000000E+00 -0.00000000000E+00 -0.15839260222E+04  0.15839260222E+04  0.25500000000E-02 0.  1.
    8880022    1    1    2    0    0  0.26494235654E+03 -0.74532100188E+03 -0.97898995459E+03  0.12678765052E+04  0.15294330000E+03 0.  0.
    8880022    1    1    2    0    0 -0.26494235654E+03  0.74532100188E+03 -0.10810426860E+03  0.81288131608E+03  0.15294330000E+03 0.  0.
<mgrwt>
<rscale>  0 0.80566091E+03</rscale>
<asrwt>0</asrwt>
<pdfrwt beam="1">  1        2 0.76435663E-01 0.80566091E+03</pdfrwt>
<pdfrwt beam="2">  1       -2 0.24368092E+00 0.80566091E+03</pdfrwt>
<totfact> 0.44504567E+00</totfact>
</mgrwt>
</event>
<event>
 4    1  0.4880711E-008  0.4236996E+03  0.7818608E-02  0.1035869E+00
          2   -1    0    0  501    0  0.00000000000E+00  0.00000000000E+00  0.28894379178E+03  0.28894379180E+03  0.25500000000E-02 0. -1.
         -2   -1    0    0    0  501 -0.00000000000E+00 -0.00000000000E+00 -0.16920853038E+04  0.16920853038E+04  0.25500000000E-02 0.  1.
    8880022    1    1    2    0    0  0.39278013296E+03 -0.43051954097E+02 -0.14895241427E+04  0.15486134212E+04  0.15294330000E+03 0.  0.
    8880022    1    1    2    0    0 -0.39278013296E+03  0.43051954097E+02  0.86382630663E+02  0.43241567443E+03  0.15294330000E+03 0. -1.
<mgrwt>
<rscale>  0 0.42369961E+03</rscale>
<asrwt>0</asrwt>
<pdfrwt beam="1">  1        2 0.44452892E-01 0.42369961E+03</pdfrwt>
<pdfrwt beam="2">  1       -2 0.26032081E+00 0.42369961E+03</pdfrwt>
<totfact> 0.68842571E+00</totfact>
</mgrwt>
</event>
<event>
 4    1  0.4880711E-008  0.7621122E+03  0.7818608E-02  0.9616537E-01
          2   -1    0    0  501    0  0.00000000000E+00  0.00000000000E+00  0.34017299369E+04  0.34017299369E+04  0.25500000000E-02 0. -1.
         -2   -1    0    0    0  501 -0.00000000000E+00 -0.00000000000E+00 -0.34787857483E+03  0.34787857484E+03  0.25500000000E-02 0.  1.
    8880022    1    1    2    0    0  0.73807765023E+03  0.11253802325E+03  0.28647445790E+04  0.29643846883E+04  0.15294330000E+03 0.  0.
    8880022    1    1    2    0    0 -0.73807765023E+03 -0.11253802325E+03  0.18910678307E+03  0.78522382342E+03  0.15294330000E+03 0.  0.
<mgrwt>
<rscale>  0 0.76211225E+03</rscale>
<asrwt>0</asrwt>
<pdfrwt beam="1">  1        2 0.52334309E+00 0.76211225E+03</pdfrwt>
<pdfrwt beam="2">  1       -2 0.53519779E-01 0.76211225E+03</pdfrwt>
<totfact> 0.33759328E+00</totfact>
</mgrwt>
</event>
<event>
 4    1  0.4880711E-008  0.9087175E+03  0.7818608E-02  0.9414749E-01
          2   -1    0    0  501    0  0.00000000000E+00  0.00000000000E+00  0.12774475429E+04  0.12774475429E+04  0.25500000000E-02 0. -1.
         -2   -1    0    0    0  501 -0.00000000000E+00 -0.00000000000E+00 -0.14413353720E+04  0.14413353720E+04  0.25500000000E-02 0.  1.
    8880022    1    1    2    0    0  0.50468695136E+03  0.74004523744E+03 -0.10914814857E+04  0.14202462318E+04  0.15294330000E+03 0.  0.
    8880022    1    1    2    0    0 -0.50468695136E+03 -0.74004523744E+03  0.92759365665E+03  0.12985366830E+04  0.15294330000E+03 0.  0.
<mgrwt>
<rscale>  0 0.90871752E+03</rscale>
<asrwt>0</asrwt>
<pdfrwt beam="1">  1        2 0.19653039E+00 0.90871752E+03</pdfrwt>
<pdfrwt beam="2">  1       -2 0.22174390E+00 0.90871752E+03</pdfrwt>
<totfact> 0.16527889E+00</totfact>
</mgrwt>
</event>
<event>
 4    1  0.4880711E-008  0.4834795E+03  0.7818608E-02  0.1018183E+00
         -2   -1    0    0    0  501 -0.00000000000E+00  0.00000000000E+00  0.83952196651E+03  0.83952196652E+03  0.25500000000E-02 0.  1.
          2   -1    0    0  501    0  0.00000000000E+00 -0.00000000000E+00 -0.67505478406E+03  0.67505478406E+03  0.25500000000E-02 0. -1.
    8880022    1    1    2    0    0  0.15336884774E+03 -0.43224855990E+03 -0.49823517082E+03  0.69425554334E+03  0.15294330000E+03 0.  0.
    8880022    1    1    2    0    0 -0.15336884774E+03  0.43224855990E+03  0.66270235328E+03  0.82032120724E+03  0.15294330000E+03 0.  0.
<mgrwt>
<rscale>  0 0.48347955E+03</rscale>
<asrwt>0</asrwt>
<pdfrwt beam="1">  1        2 0.10385458E+00 0.48347955E+03</pdfrwt>
<pdfrwt beam="2">  1       -2 0.12915723E+00 0.48347955E+03</pdfrwt>
<totfact> 0.19802036E+01</totfact>
</mgrwt>
</event>
<event>
 4    1  0.7446143E-008  0.1159890E+04  0.7818608E-02  0.9148708E-01
         -2   -1    0    0    0  501 -0.00000000000E+00  0.00000000000E+00  0.14953048229E+04  0.14953048229E+04  0.25500000000E-02 0.  1.
          2   -1    0    0  501    0  0.00000000000E+00 -0.00000000000E+00 -0.16693934679E+04  0.16693934679E+04  0.25500000000E-02 0. -1.
    8880022    1    1    2    0    0  0.54790490046E+03  0.10108178433E+04  0.98738633405E+03  0.15232451930E+04  0.15294330000E+03 0.  1.
    8880022    1    1    2    0    0 -0.54790490046E+03 -0.10108178433E+04 -0.11614749791E+04  0.16414530978E+04  0.15294330000E+03 0.  0.
<mgrwt>
<rscale>  0 0.11598897E+04</rscale>
<asrwt>0</asrwt>
<pdfrwt beam="1">  1        2 0.25682976E+00 0.11598897E+04</pdfrwt>
<pdfrwt beam="2">  1       -2 0.23004690E+00 0.11598897E+04</pdfrwt>
<totfact> 0.85023615E-01</totfact>
</mgrwt>
</event>
<event>
 4    1  0.4880711E-008  0.4410555E+03  0.7818608E-02  0.1030423E+00
         -2   -1    0    0    0  501 -0.00000000000E+00  0.00000000000E+00  0.34828702109E+03  0.34828702109E+03  0.25500000000E-02 0.  1.
          2   -1    0    0  501    0  0.00000000000E+00 -0.00000000000E+00 -0.61505281005E+03  0.61505281006E+03  0.25500000000E-02 0. -1.
    8880022    1    1    2    0    0 -0.40065920123E+03 -0.10300718824E+03 -0.27939611501E+03  0.52210355147E+03  0.15294330000E+03 0.  0.
    8880022    1    1    2    0    0  0.40065920123E+03  0.10300718824E+03  0.12630326047E+02  0.44123627968E+03  0.15294330000E+03 0.  0.
<mgrwt>
<rscale>  0 0.44105547E+03</rscale>
<asrwt>0</asrwt>
<pdfrwt beam="1">  1        2 0.94623509E-01 0.44105547E+03</pdfrwt>
<pdfrwt beam="2">  1       -2 0.53582619E-01 0.44105547E+03</pdfrwt>
<totfact> 0.16264938E+02</totfact>
</mgrwt>
</event>
<event>
 4    1  0.4880711E-008  0.1796455E+03  0.7818608E-02  0.1168147E+00
          2   -1    0    0  501    0  0.00000000000E+00  0.00000000000E+00  0.85683391316E+03  0.85683391317E+03  0.25500000000E-02 0. -1.
         -2   -1    0    0    0  501 -0.00000000000E+00 -0.00000000000E+00 -0.22517474196E+03  0.22517474197E+03  0.25500000000E-02 0.  1.
    8880022    1    1    2    0    0  0.32460450540E+02 -0.88471384212E+02 -0.17785889699E+03  0.25279696780E+03  0.15294330000E+03 0.  1.
    8880022    1    1    2    0    0 -0.32460450540E+02  0.88471384212E+02  0.80951806820E+03  0.82921168734E+03  0.15294330000E+03 0.  0.
<mgrwt>
<rscale>  0 0.17964554E+03</rscale>
<asrwt>0</asrwt>
<pdfrwt beam="1">  1        2 0.13182060E+00 0.17964554E+03</pdfrwt>
<pdfrwt beam="2">  1       -2 0.34642269E-01 0.17964554E+03</pdfrwt>
<totfact> 0.25963076E+02</totfact>
</mgrwt>
</event>
<event>
 4    1  0.4880711E-008  0.1202282E+04  0.7818608E-02  0.9110862E-01
          2   -1    0    0  501    0  0.00000000000E+00  0.00000000000E+00  0.35359673601E+04  0.35359673601E+04  0.25500000000E-02 0. -1.
         -2   -1    0    0    0  501 -0.00000000000E+00 -0.00000000000E+00 -0.45343603953E+03  0.45343603953E+03  0.25500000000E-02 0.  1.
    8880022    1    1    2    0    0  0.10242508880E+04 -0.61073717638E+03  0.21671485299E+04  0.24783087346E+04  0.15294330000E+03 0.  0.
    8880022    1    1    2    0    0 -0.10242508880E+04  0.61073717638E+03  0.91538279067E+03  0.15110946650E+04  0.15294330000E+03 0.  0.
<mgrwt>
<rscale>  0 0.12022818E+04</rscale>
<asrwt>0</asrwt>
<pdfrwt beam="1">  1        2 0.54399499E+00 0.12022818E+04</pdfrwt>
<pdfrwt beam="2">  1       -2 0.69759389E-01 0.12022818E+04</pdfrwt>
<totfact> 0.14444585E+00</totfact>
</mgrwt>
</event>
<event>
 4    1  0.4880711E-008  0.7949358E+03  0.7818608E-02  0.9567376E-01
         -2   -1    0    0    0  501 -0.00000000000E+00  0.00000000000E+00  0.86470354110E+03  0.86470354110E+03  0.25500000000E-02 0.  1.
          2   -1    0    0  501    0  0.00000000000E+00 -0.00000000000E+00 -0.89874790881E+03  0.89874790881E+03  0.25500000000E-02 0. -1.
    8880022    1    1    2    0    0 -0.71972814871E+03 -0.30086983845E+03  0.36413621572E+03  0.87436725943E+03  0.15294330000E+03 0.  0.
    8880022    1    1    2    0    0  0.71972814871E+03  0.30086983845E+03 -0.39818058343E+03  0.88908419049E+03  0.15294330000E+03 0.  0.
<mgrwt>
<rscale>  0 0.79493580E+03</rscale>
<asrwt>0</asrwt>
<pdfrwt beam="1">  1        2 0.13826891E+00 0.79493580E+03</pdfrwt>
<pdfrwt beam="2">  1       -2 0.13303131E+00 0.79493580E+03</pdfrwt>
<totfact> 0.12169310E+01</totfact>
</mgrwt>
</event>
<event>
 4    1  0.4880711E-008  0.6716391E+03  0.7818608E-02  0.9767001E-01
         -2   -1    0    0    0  501 -0.00000000000E+00  0.00000000000E+00  0.45746249902E+03  0.45746249902E+03  0.25500000000E-02 0.  1.
          2   -1    0    0  501    0  0.00000000000E+00 -0.00000000000E+00 -0.23921502757E+04  0.23921502757E+04  0.25500000000E-02 0. -1.
    8880022    1    1    2    0    0 -0.51204726397E+02  0.65198578167E+03 -0.20596985015E+04  0.21664387721E+04  0.15294330000E+03 0.  0.
    8880022    1    1    2    0    0  0.51204726397E+02 -0.65198578167E+03  0.12501072476E+03  0.68317400260E+03  0.15294330000E+03 0.  0.
<mgrwt>
<rscale>  0 0.67163907E+03</rscale>
<asrwt>0</asrwt>
<pdfrwt beam="1">  1        2 0.36802311E+00 0.67163907E+03</pdfrwt>
<pdfrwt beam="2">  1       -2 0.70378848E-01 0.67163907E+03</pdfrwt>
<totfact> 0.78282057E+00</totfact>
</mgrwt>
</event>
<event>
 4    1  0.4880711E-008  0.4160518E+03  0.7818608E-02  0.1038359E+00
         -2   -1    0    0    0  501 -0.00000000000E+00  0.00000000000E+00  0.34854466499E+03  0.34854466500E+03  0.25500000000E-02 0.  1.
          2   -1    0    0  501    0  0.00000000000E+00 -0.00000000000E+00 -0.74013135383E+03  0.74013135383E+03  0.25500000000E-02 0. -1.
    8880022    1    1    2    0    0  0.36745585623E+03 -0.12117621086E+03  0.11642712827E+03  0.43203519483E+03  0.15294330000E+03 0.  0.
    8880022    1    1    2    0    0 -0.36745585623E+03  0.12117621086E+03 -0.50801381711E+03  0.65664082400E+03  0.15294330000E+03 0.  0.
<mgrwt>
<rscale>  0 0.41605184E+03</rscale>
<asrwt>0</asrwt>
<pdfrwt beam="1">  1        2 0.11386636E+00 0.41605184E+03</pdfrwt>
<pdfrwt beam="2">  1       -2 0.53622256E-01 0.41605184E+03</pdfrwt>
<totfact> 0.12970842E+02</totfact>
</mgrwt>
</event>
<event>
 4    1  0.4880711E-008  0.7399589E+03  0.7818608E-02  0.9651236E-01
         -2   -1    0    0    0  501 -0.00000000000E+00  0.00000000000E+00  0.86719951767E+03  0.86719951767E+03  0.25500000000E-02 0.  1.
          2   -1    0    0  501    0  0.00000000000E+00 -0.00000000000E+00 -0.93516007684E+03  0.93516007684E+03  0.25500000000E-02 0. -1.
    8880022    1    1    2    0    0  0.62268976633E+03  0.36933041097E+03  0.47964048547E+03  0.88181298805E+03  0.15294330000E+03 0.  0.
    8880022    1    1    2    0    0 -0.62268976633E+03 -0.36933041097E+03 -0.54760104465E+03  0.92054660647E+03  0.15294330000E+03 0.  0.
<mgrwt>
<rscale>  0 0.73995888E+03</rscale>
<asrwt>0</asrwt>
<pdfrwt beam="1">  1        2 0.14387078E+00 0.73995888E+03</pdfrwt>
<pdfrwt beam="2">  1       -2 0.13341531E+00 0.73995888E+03</pdfrwt>
<totfact> 0.11492890E+01</totfact>
</mgrwt>
</event>
<event>
 4    1  0.4880711E-008  0.4278046E+03  0.7818608E-02  0.1034556E+00
         -2   -1    0    0    0  501 -0.00000000000E+00  0.00000000000E+00  0.43516632785E+03  0.43516632786E+03  0.25500000000E-02 0.  1.
          2   -1    0    0  501    0  0.00000000000E+00 -0.00000000000E+00 -0.28598159288E+04  0.28598159288E+04  0.25500000000E-02 0. -1.
    8880022    1    1    2    0    0  0.18986907343E+03 -0.35153221766E+03  0.30921059728E+03  0.52785226303E+03  0.15294330000E+03 0.  0.
    8880022    1    1    2    0    0 -0.18986907343E+03  0.35153221766E+03 -0.27338601982E+04  0.27671299936E+04  0.15294330000E+03 0.  0.
<mgrwt>
<rscale>  0 0.42780465E+03</rscale>
<asrwt>0</asrwt>
<pdfrwt beam="1">  1        2 0.43997167E+00 0.42780465E+03</pdfrwt>
<pdfrwt beam="2">  1       -2 0.66948668E-01 0.42780465E+03</pdfrwt>
<totfact> 0.50179812E+00</totfact>
</mgrwt>
</event>
<event>
 4    1  0.4880711E-008  0.7474597E+03  0.7818608E-02  0.9639344E-01
          2   -1    0    0  501    0  0.00000000000E+00  0.00000000000E+00  0.14233535134E+04  0.14233535134E+04  0.25500000000E-02 0. -1.
         -2   -1    0    0    0  501 -0.00000000000E+00 -0.00000000000E+00 -0.49426394145E+03  0.49426394146E+03  0.25500000000E-02 0.  1.
    8880022    1    1    2    0    0  0.42410898336E+03 -0.59618443406E+03  0.89956048713E+03  0.11695747228E+04  0.15294330000E+03 0.  0.
    8880022    1    1    2    0    0 -0.42410898336E+03  0.59618443406E+03  0.29529084865E+02  0.74804273210E+03  0.15294330000E+03 0.  0.
<mgrwt>
<rscale>  0 0.74745967E+03</rscale>
<asrwt>0</asrwt>
<pdfrwt beam="1">  1        2 0.21897746E+00 0.74745967E+03</pdfrwt>
<pdfrwt beam="2">  1       -2 0.76040606E-01 0.74745967E+03</pdfrwt>
<totfact> 0.22226505E+01</totfact>
</mgrwt>
</event>
<event>
 4    1  0.4880711E-008  0.4005283E+03  0.7818608E-02  0.1043597E+00
          2   -1    0    0  501    0  0.00000000000E+00  0.00000000000E+00  0.18267654344E+04  0.18267654344E+04  0.25500000000E-02 0. -1.
         -2   -1    0    0    0  501 -0.00000000000E+00 -0.00000000000E+00 -0.82261572401E+03  0.82261572401E+03  0.25500000000E-02 0.  1.
    8880022    1    1    2    0    0  0.36767894368E+03 -0.42935393459E+02  0.17540619216E+04  0.17992098631E+04  0.15294330000E+03 0.  0.
    8880022    1    1    2    0    0 -0.36767894368E+03  0.42935393459E+02 -0.74991221128E+03  0.85017129525E+03  0.15294330000E+03 0.  0.
<mgrwt>
<rscale>  0 0.40052828E+03</rscale>
<asrwt>0</asrwt>
<pdfrwt beam="1">  1        2 0.28104084E+00 0.40052828E+03</pdfrwt>
<pdfrwt beam="2">  1       -2 0.12655626E+00 0.40052828E+03</pdfrwt>
<totfact> 0.43295168E+00</totfact>
</mgrwt>
</event>
<event>
 4    1  0.4880711E-008  0.8376925E+03  0.7818608E-02  0.9507006E-01
          2   -1    0    0  501    0  0.00000000000E+00  0.00000000000E+00  0.29599457449E+04  0.29599457449E+04  0.25500000000E-02 0. -1.
         -2   -1    0    0    0  501 -0.00000000000E+00 -0.00000000000E+00 -0.43352184343E+03  0.43352184344E+03  0.25500000000E-02 0.  1.
    8880022    1    1    2    0    0  0.61412647416E+03  0.54880397797E+03  0.24053822860E+04  0.25470753281E+04  0.15294330000E+03 0.  0.
    8880022    1    1    2    0    0 -0.61412647416E+03 -0.54880397797E+03  0.12104161553E+03  0.84639226025E+03  0.15294330000E+03 0.  0.
<mgrwt>
<rscale>  0 0.83769254E+03</rscale>
<asrwt>0</asrwt>
<pdfrwt beam="1">  1        2 0.45537625E+00 0.83769254E+03</pdfrwt>
<pdfrwt beam="2">  1       -2 0.66695670E-01 0.83769254E+03</pdfrwt>
<totfact> 0.39917418E+00</totfact>
</mgrwt>
</event>
<event>
 4    1  0.4880711E-008  0.2818414E+03  0.7818608E-02  0.1094687E+00
         -2   -1    0    0    0  501 -0.00000000000E+00  0.00000000000E+00  0.47388864257E+03  0.47388864258E+03  0.25500000000E-02 0.  1.
          2   -1    0    0  501    0  0.00000000000E+00 -0.00000000000E+00 -0.33729434569E+04  0.33729434569E+04  0.25500000000E-02 0. -1.
    8880022    1    1    2    0    0 -0.19092043704E+03  0.13997254242E+03 -0.33245410887E+04  0.33364663987E+04  0.15294330000E+03 0.  0.
    8880022    1    1    2    0    0  0.19092043704E+03 -0.13997254242E+03  0.42548627436E+03  0.51036570084E+03  0.15294330000E+03 0.  0.
<mgrwt>
<rscale>  0 0.28184141E+03</rscale>
<asrwt>0</asrwt>
<pdfrwt beam="1">  1        2 0.51891436E+00 0.28184141E+03</pdfrwt>
<pdfrwt beam="2">  1       -2 0.72905947E-01 0.28184141E+03</pdfrwt>
<totfact> 0.21674592E+00</totfact>
</mgrwt>
</event>
<event>
 4    1  0.4880711E-008  0.6201239E+03  0.7818608E-02  0.9864513E-01
          2   -1    0    0  501    0  0.00000000000E+00  0.00000000000E+00  0.77655480212E+03  0.77655480213E+03  0.25500000000E-02 0. -1.
         -2   -1    0    0    0  501 -0.00000000000E+00 -0.00000000000E+00 -0.94561264807E+03  0.94561264808E+03  0.25500000000E-02 0.  1.
    8880022    1    1    2    0    0  0.46121635615E+03  0.38528103947E+03 -0.67880975534E+03  0.91942174409E+03  0.15294330000E+03 0.  0.
    8880022    1    1    2    0    0 -0.46121635615E+03 -0.38528103947E+03  0.50975190938E+03  0.80274570611E+03  0.15294330000E+03 0.  0.
<mgrwt>
<rscale>  0 0.62012391E+03</rscale>
<asrwt>0</asrwt>
<pdfrwt beam="1">  1        2 0.11946997E+00 0.62012391E+03</pdfrwt>
<pdfrwt beam="2">  1       -2 0.14547887E+00 0.62012391E+03</pdfrwt>
<totfact> 0.12006277E+01</totfact>
</mgrwt>
</event>
<event>
 4    1  0.4880711E-008  0.7518016E+03  0.7818608E-02  0.9632528E-01
         -2   -1    0    0    0  501 -0.00000000000E+00  0.00000000000E+00  0.17269099891E+04  0.17269099891E+04  0.25500000000E-02 0.  1.
          2   -1    0    0  501    0  0.00000000000E+00 -0.00000000000E+00 -0.46354492815E+03  0.46354492815E+03  0.25500000000E-02 0. -1.
    8880022    1    1    2    0    0 -0.68239115735E+03  0.27596441143E+03  0.37897018641E+02  0.75275619229E+03  0.15294330000E+03 0.  0.
    8880022    1    1    2    0    0  0.68239115735E+03 -0.27596441143E+03  0.12254680423E+04  0.14376987250E+04  0.15294330000E+03 0.  0.
<mgrwt>
<rscale>  0 0.75180164E+03</rscale>
<asrwt>0</asrwt>
<pdfrwt beam="1">  1        2 0.71314604E-01 0.75180164E+03</pdfrwt>
<pdfrwt beam="2">  1       -2 0.26567846E+00 0.75180164E+03</pdfrwt>
<totfact> 0.35741706E+00</totfact>
</mgrwt>
</event>
<event>
 4    1  0.4880711E-008  0.1681261E+04  0.7818608E-02  0.8772125E-01
          2   -1    0    0  501    0  0.00000000000E+00  0.00000000000E+00  0.31062011008E+04  0.31062011008E+04  0.25500000000E-02 0. -1.
         -2   -1    0    0    0  501 -0.00000000000E+00 -0.00000000000E+00 -0.15484523144E+04  0.15484523144E+04  0.25500000000E-02 0.  1.
    8880022    1    1    2    0    0 -0.16083790520E+04  0.46514994901E+03  0.22732957774E+04  0.28274569837E+04  0.15294330000E+03 0.  0.
    8880022    1    1    2    0    0  0.16083790520E+04 -0.46514994901E+03 -0.71554699101E+03  0.18271964315E+04  0.15294330000E+03 0.  0.
<mgrwt>
<rscale>  0 0.16812612E+04</rscale>
<asrwt>0</asrwt>
<pdfrwt beam="1">  1        2 0.47787709E+00 0.16812612E+04</pdfrwt>
<pdfrwt beam="2">  1       -2 0.23822343E+00 0.16812612E+04</pdfrwt>
<totfact> 0.10428660E-01</totfact>
</mgrwt>
</event>
<event>
 4    1  0.4880711E-008  0.8698710E+03  0.7818608E-02  0.9464048E-01
         -2   -1    0    0    0  501 -0.00000000000E+00  0.00000000000E+00  0.60206491511E+03  0.60206491512E+03  0.25500000000E-02 0.  1.
          2   -1    0    0  501    0  0.00000000000E+00 -0.00000000000E+00 -0.16437587863E+04  0.16437587863E+04  0.25500000000E-02 0. -1.
    8880022    1    1    2    0    0 -0.40468788372E+03 -0.75465993559E+03  0.23980079068E+02  0.87020147025E+03  0.15294330000E+03 0.  0.
    8880022    1    1    2    0    0  0.40468788372E+03  0.75465993559E+03 -0.10656739502E+04  0.13756222311E+04  0.15294330000E+03 0.  0.
<mgrwt>
<rscale>  0 0.86987100E+03</rscale>
<asrwt>0</asrwt>
<pdfrwt beam="1">  1        2 0.25288596E+00 0.86987100E+03</pdfrwt>
<pdfrwt beam="2">  1       -2 0.92625372E-01 0.86987100E+03</pdfrwt>
<totfact> 0.10543019E+01</totfact>
</mgrwt>
</event>
<event>
 4    1  0.4880711E-008  0.8975421E+03  0.7818608E-02  0.9428659E-01
         -2   -1    0    0    0  501 -0.00000000000E+00  0.00000000000E+00  0.39235949316E+04  0.39235949316E+04  0.25500000000E-02 0.  1.
          2   -1    0    0  501    0  0.00000000000E+00 -0.00000000000E+00 -0.56479054183E+03  0.56479054183E+03  0.25500000000E-02 0. -1.
    8880022    1    1    2    0    0 -0.77745466874E+03  0.42160931851E+03 -0.11099645658E+03  0.90437937051E+03  0.15294330000E+03 0.  0.
    8880022    1    1    2    0    0  0.77745466874E+03 -0.42160931851E+03  0.34698008463E+04  0.35840061029E+04  0.15294330000E+03 0.  0.
<mgrwt>
<rscale>  0 0.89754211E+03</rscale>
<asrwt>0</asrwt>
<pdfrwt beam="1">  1        2 0.86890847E-01 0.89754211E+03</pdfrwt>
<pdfrwt beam="2">  1       -2 0.60363003E+00 0.89754211E+03</pdfrwt>
<totfact> 0.26127287E-02</totfact>
</mgrwt>
</event>
<event>
 4    1  0.4880711E-008  0.6309994E+03  0.7818608E-02  0.9843101E-01
         -2   -1    0    0    0  501 -0.00000000000E+00  0.00000000000E+00  0.36850611236E+03  0.36850611237E+03  0.25500000000E-02 0.  1.
          2   -1    0    0  501    0  0.00000000000E+00 -0.00000000000E+00 -0.13748632635E+04  0.13748632635E+04  0.25500000000E-02 0. -1.
    8880022    1    1    2    0    0  0.61033645541E+03 -0.47518013482E+02 -0.90653853835E+03  0.11045235737E+04  0.15294330000E+03 0.  0.
    8880022    1    1    2    0    0 -0.61033645541E+03  0.47518013482E+02 -0.99818612769E+02  0.63884580211E+03  0.15294330000E+03 0.  0.
<mgrwt>
<rscale>  0 0.63099937E+03</rscale>
<asrwt>0</asrwt>
<pdfrwt beam="1">  1        2 0.21151742E+00 0.63099937E+03</pdfrwt>
<pdfrwt beam="2">  1       -2 0.56693249E-01 0.63099937E+03</pdfrwt>
<totfact> 0.45140151E+01</totfact>
</mgrwt>
</event>
<event>
 4    1  0.4880711E-008  0.1640033E+03  0.7818608E-02  0.1184250E+00
         -2   -1    0    0    0  501 -0.00000000000E+00  0.00000000000E+00  0.15440553453E+03  0.15440553455E+03  0.25500000000E-02 0.  1.
          2   -1    0    0  501    0  0.00000000000E+00 -0.00000000000E+00 -0.25146405259E+04  0.25146405259E+04  0.25500000000E-02 0. -1.
    8880022    1    1    2    0    0 -0.56790363822E+02 -0.16742096914E+02 -0.24675875356E+04  0.24730316096E+04  0.15294330000E+03 0.  0.
    8880022    1    1    2    0    0  0.56790363822E+02  0.16742096914E+02  0.10735254414E+03  0.19601445095E+03  0.15294330000E+03 0.  1.
<mgrwt>
<rscale>  0 0.16400334E+03</rscale>
<asrwt>0</asrwt>
<pdfrwt beam="1">  1        2 0.38686774E+00 0.16400334E+03</pdfrwt>
<pdfrwt beam="2">  1       -2 0.23754699E-01 0.16400334E+03</pdfrwt>
<totfact> 0.65059633E+01</totfact>
</mgrwt>
</event>
<event>
 4    1  0.4880711E-008  0.4088056E+03  0.7818608E-02  0.1040773E+00
          2   -1    0    0  501    0  0.00000000000E+00  0.00000000000E+00  0.72435766868E+03  0.72435766869E+03  0.25500000000E-02 0. -1.
         -2   -1    0    0    0  501 -0.00000000000E+00 -0.00000000000E+00 -0.43877180910E+03  0.43877180911E+03  0.25500000000E-02 0.  1.
    8880022    1    1    2    0    0  0.33208973588E+03 -0.18288449721E+03 -0.25767438321E+03  0.48323707719E+03  0.15294330000E+03 0.  1.
    8880022    1    1    2    0    0 -0.33208973588E+03  0.18288449721E+03  0.54326024278E+03  0.67989240061E+03  0.15294330000E+03 0.  0.
<mgrwt>
<rscale>  0 0.40880556E+03</rscale>
<asrwt>0</asrwt>
<pdfrwt beam="1">  1        2 0.11143964E+00 0.40880556E+03</pdfrwt>
<pdfrwt beam="2">  1       -2 0.67503355E-01 0.40880556E+03</pdfrwt>
<totfact> 0.82343785E+01</totfact>
</mgrwt>
</event>
<event>
 4    1  0.4880711E-008  0.1385008E+04  0.7818608E-02  0.8964742E-01
          2   -1    0    0  501    0  0.00000000000E+00  0.00000000000E+00  0.34390187160E+04  0.34390187160E+04  0.25500000000E-02 0. -1.
         -2   -1    0    0    0  501 -0.00000000000E+00 -0.00000000000E+00 -0.78495966408E+03  0.78495966409E+03  0.25500000000E-02 0.  1.
    8880022    1    1    2    0    0 -0.97164392400E+03 -0.97507173039E+03  0.19085855353E+03  0.13980970764E+04  0.15294330000E+03 0.  0.
    8880022    1    1    2    0    0  0.97164392400E+03  0.97507173039E+03  0.24632004984E+04  0.28258813037E+04  0.15294330000E+03 0.  0.
<mgrwt>
<rscale>  0 0.13850085E+04</rscale>
<asrwt>0</asrwt>
<pdfrwt beam="1">  1        2 0.52907979E+00 0.13850085E+04</pdfrwt>
<pdfrwt beam="2">  1       -2 0.12076303E+00 0.13850085E+04</pdfrwt>
<totfact> 0.45490018E-01</totfact>
</mgrwt>
</event>
<event>
 4    1  0.9503207E-008  0.1037660E+04  0.7818608E-02  0.9268177E-01
         -2   -1    0    0    0  501 -0.00000000000E+00  0.00000000000E+00  0.20399237558E+04  0.20399237558E+04  0.25500000000E-02 0.  1.
          2   -1    0    0  501    0  0.00000000000E+00 -0.00000000000E+00 -0.19492207789E+04  0.19492207789E+04  0.25500000000E-02 0. -1.
    8880022    1    1    2    0    0  0.49415384556E+03 -0.89953296033E+03 -0.16578872951E+04  0.19558449596E+04  0.15294330000E+03 0.  0.
    8880022    1    1    2    0    0 -0.49415384556E+03  0.89953296033E+03  0.17485902720E+04  0.20332995751E+04  0.15294330000E+03 0.  0.
<mgrwt>
<rscale>  0 0.10376605E+04</rscale>
<asrwt>0</asrwt>
<pdfrwt beam="1">  1        2 0.29988012E+00 0.10376605E+04</pdfrwt>
<pdfrwt beam="2">  1       -2 0.31383443E+00 0.10376605E+04</pdfrwt>
<totfact> 0.18724042E-01</totfact>
</mgrwt>
</event>
<event>
 4    1  0.4880711E-008  0.2239252E+03  0.7818608E-02  0.1130990E+00
          2   -1    0    0  501    0  0.00000000000E+00  0.00000000000E+00  0.14591321549E+04  0.14591321549E+04  0.25500000000E-02 0. -1.
         -2   -1    0    0    0  501 -0.00000000000E+00 -0.00000000000E+00 -0.11229085086E+03  0.11229085089E+03  0.25500000000E-02 0.  1.
    8880022    1    1    2    0    0 -0.65732357740E+02 -0.14976674705E+03  0.13279556171E+04  0.13467028608E+04  0.15294330000E+03 0.  0.
    8880022    1    1    2    0    0  0.65732357740E+02  0.14976674705E+03  0.18885686964E+02  0.22472014499E+03  0.15294330000E+03 0.  1.
<mgrwt>
<rscale>  0 0.22392515E+03</rscale>
<asrwt>0</asrwt>
<pdfrwt beam="1">  1        2 0.22448185E+00 0.22392515E+03</pdfrwt>
<pdfrwt beam="2">  1       -2 0.17275517E-01 0.22392515E+03</pdfrwt>
<totfact> 0.39275454E+02</totfact>
</mgrwt>
</event>
<event>
 4    1  0.4880711E-008  0.1830547E+03  0.7818608E-02  0.1164879E+00
         -2   -1    0    0    0  501 -0.00000000000E+00  0.00000000000E+00  0.32123961433E+02  0.32123961534E+02  0.25500000000E-02 0.  1.
          2   -1    0    0  501    0  0.00000000000E+00 -0.00000000000E+00 -0.24452575878E+04  0.24452575878E+04  0.25500000000E-02 0. -1.
    8880022    1    1    2    0    0  0.33375668813E+02  0.94886399884E+02 -0.21445532011E+04  0.21523516092E+04  0.15294330000E+03 0.  0.
    8880022    1    1    2    0    0 -0.33375668813E+02 -0.94886399884E+02 -0.26858042528E+03  0.32502994018E+03  0.15294330000E+03 0.  1.
<mgrwt>
<rscale>  0 0.18305468E+03</rscale>
<asrwt>0</asrwt>
<pdfrwt beam="1">  1        2 0.37619333E+00 0.18305468E+03</pdfrwt>
<pdfrwt beam="2">  1       -2 0.49421498E-02 0.18305468E+03</pdfrwt>
<totfact> 0.87099320E+02</totfact>
</mgrwt>
</event>
<event>
 4    1  0.4880711E-008  0.5583870E+03  0.7818608E-02  0.9995711E-01
         -2   -1    0    0    0  501 -0.00000000000E+00  0.00000000000E+00  0.71991607544E+03  0.71991607545E+03  0.25500000000E-02 0.  1.
          2   -1    0    0  501    0  0.00000000000E+00 -0.00000000000E+00 -0.10244168757E+04  0.10244168757E+04  0.25500000000E-02 0. -1.
    8880022    1    1    2    0    0  0.31182949666E+03 -0.43722623928E+03 -0.81488017943E+03  0.98783894393E+03  0.15294330000E+03 0.  0.
    8880022    1    1    2    0    0 -0.31182949666E+03  0.43722623928E+03  0.51037937916E+03  0.75649400724E+03  0.15294330000E+03 0.  0.
<mgrwt>
<rscale>  0 0.55838703E+03</rscale>
<asrwt>0</asrwt>
<pdfrwt beam="1">  1        2 0.15760260E+00 0.55838703E+03</pdfrwt>
<pdfrwt beam="2">  1       -2 0.11075632E+00 0.55838703E+03</pdfrwt>
<totfact> 0.16363967E+01</totfact>
</mgrwt>
</event>
<event>
 4    1  0.4880711E-008  0.3303389E+03  0.7818608E-02  0.1070987E+00
         -2   -1    0    0    0  501 -0.00000000000E+00  0.00000000000E+00  0.72018339181E+03  0.72018339182E+03  0.25500000000E-02 0.  1.
          2   -1    0    0  501    0  0.00000000000E+00 -0.00000000000E+00 -0.23582895526E+04  0.23582895526E+04  0.25500000000E-02 0. -1.
    8880022    1    1    2    0    0  0.27783268357E+03 -0.92418111276E+02  0.66991387176E+03  0.74693263146E+03  0.15294330000E+03 0.  0.
    8880022    1    1    2    0    0 -0.27783268357E+03  0.92418111276E+02 -0.23080200326E+04  0.23315403130E+04  0.15294330000E+03 0.  0.
<mgrwt>
<rscale>  0 0.33033886E+03</rscale>
<asrwt>0</asrwt>
<pdfrwt beam="1">  1        2 0.36281378E+00 0.33033886E+03</pdfrwt>
<pdfrwt beam="2">  1       -2 0.11079745E+00 0.33033886E+03</pdfrwt>
<totfact> 0.31916177E+00</totfact>
</mgrwt>
</event>
<event>
 4    1  0.4880711E-008  0.5316640E+03  0.7818608E-02  0.1005829E+00
         -2   -1    0    0    0  501 -0.00000000000E+00  0.00000000000E+00  0.64622113974E+03  0.64622113974E+03  0.25500000000E-02 0.  1.
          2   -1    0    0  501    0  0.00000000000E+00 -0.00000000000E+00 -0.10974541828E+04  0.10974541828E+04  0.25500000000E-02 0. -1.
    8880022    1    1    2    0    0 -0.40334730280E+03  0.31078276023E+03  0.45050908695E+03  0.69686803713E+03  0.15294330000E+03 0.  1.
    8880022    1    1    2    0    0  0.40334730280E+03 -0.31078276023E+03 -0.90174213005E+03  0.10468072854E+04  0.15294330000E+03 0.  0.
<mgrwt>
<rscale>  0 0.53166401E+03</rscale>
<asrwt>0</asrwt>
<pdfrwt beam="1">  1        2 0.16883910E+00 0.53166401E+03</pdfrwt>
<pdfrwt beam="2">  1       -2 0.99418637E-01 0.53166401E+03</pdfrwt>
<totfact> 0.19173987E+01</totfact>
</mgrwt>
</event>
<event>
 4    1  0.4880711E-008  0.5874216E+03  0.7818608E-02  0.9931851E-01
          2   -1    0    0  501    0  0.00000000000E+00  0.00000000000E+00  0.15734605494E+04  0.15734605494E+04  0.25500000000E-02 0. -1.
         -2   -1    0    0    0  501 -0.00000000000E+00 -0.00000000000E+00 -0.58925836796E+03  0.58925836796E+03  0.25500000000E-02 0.  1.
    8880022    1    1    2    0    0 -0.41905704053E+03  0.38218273899E+03 -0.36472377866E+03  0.69143874417E+03  0.15294330000E+03 0.  0.
    8880022    1    1    2    0    0  0.41905704053E+03 -0.38218273899E+03  0.13489259601E+04  0.14712801732E+04  0.15294330000E+03 0.  0.
<mgrwt>
<rscale>  0 0.58742157E+03</rscale>
<asrwt>0</asrwt>
<pdfrwt beam="1">  1        2 0.24207085E+00 0.58742157E+03</pdfrwt>
<pdfrwt beam="2">  1       -2 0.90655134E-01 0.58742157E+03</pdfrwt>
<totfact> 0.12611006E+01</totfact>
</mgrwt>
</event>
<event>
 4    1  0.4880711E-008  0.1205237E+04  0.7818608E-02  0.9108285E-01
          2   -1    0    0  501    0  0.00000000000E+00  0.00000000000E+00  0.60758238260E+03  0.60758238260E+03  0.25500000000E-02 0. -1.
         -2   -1    0    0    0  501 -0.00000000000E+00 -0.00000000000E+00 -0.28892027988E+04  0.28892027988E+04  0.25500000000E-02 0.  1.
    8880022    1    1    2    0    0  0.11836680766E+04  0.16772998887E+03 -0.18669987450E+04  0.22222239832E+04  0.15294330000E+03 0.  0.
    8880022    1    1    2    0    0 -0.11836680766E+04 -0.16772998887E+03 -0.41462167119E+03  0.12745611982E+04  0.15294330000E+03 0.  0.
<mgrwt>
<rscale>  0 0.12052365E+04</rscale>
<asrwt>0</asrwt>
<pdfrwt beam="1">  1        2 0.93474214E-01 0.12052365E+04</pdfrwt>
<pdfrwt beam="2">  1       -2 0.44449273E+00 0.12052365E+04</pdfrwt>
<totfact> 0.18265467E-01</totfact>
</mgrwt>
</event>
<event>
 4    1  0.4880711E-008  0.3368787E+03  0.7818608E-02  0.1068133E+00
         -2   -1    0    0    0  501 -0.00000000000E+00  0.00000000000E+00  0.47660463518E+03  0.47660463518E+03  0.25500000000E-02 0.  1.
          2   -1    0    0  501    0  0.00000000000E+00 -0.00000000000E+00 -0.10522621426E+04  0.10522621426E+04  0.25500000000E-02 0. -1.
    8880022    1    1    2    0    0 -0.29298141132E+03 -0.65249502237E+02  0.38457297491E+03  0.51125691288E+03  0.15294330000E+03 0.  1.
    8880022    1    1    2    0    0  0.29298141132E+03  0.65249502237E+02 -0.96023048231E+03  0.10176098649E+04  0.15294330000E+03 0.  0.
<mgrwt>
<rscale>  0 0.33687870E+03</rscale>
<asrwt>0</asrwt>
<pdfrwt beam="1">  1        2 0.16188648E+00 0.33687870E+03</pdfrwt>
<pdfrwt beam="2">  1       -2 0.73323790E-01 0.33687870E+03</pdfrwt>
<totfact> 0.42103228E+01</totfact>
</mgrwt>
</event>
<event>
 4    1  0.4880711E-008  0.4420971E+03  0.7818608E-02  0.1030105E+00
         -2   -1    0    0    0  501 -0.00000000000E+00  0.00000000000E+00  0.60765137532E+03  0.60765137533E+03  0.25500000000E-02 0.  1.
          2   -1    0    0  501    0  0.00000000000E+00 -0.00000000000E+00 -0.67370805418E+03  0.67370805419E+03  0.25500000000E-02 0. -1.
    8880022    1    1    2    0    0 -0.38985354423E+03  0.14167715344E+03 -0.49616960102E+03  0.66455558665E+03  0.15294330000E+03 0.  0.
    8880022    1    1    2    0    0  0.38985354423E+03 -0.14167715344E+03  0.43011292216E+03  0.61680384287E+03  0.15294330000E+03 0.  0.
<mgrwt>
<rscale>  0 0.44209711E+03</rscale>
<asrwt>0</asrwt>
<pdfrwt beam="1">  1        2 0.10364739E+00 0.44209711E+03</pdfrwt>
<pdfrwt beam="2">  1       -2 0.93484827E-01 0.44209711E+03</pdfrwt>
<totfact> 0.43450452E+01</totfact>
</mgrwt>
</event>
<event>
 4    1  0.4880711E-008  0.3511994E+03  0.7818608E-02  0.1062124E+00
         -2   -1    0    0    0  501 -0.00000000000E+00  0.00000000000E+00  0.45246870380E+03  0.45246870381E+03  0.25500000000E-02 0.  1.
          2   -1    0    0  501    0  0.00000000000E+00 -0.00000000000E+00 -0.12703698140E+04  0.12703698140E+04  0.25500000000E-02 0. -1.
    8880022    1    1    2    0    0 -0.28289582638E+03  0.14113586452E+03 -0.11723741973E+04  0.12238473321E+04  0.15294330000E+03 0.  0.
    8880022    1    1    2    0    0  0.28289582638E+03 -0.14113586452E+03  0.35447308714E+03  0.49899118565E+03  0.15294330000E+03 0.  0.
<mgrwt>
<rscale>  0 0.35119942E+03</rscale>
<asrwt>0</asrwt>
<pdfrwt beam="1">  1        2 0.19544151E+00 0.35119942E+03</pdfrwt>
<pdfrwt beam="2">  1       -2 0.69610570E-01 0.35119942E+03</pdfrwt>
<totfact> 0.35047250E+01</totfact>
</mgrwt>
</event>
<event>
 4    1  0.4880711E-008  0.7137034E+03  0.7818608E-02  0.9694080E-01
          2   -1    0    0  501    0  0.00000000000E+00  0.00000000000E+00  0.16513020649E+04  0.16513020649E+04  0.25500000000E-02 0. -1.
         -2   -1    0    0    0  501 -0.00000000000E+00 -0.00000000000E+00 -0.40804169376E+03  0.40804169377E+03  0.25500000000E-02 0.  1.
    8880022    1    1    2    0    0  0.72167979744E+02 -0.69337772575E+03  0.11302820176E+04  0.13367535226E+04  0.15294330000E+03 0.  0.
    8880022    1    1    2    0    0 -0.72167979744E+02  0.69337772575E+03  0.11297835353E+03  0.72259023606E+03  0.15294330000E+03 0.  0.
<mgrwt>
<rscale>  0 0.71370340E+03</rscale>
<asrwt>0</asrwt>
<pdfrwt beam="1">  1        2 0.25404647E+00 0.71370340E+03</pdfrwt>
<pdfrwt beam="2">  1       -2 0.62775645E-01 0.71370340E+03</pdfrwt>
<totfact> 0.25319575E+01</totfact>
</mgrwt>
</event>
<event>
 4    1  0.4880711E-008  0.2650411E+03  0.7818608E-02  0.1104152E+00
          2   -1    0    0  501    0  0.00000000000E+00  0.00000000000E+00  0.84261548964E+03  0.84261548965E+03  0.25500000000E-02 0. -1.
         -2   -1    0    0    0  501 -0.00000000000E+00 -0.00000000000E+00 -0.89371923922E+02  0.89371923959E+02  0.25500000000E-02 0.  1.
    8880022    1    1    2    0    0  0.19059660806E+03 -0.10260635889E+03  0.25583663420E+03  0.36837368025E+03  0.15294330000E+03 0.  0.
    8880022    1    1    2    0    0 -0.19059660806E+03  0.10260635889E+03  0.49740693152E+03  0.56361373335E+03  0.15294330000E+03 0.  0.
<mgrwt>
<rscale>  0 0.26504110E+03</rscale>
<asrwt>0</asrwt>
<pdfrwt beam="1">  1        2 0.12963315E+00 0.26504110E+03</pdfrwt>
<pdfrwt beam="2">  1       -2 0.13749527E-01 0.26504110E+03</pdfrwt>
<totfact> 0.13125057E+03</totfact>
</mgrwt>
</event>
<event>
 4    1  0.4880711E-008  0.1013558E+04  0.7818608E-02  0.9293798E-01
          2   -1    0    0  501    0  0.00000000000E+00  0.00000000000E+00  0.39589199827E+04  0.39589199827E+04  0.25500000000E-02 0. -1.
         -2   -1    0    0    0  501 -0.00000000000E+00 -0.00000000000E+00 -0.39551555382E+03  0.39551555383E+03  0.25500000000E-02 0.  1.
    8880022    1    1    2    0    0  0.53484158185E+03 -0.84726207799E+03  0.50488033408E+03  0.11323446257E+04  0.15294330000E+03 0.  0.
    8880022    1    1    2    0    0 -0.53484158185E+03  0.84726207799E+03  0.30585240948E+04  0.32220909109E+04  0.15294330000E+03 0.  0.
<mgrwt>
<rscale>  0 0.10135582E+04</rscale>
<asrwt>0</asrwt>
<pdfrwt beam="1">  1        2 0.60906461E+00 0.10135582E+04</pdfrwt>
<pdfrwt beam="2">  1       -2 0.60848547E-01 0.10135582E+04</pdfrwt>
<totfact> 0.97465454E-01</totfact>
</mgrwt>
</event>
<event>
 4    1  0.4880711E-008  0.3637437E+03  0.7818608E-02  0.1057111E+00
         -2   -1    0    0    0  501 -0.00000000000E+00  0.00000000000E+00  0.38712867173E+03  0.38712867174E+03  0.25500000000E-02 0.  1.
          2   -1    0    0  501    0  0.00000000000E+00 -0.00000000000E+00 -0.42846983252E+03  0.42846983253E+03  0.25500000000E-02 0. -1.
    8880022    1    1    2    0    0 -0.11632240774E+03  0.30884774160E+03 -0.20410975397E+03  0.41709744031E+03  0.15294330000E+03 0.  0.
    8880022    1    1    2    0    0  0.11632240774E+03 -0.30884774160E+03  0.16276859318E+03  0.39850106396E+03  0.15294330000E+03 0.  0.
<mgrwt>
<rscale>  0 0.36374371E+03</rscale>
<asrwt>0</asrwt>
<pdfrwt beam="1">  1        2 0.65918436E-01 0.36374371E+03</pdfrwt>
<pdfrwt beam="2">  1       -2 0.59558257E-01 0.36374371E+03</pdfrwt>
<totfact> 0.19907309E+02</totfact>
</mgrwt>
</event>
<event>
 4    1  0.4880711E-008  0.8794791E+03  0.7818608E-02  0.9451603E-01
          2   -1    0    0  501    0  0.00000000000E+00  0.00000000000E+00  0.98527993326E+03  0.98527993326E+03  0.25500000000E-02 0. -1.
         -2   -1    0    0    0  501 -0.00000000000E+00 -0.00000000000E+00 -0.15396197347E+04  0.15396197347E+04  0.25500000000E-02 0.  1.
    8880022    1    1    2    0    0 -0.86573279763E+03  0.24466111096E+02  0.60664262062E+03  0.10684094672E+04  0.15294330000E+03 0.  0.
    8880022    1    1    2    0    0  0.86573279763E+03 -0.24466111096E+02 -0.11609824221E+04  0.14564902007E+04  0.15294330000E+03 0.  0.
<mgrwt>
<rscale>  0 0.87947912E+03</rscale>
<asrwt>0</asrwt>
<pdfrwt beam="1">  1        2 0.15158153E+00 0.87947912E+03</pdfrwt>
<pdfrwt beam="2">  1       -2 0.23686457E+00 0.87947912E+03</pdfrwt>
<totfact> 0.20164213E+00</totfact>
</mgrwt>
</event>
<event>
 4    1  0.4880711E-008  0.2079999E+03  0.7818608E-02  0.1143160E+00
          2   -1    0    0  501    0  0.00000000000E+00  0.00000000000E+00  0.28365383291E+03  0.28365383292E+03  0.25500000000E-02 0. -1.
         -2   -1    0    0    0  501 -0.00000000000E+00 -0.00000000000E+00 -0.29555722446E+03  0.29555722447E+03  0.25500000000E-02 0.  1.
    8880022    1    1    2    0    0  0.67307719420E+01 -0.14080846061E+03 -0.20741907105E+03  0.29374589346E+03  0.15294330000E+03 0.  0.
    8880022    1    1    2    0    0 -0.67307719420E+01  0.14080846061E+03  0.19551567951E+03  0.28546516393E+03  0.15294330000E+03 0.  0.
<mgrwt>
<rscale>  0 0.20799995E+03</rscale>
<asrwt>0</asrwt>
<pdfrwt beam="1">  1        2 0.43639051E-01 0.20799995E+03</pdfrwt>
<pdfrwt beam="2">  1       -2 0.45470342E-01 0.20799995E+03</pdfrwt>
<totfact> 0.54108998E+02</totfact>
</mgrwt>
</event>
<event>
 4    1  0.4880711E-008  0.9361143E+03  0.7818608E-02  0.9381530E-01
         -2   -1    0    0    0  501 -0.00000000000E+00  0.00000000000E+00  0.12666225684E+04  0.12666225684E+04  0.25500000000E-02 0.  1.
          2   -1    0    0  501    0  0.00000000000E+00 -0.00000000000E+00 -0.15654152273E+04  0.15654152273E+04  0.25500000000E-02 0. -1.
    8880022    1    1    2    0    0  0.71605321170E+03 -0.58325472163E+03 -0.12071937666E+04  0.15276212604E+04  0.15294330000E+03 0.  0.
    8880022    1    1    2    0    0 -0.71605321170E+03  0.58325472163E+03  0.90840110764E+03  0.13044165353E+04  0.15294330000E+03 0.  0.
<mgrwt>
<rscale>  0 0.93611427E+03</rscale>
<asrwt>0</asrwt>
<pdfrwt beam="1">  1        2 0.24083311E+00 0.93611427E+03</pdfrwt>
<pdfrwt beam="2">  1       -2 0.19486501E+00 0.93611427E+03</pdfrwt>
<totfact> 0.16814188E+00</totfact>
</mgrwt>
</event>
<event>
 4    1  0.4880711E-008  0.6547307E+03  0.7818608E-02  0.9797943E-01
          2   -1    0    0  501    0  0.00000000000E+00  0.00000000000E+00  0.11873832922E+04  0.11873832922E+04  0.25500000000E-02 0. -1.
         -2   -1    0    0    0  501 -0.00000000000E+00 -0.00000000000E+00 -0.46542403715E+03  0.46542403716E+03  0.25500000000E-02 0.  1.
    8880022    1    1    2    0    0 -0.61852183958E+03  0.15070291325E+03 -0.30420462924E+02  0.65543702343E+03  0.15294330000E+03 0.  0.
    8880022    1    1    2    0    0  0.61852183958E+03 -0.15070291325E+03  0.75237971794E+03  0.99737030589E+03  0.15294330000E+03 0.  0.
<mgrwt>
<rscale>  0 0.65473070E+03</rscale>
<asrwt>0</asrwt>
<pdfrwt beam="1">  1        2 0.18267435E+00 0.65473070E+03</pdfrwt>
<pdfrwt beam="2">  1       -2 0.71603699E-01 0.65473070E+03</pdfrwt>
<totfact> 0.35075314E+01</totfact>
</mgrwt>
</event>
<event>
 4    1  0.4880711E-008  0.1698292E+03  0.7818608E-02  0.1178026E+00
         -2   -1    0    0    0  501 -0.00000000000E+00  0.00000000000E+00  0.25422181282E+02  0.25422181409E+02  0.25500000000E-02 0.  1.
          2   -1    0    0  501    0  0.00000000000E+00 -0.00000000000E+00 -0.20863390953E+04  0.20863390953E+04  0.25500000000E-02 0. -1.
    8880022    1    1    2    0    0  0.72753953873E+02  0.12537048651E+02 -0.31727768173E+03  0.35987094316E+03  0.15294330000E+03 0.  1.
    8880022    1    1    2    0    0 -0.72753953873E+02 -0.12537048651E+02 -0.17436392323E+04  0.17518903335E+04  0.15294330000E+03 0.  0.
<mgrwt>
<rscale>  0 0.16982923E+03</rscale>
<asrwt>0</asrwt>
<pdfrwt beam="1">  1        2 0.32097511E+00 0.16982923E+03</pdfrwt>
<pdfrwt beam="2">  1       -2 0.39111065E-02 0.16982923E+03</pdfrwt>
<totfact> 0.19169964E+03</totfact>
</mgrwt>
</event>
<event>
 4    1  0.4880711E-008  0.4668699E+03  0.7818608E-02  0.1022807E+00
         -2   -1    0    0    0  501 -0.00000000000E+00  0.00000000000E+00  0.29562821916E+03  0.29562821917E+03  0.25500000000E-02 0.  1.
          2   -1    0    0  501    0  0.00000000000E+00 -0.00000000000E+00 -0.15664987646E+04  0.15664987646E+04  0.25500000000E-02 0. -1.
    8880022    1    1    2    0    0  0.37436455135E+03  0.23329594642E+03  0.41961150337E+02  0.46875175421E+03  0.15294330000E+03 0.  0.
    8880022    1    1    2    0    0 -0.37436455135E+03 -0.23329594642E+03 -0.13128316958E+04  0.13933752296E+04  0.15294330000E+03 0.  0.
<mgrwt>
<rscale>  0 0.46686986E+03</rscale>
<asrwt>0</asrwt>
<pdfrwt beam="1">  1        2 0.24099981E+00 0.46686986E+03</pdfrwt>
<pdfrwt beam="2">  1       -2 0.45481265E-01 0.46686986E+03</pdfrwt>
<totfact> 0.56658047E+01</totfact>
</mgrwt>
</event>
<event>
 4    1  0.4880711E-008  0.6570987E+03  0.7818608E-02  0.9793549E-01
          2   -1    0    0  501    0  0.00000000000E+00  0.00000000000E+00  0.12657211913E+04  0.12657211913E+04  0.25500000000E-02 0. -1.
         -2   -1    0    0    0  501 -0.00000000000E+00 -0.00000000000E+00 -0.38722152379E+03  0.38722152380E+03  0.25500000000E-02 0.  1.
    8880022    1    1    2    0    0 -0.10251338237E+03  0.63077573107E+03  0.72438231015E+03  0.97801247474E+03  0.15294330000E+03 0.  0.
    8880022    1    1    2    0    0  0.10251338237E+03 -0.63077573107E+03  0.15411735733E+03  0.67493024033E+03  0.15294330000E+03 0.  0.
<mgrwt>
<rscale>  0 0.65709868E+03</rscale>
<asrwt>0</asrwt>
<pdfrwt beam="1">  1        2 0.19472634E+00 0.65709868E+03</pdfrwt>
<pdfrwt beam="2">  1       -2 0.59572542E-01 0.65709868E+03</pdfrwt>
<totfact> 0.46832665E+01</totfact>
</mgrwt>
</event>
<event>
 4    1  0.4880711E-008  0.3839145E+03  0.7818608E-02  0.1049496E+00
         -2   -1    0    0    0  501 -0.00000000000E+00  0.00000000000E+00  0.84364837829E+03  0.84364837830E+03  0.25500000000E-02 0.  1.
          2   -1    0    0  501    0  0.00000000000E+00 -0.00000000000E+00 -0.28062280587E+03  0.28062280588E+03  0.25500000000E-02 0. -1.
    8880022    1    1    2    0    0  0.35068408095E+03 -0.31926923750E+02  0.62686508404E+03  0.73508512411E+03  0.15294330000E+03 0.  0.
    8880022    1    1    2    0    0 -0.35068408095E+03  0.31926923750E+02 -0.63839511612E+02  0.38918606007E+03  0.15294330000E+03 0.  0.
<mgrwt>
<rscale>  0 0.38391445E+03</rscale>
<asrwt>0</asrwt>
<pdfrwt beam="1">  1        2 0.43172740E-01 0.38391445E+03</pdfrwt>
<pdfrwt beam="2">  1       -2 0.12979206E+00 0.38391445E+03</pdfrwt>
<totfact> 0.53581752E+01</totfact>
</mgrwt>
</event>
<event>
 4    1  0.4880711E-008  0.7158547E+03  0.7818608E-02  0.9690496E-01
          2   -1    0    0  501    0  0.00000000000E+00  0.00000000000E+00  0.60347853308E+03  0.60347853308E+03  0.25500000000E-02 0. -1.
         -2   -1    0    0    0  501 -0.00000000000E+00 -0.00000000000E+00 -0.16469716058E+04  0.16469716059E+04  0.25500000000E-02 0.  1.
    8880022    1    1    2    0    0 -0.54510787402E+03 -0.43807950116E+03  0.26140786109E+03  0.76209052383E+03  0.15294330000E+03 0.  0.
    8880022    1    1    2    0    0  0.54510787402E+03  0.43807950116E+03 -0.13049009339E+04  0.14883596151E+04  0.15294330000E+03 0.  0.
<mgrwt>
<rscale>  0 0.71585466E+03</rscale>
<asrwt>0</asrwt>
<pdfrwt beam="1">  1        2 0.92842852E-01 0.71585466E+03</pdfrwt>
<pdfrwt beam="2">  1       -2 0.25338025E+00 0.71585466E+03</pdfrwt>
<totfact> 0.31253775E+00</totfact>
</mgrwt>
</event>
<event>
 4    1  0.4880711E-008  0.4022730E+03  0.7818608E-02  0.1042995E+00
         -2   -1    0    0    0  501 -0.00000000000E+00  0.00000000000E+00  0.42934711628E+03  0.42934711629E+03  0.25500000000E-02 0.  1.
          2   -1    0    0  501    0  0.00000000000E+00 -0.00000000000E+00 -0.92009235626E+03  0.92009235626E+03  0.25500000000E-02 0. -1.
    8880022    1    1    2    0    0  0.10525841444E+03 -0.35686492772E+03  0.27304776921E+03  0.48618787288E+03  0.15294330000E+03 0.  0.
    8880022    1    1    2    0    0 -0.10525841444E+03  0.35686492772E+03 -0.76379300918E+03  0.86325159967E+03  0.15294330000E+03 0.  0.
<mgrwt>
<rscale>  0 0.40227300E+03</rscale>
<asrwt>0</asrwt>
<pdfrwt beam="1">  1        2 0.14155267E+00 0.40227300E+03</pdfrwt>
<pdfrwt beam="2">  1       -2 0.66053403E-01 0.40227300E+03</pdfrwt>
<totfact> 0.63101272E+01</totfact>
</mgrwt>
</event>
<event>
 4    1  0.4880711E-008  0.7113178E+03  0.7818608E-02  0.9698071E-01
         -2   -1    0    0    0  501 -0.00000000000E+00  0.00000000000E+00  0.15911018999E+04  0.15911018999E+04  0.25500000000E-02 0.  1.
          2   -1    0    0  501    0  0.00000000000E+00 -0.00000000000E+00 -0.10956512140E+04  0.10956512140E+04  0.25500000000E-02 0. -1.
    8880022    1    1    2    0    0  0.96690477839E+01  0.69461347234E+03  0.13794833383E+04  0.15520783808E+04  0.15294330000E+03 0.  0.
    8880022    1    1    2    0    0 -0.96690477839E+01 -0.69461347234E+03 -0.88403265237E+03  0.11346747331E+04  0.15294330000E+03 0.  0.
<mgrwt>
<rscale>  0 0.71131780E+03</rscale>
<asrwt>0</asrwt>
<pdfrwt beam="1">  1        2 0.16856172E+00 0.71131780E+03</pdfrwt>
<pdfrwt beam="2">  1       -2 0.24478491E+00 0.71131780E+03</pdfrwt>
<totfact> 0.15796437E+00</totfact>
</mgrwt>
</event>
<event>
 4    1  0.4880711E-008  0.5091302E+03  0.7818608E-02  0.1011423E+00
          2   -1    0    0  501    0  0.00000000000E+00  0.00000000000E+00  0.26568820735E+04  0.26568820735E+04  0.25500000000E-02 0. -1.
         -2   -1    0    0    0  501 -0.00000000000E+00 -0.00000000000E+00 -0.19213371470E+03  0.19213371472E+03  0.25500000000E-02 0.  1.
    8880022    1    1    2    0    0  0.47464018901E+03  0.10265774558E+03  0.23296981245E+03  0.55990044497E+03  0.15294330000E+03 0.  0.
    8880022    1    1    2    0    0 -0.47464018901E+03 -0.10265774558E+03  0.22317785464E+04  0.22891153433E+04  0.15294330000E+03 0.  0.
<mgrwt>
<rscale>  0 0.50913021E+03</rscale>
<asrwt>0</asrwt>
<pdfrwt beam="1">  1        2 0.40875108E+00 0.50913021E+03</pdfrwt>
<pdfrwt beam="2">  1       -2 0.29559033E-01 0.50913021E+03</pdfrwt>
<totfact> 0.32457798E+01</totfact>
</mgrwt>
</event>
<event>
 4    1  0.4880711E-008  0.7434952E+03  0.7818608E-02  0.9645611E-01
         -2   -1    0    0    0  501 -0.00000000000E+00  0.00000000000E+00  0.53823817867E+03  0.53823817868E+03  0.25500000000E-02 0.  1.
          2   -1    0    0  501    0  0.00000000000E+00 -0.00000000000E+00 -0.14752579845E+04  0.14752579845E+04  0.25500000000E-02 0. -1.
    8880022    1    1    2    0    0  0.72534204009E+03 -0.57204496958E+02  0.86419599486E+02  0.74850078810E+03  0.15294330000E+03 0.  0.
    8880022    1    1    2    0    0 -0.72534204009E+03  0.57204496958E+02 -0.10234394053E+04  0.12649953750E+04  0.15294330000E+03 0.  0.
<mgrwt>
<rscale>  0 0.74349518E+03</rscale>
<asrwt>0</asrwt>
<pdfrwt beam="1">  1        2 0.22696277E+00 0.74349518E+03</pdfrwt>
<pdfrwt beam="2">  1       -2 0.82805874E-01 0.74349518E+03</pdfrwt>
<totfact> 0.17174889E+01</totfact>
</mgrwt>
</event>
<event>
 4    1  0.4880711E-008  0.1200070E+04  0.7818608E-02  0.9112795E-01
         -2   -1    0    0    0  501 -0.00000000000E+00  0.00000000000E+00  0.16196969351E+04  0.16196969351E+04  0.25500000000E-02 0.  1.
          2   -1    0    0  501    0  0.00000000000E+00 -0.00000000000E+00 -0.14573806324E+04  0.14573806324E+04  0.25500000000E-02 0. -1.
    8880022    1    1    2    0    0  0.11894323463E+04 -0.45026128767E+02  0.10418426544E+04  0.15892150352E+04  0.15294330000E+03 0.  0.
    8880022    1    1    2    0    0 -0.11894323463E+04  0.45026128767E+02 -0.87952635174E+03  0.14878625323E+04  0.15294330000E+03 0.  0.
<mgrwt>
<rscale>  0 0.12000701E+04</rscale>
<asrwt>0</asrwt>
<pdfrwt beam="1">  1        2 0.22421241E+00 0.12000701E+04</pdfrwt>
<pdfrwt beam="2">  1       -2 0.24918414E+00 0.12000701E+04</pdfrwt>
<totfact> 0.84770860E-01</totfact>
</mgrwt>
</event>
<event>
 4    1  0.4880711E-008  0.5946194E+03  0.7818608E-02  0.9916632E-01
         -2   -1    0    0    0  501 -0.00000000000E+00  0.00000000000E+00  0.37016340387E+03  0.37016340388E+03  0.25500000000E-02 0.  1.
          2   -1    0    0  501    0  0.00000000000E+00 -0.00000000000E+00 -0.18764834409E+04  0.18764834409E+04  0.25500000000E-02 0. -1.
    8880022    1    1    2    0    0 -0.87766507348E+02  0.56787109096E+03 -0.15402676184E+04  0.16510592131E+04  0.15294330000E+03 0.  0.
    8880022    1    1    2    0    0  0.87766507348E+02 -0.56787109096E+03  0.33947581364E+02  0.59558763172E+03  0.15294330000E+03 0.  0.
<mgrwt>
<rscale>  0 0.59461936E+03</rscale>
<asrwt>0</asrwt>
<pdfrwt beam="1">  1        2 0.28868975E+00 0.59461936E+03</pdfrwt>
<pdfrwt beam="2">  1       -2 0.56948217E-01 0.59461936E+03</pdfrwt>
<totfact> 0.23864204E+01</totfact>
</mgrwt>
</event>
<event>
 4    1  0.4880711E-008  0.8750347E+03  0.7818608E-02  0.9457339E-01
         -2   -1    0    0    0  501 -0.00000000000E+00  0.00000000000E+00  0.38251842127E+03  0.38251842128E+03  0.25500000000E-02 0.  1.
          2   -1    0    0  501    0  0.00000000000E+00 -0.00000000000E+00 -0.28790034818E+04  0.28790034818E+04  0.25500000000E-02 0. -1.
    8880022    1    1    2    0    0  0.18368699305E+03 -0.84175603587E+03 -0.21484549479E+04  0.23198156072E+04  0.15294330000E+03 0.  0.
    8880022    1    1    2    0    0 -0.18368699305E+03  0.84175603587E+03 -0.34803011264E+03  0.94170629586E+03  0.15294330000E+03 0.  0.
<mgrwt>
<rscale>  0 0.87503474E+03</rscale>
<asrwt>0</asrwt>
<pdfrwt beam="1">  1        2 0.44292360E+00 0.87503474E+03</pdfrwt>
<pdfrwt beam="2">  1       -2 0.58848990E-01 0.87503474E+03</pdfrwt>
<totfact> 0.58011729E+00</totfact>
</mgrwt>
</event>
<event>
 4    1  0.4880711E-008  0.7690011E+03  0.7818608E-02  0.9606003E-01
         -2   -1    0    0    0  501 -0.00000000000E+00  0.00000000000E+00  0.83637309240E+03  0.83637309241E+03  0.25500000000E-02 0.  1.
          2   -1    0    0  501    0  0.00000000000E+00 -0.00000000000E+00 -0.26033521012E+04  0.26033521012E+04  0.25500000000E-02 0. -1.
    8880022    1    1    2    0    0 -0.68589578438E+03 -0.31227868329E+03  0.58435606685E+03  0.96583366526E+03  0.15294330000E+03 0.  0.
    8880022    1    1    2    0    0  0.68589578438E+03  0.31227868329E+03 -0.23513350757E+04  0.24738915284E+04  0.15294330000E+03 0.  0.
<mgrwt>
<rscale>  0 0.76900108E+03</rscale>
<asrwt>0</asrwt>
<pdfrwt beam="1">  1        2 0.40051570E+00 0.76900108E+03</pdfrwt>
<pdfrwt beam="2">  1       -2 0.12867278E+00 0.76900108E+03</pdfrwt>
<totfact> 0.14184472E+00</totfact>
</mgrwt>
</event>
<event>
 4    1  0.4880711E-008  0.1932697E+03  0.7818608E-02  0.1155545E+00
         -2   -1    0    0    0  501 -0.00000000000E+00  0.00000000000E+00  0.15996479536E+03  0.15996479538E+03  0.25500000000E-02 0.  1.
          2   -1    0    0  501    0  0.00000000000E+00 -0.00000000000E+00 -0.32449275926E+04  0.32449275926E+04  0.25500000000E-02 0. -1.
    8880022    1    1    2    0    0 -0.57839083156E+02 -0.10303478658E+03  0.97566270289E+02  0.21650024688E+03  0.15294330000E+03 0.  0.
    8880022    1    1    2    0    0  0.57839083156E+02  0.10303478658E+03 -0.31825290675E+04  0.31883921411E+04  0.15294330000E+03 0. -1.
<mgrwt>
<rscale>  0 0.19326971E+03</rscale>
<asrwt>0</asrwt>
<pdfrwt beam="1">  1        2 0.49921958E+00 0.19326971E+03</pdfrwt>
<pdfrwt beam="2">  1       -2 0.24609971E-01 0.19326971E+03</pdfrwt>
<totfact> 0.22856538E+01</totfact>
</mgrwt>
</event>
<event>
 4    1  0.4880711E-008  0.9920359E+03  0.7818608E-02  0.9317323E-01
          2   -1    0    0  501    0  0.00000000000E+00  0.00000000000E+00  0.34481621148E+04  0.34481621148E+04  0.25500000000E-02 0. -1.
         -2   -1    0    0    0  501 -0.00000000000E+00 -0.00000000000E+00 -0.64024062196E+03  0.64024062197E+03  0.25500000000E-02 0.  1.
    8880022    1    1    2    0    0 -0.23648868691E+03  0.95121852657E+03  0.29257812962E+04  0.30893901389E+04  0.15294330000E+03 0.  0.
    8880022    1    1    2    0    0  0.23648868691E+03 -0.95121852657E+03 -0.11785980338E+03  0.99901259782E+03  0.15294330000E+03 0.  0.
<mgrwt>
<rscale>  0 0.99203591E+03</rscale>
<asrwt>0</asrwt>
<pdfrwt beam="1">  1        2 0.53048649E+00 0.99203591E+03</pdfrwt>
<pdfrwt beam="2">  1       -2 0.98498556E-01 0.99203591E+03</pdfrwt>
<totfact> 0.78162071E-01</totfact>
</mgrwt>
</event>
<event>
 4    1  0.4880711E-008  0.4919766E+03  0.7818608E-02  0.1015895E+00
          2   -1    0    0  501    0  0.00000000000E+00  0.00000000000E+00  0.63852941231E+03  0.63852941231E+03  0.25500000000E-02 0. -1.
         -2   -1    0    0    0  501 -0.00000000000E+00 -0.00000000000E+00 -0.11237245103E+04  0.11237245103E+04  0.25500000000E-02 0.  1.
    8880022    1    1    2    0    0 -0.82788243378E+02 -0.46021241146E+03 -0.95987779168E+03  0.10786131767E+04  0.15294330000E+03 0.  1.
    8880022    1    1    2    0    0  0.82788243378E+02  0.46021241146E+03  0.47468269365E+03  0.68364074599E+03  0.15294330000E+03 0.  0.
<mgrwt>
<rscale>  0 0.49197664E+03</rscale>
<asrwt>0</asrwt>
<pdfrwt beam="1">  1        2 0.98235294E-01 0.49197664E+03</pdfrwt>
<pdfrwt beam="2">  1       -2 0.17288069E+00 0.49197664E+03</pdfrwt>
<totfact> 0.98410988E+00</totfact>
</mgrwt>
</event>
<event>
 4    1  0.4880711E-008  0.3707220E+03  0.7818608E-02  0.1054417E+00
         -2   -1    0    0    0  501 -0.00000000000E+00  0.00000000000E+00  0.32239217857E+03  0.32239217858E+03  0.25500000000E-02 0.  1.
          2   -1    0    0  501    0  0.00000000000E+00 -0.00000000000E+00 -0.20507909690E+04  0.20507909690E+04  0.25500000000E-02 0. -1.
    8880022    1    1    2    0    0  0.32900737856E+03  0.76139989295E+02 -0.19202862056E+04  0.19557438272E+04  0.15294330000E+03 0.  0.
    8880022    1    1    2    0    0 -0.32900737856E+03 -0.76139989295E+02  0.19188741515E+03  0.41743932041E+03  0.15294330000E+03 0.  0.
<mgrwt>
<rscale>  0 0.37072201E+03</rscale>
<asrwt>0</asrwt>
<pdfrwt beam="1">  1        2 0.31550629E+00 0.37072201E+03</pdfrwt>
<pdfrwt beam="2">  1       -2 0.49598798E-01 0.37072201E+03</pdfrwt>
<totfact> 0.26785442E+01</totfact>
</mgrwt>
</event>
<event>
 4    1  0.4880711E-008  0.5887581E+03  0.7818608E-02  0.9929008E-01
          2   -1    0    0  501    0  0.00000000000E+00  0.00000000000E+00  0.14114538116E+04  0.14114538116E+04  0.25500000000E-02 0. -1.
         -2   -1    0    0    0  501 -0.00000000000E+00 -0.00000000000E+00 -0.29937706872E+03  0.29937706873E+03  0.25500000000E-02 0.  1.
    8880022    1    1    2    0    0  0.45719588105E+03  0.33795905471E+03  0.91862770988E+03  0.10911062820E+04  0.15294330000E+03 0.  0.
    8880022    1    1    2    0    0 -0.45719588105E+03 -0.33795905471E+03  0.19344903296E+03  0.61972459825E+03  0.15294330000E+03 0.  0.
<mgrwt>
<rscale>  0 0.58875806E+03</rscale>
<asrwt>0</asrwt>
<pdfrwt beam="1">  1        2 0.21714674E+00 0.58875806E+03</pdfrwt>
<pdfrwt beam="2">  1       -2 0.46058011E-01 0.58875806E+03</pdfrwt>
<totfact> 0.66094664E+01</totfact>
</mgrwt>
</event>
<event>
 4    1  0.4880711E-008  0.7185772E+03  0.7818608E-02  0.9685980E-01
          2   -1    0    0  501    0  0.00000000000E+00  0.00000000000E+00  0.12949926348E+04  0.12949926348E+04  0.25500000000E-02 0. -1.
         -2   -1    0    0    0  501 -0.00000000000E+00 -0.00000000000E+00 -0.69721103592E+03  0.69721103593E+03  0.25500000000E-02 0.  1.
    8880022    1    1    2    0    0  0.35214822600E+03 -0.60741518981E+03  0.95063852124E+03  0.11916655726E+04  0.15294330000E+03 0.  0.
    8880022    1    1    2    0    0 -0.35214822600E+03  0.60741518981E+03 -0.35285692234E+03  0.80053809813E+03  0.15294330000E+03 0.  0.
<mgrwt>
<rscale>  0 0.71857723E+03</rscale>
<asrwt>0</asrwt>
<pdfrwt beam="1">  1        2 0.19922964E+00 0.71857723E+03</pdfrwt>
<pdfrwt beam="2">  1       -2 0.10726324E+00 0.71857723E+03</pdfrwt>
<totfact> 0.11914039E+01</totfact>
</mgrwt>
</event>
<event>
 4    1  0.4880711E-008  0.5361330E+03  0.7818608E-02  0.1004756E+00
          2   -1    0    0  501    0  0.00000000000E+00  0.00000000000E+00  0.19965176666E+04  0.19965176666E+04  0.25500000000E-02 0. -1.
         -2   -1    0    0    0  501 -0.00000000000E+00 -0.00000000000E+00 -0.20440060785E+03  0.20440060787E+03  0.25500000000E-02 0.  1.
    8880022    1    1    2    0    0 -0.36580974302E+03  0.36087411802E+03  0.29769999800E+03  0.61324044140E+03  0.15294330000E+03 0.  0.
    8880022    1    1    2    0    0  0.36580974302E+03 -0.36087411802E+03  0.14944170607E+04  0.15876778331E+04  0.15294330000E+03 0.  0.
<mgrwt>
<rscale>  0 0.53613296E+03</rscale>
<asrwt>0</asrwt>
<pdfrwt beam="1">  1        2 0.30715658E+00 0.53613296E+03</pdfrwt>
<pdfrwt beam="2">  1       -2 0.31446246E-01 0.53613296E+03</pdfrwt>
<totfact> 0.66677457E+01</totfact>
</mgrwt>
</event>
<event>
 4    1  0.4880711E-008  0.4346779E+03  0.7818608E-02  0.1032392E+00
         -2   -1    0    0    0  501 -0.00000000000E+00  0.00000000000E+00  0.10106062321E+03  0.10106062324E+03  0.25500000000E-02 0.  1.
          2   -1    0    0  501    0  0.00000000000E+00 -0.00000000000E+00 -0.25430896230E+04  0.25430896230E+04  0.25500000000E-02 0. -1.
    8880022    1    1    2    0    0 -0.18265275603E+03  0.36358102449E+03 -0.19013680967E+04  0.19504218730E+04  0.15294330000E+03 0.  0.
    8880022    1    1    2    0    0  0.18265275603E+03 -0.36358102449E+03 -0.54066090313E+03  0.69372837325E+03  0.15294330000E+03 0.  0.
<mgrwt>
<rscale>  0 0.43467786E+03</rscale>
<asrwt>0</asrwt>
<pdfrwt beam="1">  1        2 0.39124451E+00 0.43467786E+03</pdfrwt>
<pdfrwt beam="2">  1       -2 0.15547790E-01 0.43467786E+03</pdfrwt>
<totfact> 0.11807064E+02</totfact>
</mgrwt>
</event>
<event>
 4    1  0.4880711E-008  0.2100687E+03  0.7818608E-02  0.1141512E+00
         -2   -1    0    0    0  501 -0.00000000000E+00  0.00000000000E+00  0.90496132832E+02  0.90496132868E+02  0.25500000000E-02 0.  1.
          2   -1    0    0  501    0  0.00000000000E+00 -0.00000000000E+00 -0.58176656758E+03  0.58176656758E+03  0.25500000000E-02 0. -1.
    8880022    1    1    2    0    0  0.10326517574E+01  0.14400051677E+03 -0.38084487985E+03  0.43493872065E+03  0.15294330000E+03 0.  0.
    8880022    1    1    2    0    0 -0.10326517574E+01 -0.14400051677E+03 -0.11042555490E+03  0.23732397980E+03  0.15294330000E+03 0.  0.
<mgrwt>
<rscale>  0 0.21006872E+03</rscale>
<asrwt>0</asrwt>
<pdfrwt beam="1">  1        2 0.89502546E-01 0.21006872E+03</pdfrwt>
<pdfrwt beam="2">  1       -2 0.13922482E-01 0.21006872E+03</pdfrwt>
<totfact> 0.20141284E+03</totfact>
</mgrwt>
</event>
<event>
 4    1  0.4880711E-008  0.7465409E+03  0.7818608E-02  0.9640793E-01
          2   -1    0    0  501    0  0.00000000000E+00  0.00000000000E+00  0.14805471301E+04  0.14805471301E+04  0.25500000000E-02 0. -1.
         -2   -1    0    0    0  501 -0.00000000000E+00 -0.00000000000E+00 -0.54264654441E+03  0.54264654442E+03  0.25500000000E-02 0.  1.
    8880022    1    1    2    0    0  0.11631813940E+03 -0.72138873478E+03 -0.90917211351E+02  0.75205665249E+03  0.15294330000E+03 0.  0.
    8880022    1    1    2    0    0 -0.11631813940E+03  0.72138873478E+03  0.10288177970E+04  0.12711370220E+04  0.15294330000E+03 0.  0.
<mgrwt>
<rscale>  0 0.74654087E+03</rscale>
<asrwt>0</asrwt>
<pdfrwt beam="1">  1        2 0.22777648E+00 0.74654087E+03</pdfrwt>
<pdfrwt beam="2">  1       -2 0.83484085E-01 0.74654087E+03</pdfrwt>
<totfact> 0.16739650E+01</totfact>
</mgrwt>
</event>
<event>
 4    1  0.4880711E-008  0.7033137E+03  0.7818608E-02  0.9711582E-01
          2   -1    0    0  501    0  0.00000000000E+00  0.00000000000E+00  0.22747387190E+04  0.22747387190E+04  0.25500000000E-02 0. -1.
         -2   -1    0    0    0  501 -0.00000000000E+00 -0.00000000000E+00 -0.22814385112E+03  0.22814385113E+03  0.25500000000E-02 0.  1.
    8880022    1    1    2    0    0 -0.24123017132E+03  0.64270249909E+03  0.12941916941E+04  0.14729502001E+04  0.15294330000E+03 0. -1.
    8880022    1    1    2    0    0  0.24123017132E+03 -0.64270249909E+03  0.75240317377E+03  0.10299323700E+04  0.15294330000E+03 0.  1.
<mgrwt>
<rscale>  0 0.70331369E+03</rscale>
<asrwt>0</asrwt>
<pdfrwt beam="1">  1        2 0.34995980E+00 0.70331369E+03</pdfrwt>
<pdfrwt beam="2">  1       -2 0.35099054E-01 0.70331369E+03</pdfrwt>
<totfact> 0.37264408E+01</totfact>
</mgrwt>
</event>
<event>
 4    1  0.4880711E-008  0.5458985E+03  0.7818608E-02  0.1002448E+00
          2   -1    0    0  501    0  0.00000000000E+00  0.00000000000E+00  0.23780168785E+04  0.23780168785E+04  0.25500000000E-02 0. -1.
         -2   -1    0    0    0  501 -0.00000000000E+00 -0.00000000000E+00 -0.84362860607E+03  0.84362860607E+03  0.25500000000E-02 0.  1.
    8880022    1    1    2    0    0  0.49315630740E+03 -0.17722961622E+03  0.22535700128E+04  0.23187459835E+04  0.15294330000E+03 0.  0.
    8880022    1    1    2    0    0 -0.49315630740E+03  0.17722961622E+03 -0.71918174035E+03  0.90289950109E+03  0.15294330000E+03 0.  1.
<mgrwt>
<rscale>  0 0.54589846E+03</rscale>
<asrwt>0</asrwt>
<pdfrwt beam="1">  1        2 0.36584874E+00 0.54589846E+03</pdfrwt>
<pdfrwt beam="2">  1       -2 0.12978902E+00 0.54589846E+03</pdfrwt>
<totfact> 0.19598522E+00</totfact>
</mgrwt>
</event>
<event>
 4    1  0.4880711E-008  0.6214243E+03  0.7818608E-02  0.9861928E-01
         -2   -1    0    0    0  501 -0.00000000000E+00  0.00000000000E+00  0.25220184055E+04  0.25220184055E+04  0.25500000000E-02 0.  1.
          2   -1    0    0  501    0  0.00000000000E+00 -0.00000000000E+00 -0.33531963865E+03  0.33531963866E+03  0.25500000000E-02 0. -1.
    8880022    1    1    2    0    0  0.44951284504E+03  0.40089231503E+03  0.40230315313E+02  0.62272512185E+03  0.15294330000E+03 0.  0.
    8880022    1    1    2    0    0 -0.44951284504E+03 -0.40089231503E+03  0.21464684515E+04  0.22346129223E+04  0.15294330000E+03 0.  0.
<mgrwt>
<rscale>  0 0.62142425E+03</rscale>
<asrwt>0</asrwt>
<pdfrwt beam="1">  1        2 0.51587638E-01 0.62142425E+03</pdfrwt>
<pdfrwt beam="2">  1       -2 0.38800282E+00 0.62142425E+03</pdfrwt>
<totfact> 0.93668147E-01</totfact>
</mgrwt>
</event>
<event>
 4    1  0.4880711E-008  0.1008043E+04  0.7818608E-02  0.9299767E-01
         -2   -1    0    0    0  501 -0.00000000000E+00  0.00000000000E+00  0.18362046587E+04  0.18362046587E+04  0.25500000000E-02 0.  1.
          2   -1    0    0  501    0  0.00000000000E+00 -0.00000000000E+00 -0.82509619891E+03  0.82509619891E+03  0.25500000000E-02 0. -1.
    8880022    1    1    2    0    0 -0.81081081513E+03 -0.57909055007E+03  0.12691353660E+04  0.16207579318E+04  0.15294330000E+03 0.  0.
    8880022    1    1    2    0    0  0.81081081513E+03  0.57909055007E+03 -0.25802690625E+03  0.10405429258E+04  0.15294330000E+03 0.  0.
<mgrwt>
<rscale>  0 0.10080435E+04</rscale>
<asrwt>0</asrwt>
<pdfrwt beam="1">  1        2 0.12693788E+00 0.10080435E+04</pdfrwt>
<pdfrwt beam="2">  1       -2 0.28249302E+00 0.10080435E+04</pdfrwt>
<totfact> 0.13448559E+00</totfact>
</mgrwt>
</event>
<event>
 4    1  0.4880711E-008  0.2124148E+03  0.7818608E-02  0.1139668E+00
          2   -1    0    0  501    0  0.00000000000E+00  0.00000000000E+00  0.34604129881E+03  0.34604129882E+03  0.25500000000E-02 0. -1.
         -2   -1    0    0    0  501 -0.00000000000E+00 -0.00000000000E+00 -0.15702523375E+03  0.15702523377E+03  0.25500000000E-02 0.  1.
    8880022    1    1    2    0    0  0.88336722243E+02 -0.11800434607E+03 -0.90885234229E+01  0.21260916363E+03  0.15294330000E+03 0.  0.
    8880022    1    1    2    0    0 -0.88336722243E+02  0.11800434607E+03  0.19810458848E+03  0.29045736895E+03  0.15294330000E+03 0.  0.
<mgrwt>
<rscale>  0 0.21241482E+03</rscale>
<asrwt>0</asrwt>
<pdfrwt beam="1">  1        2 0.53237123E-01 0.21241482E+03</pdfrwt>
<pdfrwt beam="2">  1       -2 0.24157728E-01 0.21241482E+03</pdfrwt>
<totfact> 0.14068066E+03</totfact>
</mgrwt>
</event>
<event>
 4    1  0.4880711E-008  0.7245775E+03  0.7818608E-02  0.9676101E-01
         -2   -1    0    0    0  501 -0.00000000000E+00  0.00000000000E+00  0.31956187472E+03  0.31956187473E+03  0.25500000000E-02 0.  1.
          2   -1    0    0  501    0  0.00000000000E+00 -0.00000000000E+00 -0.16633076553E+04  0.16633076553E+04  0.25500000000E-02 0. -1.
    8880022    1    1    2    0    0 -0.54025011170E+03 -0.45798542588E+03 -0.78165504811E+03  0.10658316475E+04  0.15294330000E+03 0.  0.
    8880022    1    1    2    0    0  0.54025011170E+03  0.45798542588E+03 -0.56209073252E+03  0.91703788260E+03  0.15294330000E+03 0.  0.
<mgrwt>
<rscale>  0 0.72457745E+03</rscale>
<asrwt>0</asrwt>
<pdfrwt beam="1">  1        2 0.25589348E+00 0.72457745E+03</pdfrwt>
<pdfrwt beam="2">  1       -2 0.49163366E-01 0.72457745E+03</pdfrwt>
<totfact> 0.41390623E+01</totfact>
</mgrwt>
</event>
<event>
 4    1  0.4880711E-008  0.1666500E+03  0.7818608E-02  0.1181387E+00
         -2   -1    0    0    0  501 -0.00000000000E+00  0.00000000000E+00  0.69490432896E+03  0.69490432897E+03  0.25500000000E-02 0.  1.
          2   -1    0    0  501    0  0.00000000000E+00 -0.00000000000E+00 -0.10787094316E+04  0.10787094316E+04  0.25500000000E-02 0. -1.
    8880022    1    1    2    0    0  0.48351116944E+02 -0.45196592411E+02 -0.10621265598E+04  0.10751209441E+04  0.15294330000E+03 0.  0.
    8880022    1    1    2    0    0 -0.48351116944E+02  0.45196592411E+02  0.67832145712E+03  0.69849281648E+03  0.15294330000E+03 0.  1.
<mgrwt>
<rscale>  0 0.16664998E+03</rscale>
<asrwt>0</asrwt>
<pdfrwt beam="1">  1        2 0.16595530E+00 0.16664998E+03</pdfrwt>
<pdfrwt beam="2">  1       -2 0.10690836E+00 0.16664998E+03</pdfrwt>
<totfact> 0.18280083E+01</totfact>
</mgrwt>
</event>
<event>
 4    1  0.4880711E-008  0.2901418E+03  0.7818608E-02  0.1090275E+00
         -2   -1    0    0    0  501 -0.00000000000E+00  0.00000000000E+00  0.25167212231E+03  0.25167212233E+03  0.25500000000E-02 0.  1.
          2   -1    0    0  501    0  0.00000000000E+00 -0.00000000000E+00 -0.10382920610E+04  0.10382920610E+04  0.25500000000E-02 0. -1.
    8880022    1    1    2    0    0 -0.12116469827E+03  0.21473182249E+03  0.13771209027E+03  0.32116493040E+03  0.15294330000E+03 0.  0.
    8880022    1    1    2    0    0  0.12116469827E+03 -0.21473182249E+03 -0.92433202899E+03  0.96879925296E+03  0.15294330000E+03 0. -1.
<mgrwt>
<rscale>  0 0.29014185E+03</rscale>
<asrwt>0</asrwt>
<pdfrwt beam="1">  1        2 0.15973724E+00 0.29014185E+03</pdfrwt>
<pdfrwt beam="2">  1       -2 0.38718789E-01 0.29014185E+03</pdfrwt>
<totfact> 0.15900234E+02</totfact>
</mgrwt>
</event>
<event>
 4    1  0.4880711E-008  0.2658419E+03  0.7818608E-02  0.1103683E+00
          2   -1    0    0  501    0  0.00000000000E+00  0.00000000000E+00  0.18994711296E+04  0.18994711297E+04  0.25500000000E-02 0. -1.
         -2   -1    0    0    0  501 -0.00000000000E+00 -0.00000000000E+00 -0.22018725978E+03  0.22018725980E+03  0.25500000000E-02 0.  1.
    8880022    1    1    2    0    0  0.21391412212E+03 -0.39000404674E+02 -0.12650450666E+03  0.29440673638E+03  0.15294330000E+03 0.  0.
    8880022    1    1    2    0    0 -0.21391412212E+03  0.39000404674E+02  0.18057883765E+04  0.18252516531E+04  0.15294330000E+03 0.  0.
<mgrwt>
<rscale>  0 0.26584194E+03</rscale>
<asrwt>0</asrwt>
<pdfrwt beam="1">  1        2 0.29222633E+00 0.26584194E+03</pdfrwt>
<pdfrwt beam="2">  1       -2 0.33874962E-01 0.26584194E+03</pdfrwt>
<totfact> 0.69456854E+01</totfact>
</mgrwt>
</event>
<event>
 4    1  0.4880711E-008  0.1349772E+04  0.7818608E-02  0.8991001E-01
          2   -1    0    0  501    0  0.00000000000E+00  0.00000000000E+00  0.22488331199E+04  0.22488331199E+04  0.25500000000E-02 0. -1.
         -2   -1    0    0    0  501 -0.00000000000E+00 -0.00000000000E+00 -0.85097343279E+03  0.85097343279E+03  0.25500000000E-02 0.  1.
    8880022    1    1    2    0    0  0.12281792240E+04  0.53858074783E+03  0.10384128816E+04  0.17029933628E+04  0.15294330000E+03 0.  0.
    8880022    1    1    2    0    0 -0.12281792240E+04 -0.53858074783E+03  0.35944680555E+03  0.13968131898E+04  0.15294330000E+03 0.  0.
<mgrwt>
<rscale>  0 0.13497722E+04</rscale>
<asrwt>0</asrwt>
<pdfrwt beam="1">  1        2 0.34597432E+00 0.13497722E+04</pdfrwt>
<pdfrwt beam="2">  1       -2 0.13091899E+00 0.13497722E+04</pdfrwt>
<totfact> 0.19873144E+00</totfact>
</mgrwt>
</event>
<event>
 4    1  0.4880711E-008  0.7991431E+03  0.7818608E-02  0.9561258E-01
          2   -1    0    0  501    0  0.00000000000E+00  0.00000000000E+00  0.12677538408E+04  0.12677538408E+04  0.25500000000E-02 0. -1.
         -2   -1    0    0    0  501 -0.00000000000E+00 -0.00000000000E+00 -0.94792151847E+03  0.94792151847E+03  0.25500000000E-02 0.  1.
    8880022    1    1    2    0    0 -0.23237040251E+01  0.78436762120E+03  0.91825941317E+03  0.12173043858E+04  0.15294330000E+03 0.  0.
    8880022    1    1    2    0    0  0.23237040251E+01 -0.78436762120E+03 -0.59842709079E+03  0.99837097353E+03  0.15294330000E+03 0.  0.
<mgrwt>
<rscale>  0 0.79914305E+03</rscale>
<asrwt>0</asrwt>
<pdfrwt beam="1">  1        2 0.19503905E+00 0.79914305E+03</pdfrwt>
<pdfrwt beam="2">  1       -2 0.14583408E+00 0.79914305E+03</pdfrwt>
<totfact> 0.56584406E+00</totfact>
</mgrwt>
</event>
<event>
 4    1  0.4880711E-008  0.1743287E+03  0.7818608E-02  0.1173407E+00
         -2   -1    0    0    0  501 -0.00000000000E+00  0.00000000000E+00  0.92248329710E+02  0.92248329745E+02  0.25500000000E-02 0.  1.
          2   -1    0    0  501    0  0.00000000000E+00 -0.00000000000E+00 -0.68288612653E+03  0.68288612653E+03  0.25500000000E-02 0. -1.
    8880022    1    1    2    0    0 -0.63901515909E+02  0.53994943434E+02 -0.57414475430E+03  0.60002725734E+03  0.15294330000E+03 0. -1.
    8880022    1    1    2    0    0  0.63901515909E+02 -0.53994943434E+02 -0.16493042518E+02  0.17510719893E+03  0.15294330000E+03 0.  0.
<mgrwt>
<rscale>  0 0.17432874E+03</rscale>
<asrwt>0</asrwt>
<pdfrwt beam="1">  1        2 0.10505940E+00 0.17432874E+03</pdfrwt>
<pdfrwt beam="2">  1       -2 0.14192051E-01 0.17432874E+03</pdfrwt>
<totfact> 0.16133688E+03</totfact>
</mgrwt>
</event>
<event>
 4    1  0.4880711E-008  0.3062026E+03  0.7818608E-02  0.1082180E+00
          2   -1    0    0  501    0  0.00000000000E+00  0.00000000000E+00  0.30024030418E+03  0.30024030419E+03  0.25500000000E-02 0. -1.
         -2   -1    0    0    0  501 -0.00000000000E+00 -0.00000000000E+00 -0.17744208063E+04  0.17744208063E+04  0.25500000000E-02 0.  1.
    8880022    1    1    2    0    0  0.10688499668E+03 -0.24278378877E+03 -0.16787260766E+04  0.17064235300E+04  0.15294330000E+03 0.  0.
    8880022    1    1    2    0    0 -0.10688499668E+03  0.24278378877E+03  0.20454557448E+03  0.36823758045E+03  0.15294330000E+03 0. -1.
<mgrwt>
<rscale>  0 0.30620259E+03</rscale>
<asrwt>0</asrwt>
<pdfrwt beam="1">  1        2 0.46190817E-01 0.30620259E+03</pdfrwt>
<pdfrwt beam="2">  1       -2 0.27298781E+00 0.30620259E+03</pdfrwt>
<totfact> 0.57274321E+00</totfact>
</mgrwt>
</event>
<event>
 4    1  0.5137666E-008  0.7488605E+03  0.7818608E-02  0.9637140E-01
          2   -1    0    0  501    0  0.00000000000E+00  0.00000000000E+00  0.18097137712E+04  0.18097137712E+04  0.25500000000E-02 0. -1.
         -2   -1    0    0    0  501 -0.00000000000E+00 -0.00000000000E+00 -0.72750323569E+03  0.72750323570E+03  0.25500000000E-02 0.  1.
    8880022    1    1    2    0    0 -0.42989176262E+03  0.59379575785E+03 -0.42007111206E+03  0.85863363655E+03  0.15294330000E+03 0.  0.
    8880022    1    1    2    0    0  0.42989176262E+03 -0.59379575785E+03  0.15022816476E+04  0.16785833704E+04  0.15294330000E+03 0.  0.
<mgrwt>
<rscale>  0 0.74886046E+03</rscale>
<asrwt>0</asrwt>
<pdfrwt beam="1">  1        2 0.27841750E+00 0.74886046E+03</pdfrwt>
<pdfrwt beam="2">  1       -2 0.11192358E+00 0.74886046E+03</pdfrwt>
<totfact> 0.55389987E+00</totfact>
</mgrwt>
</event>
<event>
 4    1  0.4880711E-008  0.1066317E+04  0.7818608E-02  0.9238658E-01
         -2   -1    0    0    0  501 -0.00000000000E+00  0.00000000000E+00  0.12405011208E+04  0.12405011209E+04  0.25500000000E-02 0.  1.
          2   -1    0    0  501    0  0.00000000000E+00 -0.00000000000E+00 -0.28009478760E+04  0.28009478760E+04  0.25500000000E-02 0. -1.
    8880022    1    1    2    0    0 -0.10178130931E+04  0.27873986985E+03  0.87721073861E+03  0.13807714295E+04  0.15294330000E+03 0.  0.
    8880022    1    1    2    0    0  0.10178130931E+04 -0.27873986985E+03 -0.24376574937E+04  0.26606775673E+04  0.15294330000E+03 0. -1.
<mgrwt>
<rscale>  0 0.10663166E+04</rscale>
<asrwt>0</asrwt>
<pdfrwt beam="1">  1        2 0.43091506E+00 0.10663166E+04</pdfrwt>
<pdfrwt beam="2">  1       -2 0.19084633E+00 0.10663166E+04</pdfrwt>
<totfact> 0.35356954E-01</totfact>
</mgrwt>
</event>
<event>
 4    1  0.4880711E-008  0.3323745E+03  0.7818608E-02  0.1070091E+00
         -2   -1    0    0    0  501 -0.00000000000E+00  0.00000000000E+00  0.43842702789E+03  0.43842702790E+03  0.25500000000E-02 0.  1.
          2   -1    0    0  501    0  0.00000000000E+00 -0.00000000000E+00 -0.46473048785E+03  0.46473048786E+03  0.25500000000E-02 0. -1.
    8880022    1    1    2    0    0  0.15075135419E+03  0.25368327213E+03  0.29239166383E+03  0.44268014575E+03  0.15294330000E+03 0.  0.
    8880022    1    1    2    0    0 -0.15075135419E+03 -0.25368327213E+03 -0.31869512379E+03  0.46047737001E+03  0.15294330000E+03 0.  0.
<mgrwt>
<rscale>  0 0.33237453E+03</rscale>
<asrwt>0</asrwt>
<pdfrwt beam="1">  1        2 0.71496998E-01 0.33237453E+03</pdfrwt>
<pdfrwt beam="2">  1       -2 0.67450312E-01 0.33237453E+03</pdfrwt>
<totfact> 0.14015219E+02</totfact>
</mgrwt>
</event>
<event>
 4    1  0.4880711E-008  0.4778972E+03  0.7818608E-02  0.1019715E+00
          2   -1    0    0  501    0  0.00000000000E+00  0.00000000000E+00  0.38212596777E+04  0.38212596777E+04  0.25500000000E-02 0. -1.
         -2   -1    0    0    0  501 -0.00000000000E+00 -0.00000000000E+00 -0.24710849899E+03  0.24710849900E+03  0.25500000000E-02 0.  1.
    8880022    1    1    2    0    0  0.14015116804E+03  0.43052492596E+03  0.35582578712E+04  0.35902067897E+04  0.15294330000E+03 0. -1.
    8880022    1    1    2    0    0 -0.14015116804E+03 -0.43052492596E+03  0.15893307498E+02  0.47816138699E+03  0.15294330000E+03 0.  0.
<mgrwt>
<rscale>  0 0.47789718E+03</rscale>
<asrwt>0</asrwt>
<pdfrwt beam="1">  1        2 0.58788612E+00 0.47789718E+03</pdfrwt>
<pdfrwt beam="2">  1       -2 0.38016691E-01 0.47789718E+03</pdfrwt>
<totfact> 0.36640252E+00</totfact>
</mgrwt>
</event>
<event>
 4    1  0.4880711E-008  0.3139346E+03  0.7818608E-02  0.1078475E+00
          2   -1    0    0  501    0  0.00000000000E+00  0.00000000000E+00  0.48149263030E+03  0.48149263031E+03  0.25500000000E-02 0. -1.
         -2   -1    0    0    0  501 -0.00000000000E+00 -0.00000000000E+00 -0.40446164450E+03  0.40446164451E+03  0.25500000000E-02 0.  1.
    8880022    1    1    2    0    0 -0.26793926622E+03  0.58067613485E+02 -0.27280920182E+03  0.41590841748E+03  0.15294330000E+03 0.  0.
    8880022    1    1    2    0    0  0.26793926622E+03 -0.58067613485E+02  0.34984018762E+03  0.47004585734E+03  0.15294330000E+03 0.  0.
<mgrwt>
<rscale>  0 0.31393463E+03</rscale>
<asrwt>0</asrwt>
<pdfrwt beam="1">  1        2 0.74075789E-01 0.31393463E+03</pdfrwt>
<pdfrwt beam="2">  1       -2 0.62224869E-01 0.31393463E+03</pdfrwt>
<totfact> 0.16005933E+02</totfact>
</mgrwt>
</event>
<event>
 4    1  0.4880711E-008  0.3643755E+03  0.7818608E-02  0.1056865E+00
          2   -1    0    0  501    0  0.00000000000E+00  0.00000000000E+00  0.26749969702E+03  0.26749969704E+03  0.25500000000E-02 0. -1.
         -2   -1    0    0    0  501 -0.00000000000E+00 -0.00000000000E+00 -0.90710665898E+03  0.90710665899E+03  0.25500000000E-02 0.  1.
    8880022    1    1    2    0    0 -0.12929208537E+03  0.30440335664E+03  0.75411441932E+02  0.37209727957E+03  0.15294330000E+03 0.  0.
    8880022    1    1    2    0    0  0.12929208537E+03 -0.30440335664E+03 -0.71501840389E+03  0.80250907645E+03  0.15294330000E+03 0.  0.
<mgrwt>
<rscale>  0 0.36437549E+03</rscale>
<asrwt>0</asrwt>
<pdfrwt beam="1">  1        2 0.41153800E-01 0.36437549E+03</pdfrwt>
<pdfrwt beam="2">  1       -2 0.13955487E+00 0.36437549E+03</pdfrwt>
<totfact> 0.47119335E+01</totfact>
</mgrwt>
</event>
<event>
 4    1  0.4880711E-008  0.3530368E+03  0.7818608E-02  0.1061375E+00
         -2   -1    0    0    0  501 -0.00000000000E+00  0.00000000000E+00  0.35996471816E+03  0.35996471817E+03  0.25500000000E-02 0.  1.
          2   -1    0    0  501    0  0.00000000000E+00 -0.00000000000E+00 -0.71739436733E+03  0.71739436733E+03  0.25500000000E-02 0. -1.
    8880022    1    1    2    0    0 -0.67313503183E+02 -0.31098588675E+03  0.20874572613E+03  0.41013383262E+03  0.15294330000E+03 0.  0.
    8880022    1    1    2    0    0  0.67313503183E+02  0.31098588675E+03 -0.56617537530E+03  0.66722525288E+03  0.15294330000E+03 0.  0.
<mgrwt>
<rscale>  0 0.35303680E+03</rscale>
<asrwt>0</asrwt>
<pdfrwt beam="1">  1        2 0.11036836E+00 0.35303680E+03</pdfrwt>
<pdfrwt beam="2">  1       -2 0.55379188E-01 0.35303680E+03</pdfrwt>
<totfact> 0.12711900E+02</totfact>
</mgrwt>
</event>
<event>
 4    1  0.4880711E-008  0.5136689E+03  0.7818608E-02  0.1010271E+00
         -2   -1    0    0    0  501 -0.00000000000E+00  0.00000000000E+00  0.27407251452E+03  0.27407251454E+03  0.25500000000E-02 0.  1.
          2   -1    0    0  501    0  0.00000000000E+00 -0.00000000000E+00 -0.20313261085E+04  0.20313261085E+04  0.25500000000E-02 0. -1.
    8880022    1    1    2    0    0 -0.38015498977E+03  0.30975191625E+03 -0.17146812595E+04  0.17899685865E+04  0.15294330000E+03 0.  0.
    8880022    1    1    2    0    0  0.38015498977E+03 -0.30975191625E+03 -0.42572334424E+02  0.51543003651E+03  0.15294330000E+03 0.  0.
<mgrwt>
<rscale>  0 0.51366888E+03</rscale>
<asrwt>0</asrwt>
<pdfrwt beam="1">  1        2 0.31251170E+00 0.51366888E+03</pdfrwt>
<pdfrwt beam="2">  1       -2 0.42165003E-01 0.51366888E+03</pdfrwt>
<totfact> 0.36637912E+01</totfact>
</mgrwt>
</event>
<event>
 4    1  0.4880711E-008  0.6404681E+03  0.7818608E-02  0.9824831E-01
          2   -1    0    0  501    0  0.00000000000E+00  0.00000000000E+00  0.19559575191E+04  0.19559575191E+04  0.25500000000E-02 0. -1.
         -2   -1    0    0    0  501 -0.00000000000E+00 -0.00000000000E+00 -0.33824699144E+03  0.33824699145E+03  0.25500000000E-02 0.  1.
    8880022    1    1    2    0    0  0.51590200586E+01 -0.62191730094E+03  0.15159633436E+04  0.16457047903E+04  0.15294330000E+03 0.  0.
    8880022    1    1    2    0    0 -0.51590200586E+01  0.62191730094E+03  0.10174718408E+03  0.64849972026E+03  0.15294330000E+03 0.  0.
<mgrwt>
<rscale>  0 0.64046811E+03</rscale>
<asrwt>0</asrwt>
<pdfrwt beam="1">  1        2 0.30091655E+00 0.64046811E+03</pdfrwt>
<pdfrwt beam="2">  1       -2 0.52037998E-01 0.64046811E+03</pdfrwt>
<totfact> 0.25845080E+01</totfact>
</mgrwt>
</event>
<event>
 4    1  0.4880711E-008  0.4552121E+03  0.7818608E-02  0.1026179E+00
          2   -1    0    0  501    0  0.00000000000E+00  0.00000000000E+00  0.14949854987E+04  0.14949854987E+04  0.25500000000E-02 0. -1.
         -2   -1    0    0    0  501 -0.00000000000E+00 -0.00000000000E+00 -0.20512908646E+03  0.20512908648E+03  0.25500000000E-02 0.  1.
    8880022    1    1    2    0    0 -0.41161957726E+03  0.11998236479E+03  0.16085422906E+03  0.48279620987E+03  0.15294330000E+03 0.  0.
    8880022    1    1    2    0    0  0.41161957726E+03 -0.11998236479E+03  0.11290021832E+04  0.12173183754E+04  0.15294330000E+03 0.  0.
<mgrwt>
<rscale>  0 0.45521215E+03</rscale>
<asrwt>0</asrwt>
<pdfrwt beam="1">  1        2 0.22999778E+00 0.45521215E+03</pdfrwt>
<pdfrwt beam="2">  1       -2 0.31558320E-01 0.45521215E+03</pdfrwt>
<totfact> 0.12512897E+02</totfact>
</mgrwt>
</event>
<event>
 4    1  0.4880711E-008  0.3951859E+03  0.7818608E-02  0.1045459E+00
          2   -1    0    0  501    0  0.00000000000E+00  0.00000000000E+00  0.50495585375E+03  0.50495585376E+03  0.25500000000E-02 0. -1.
         -2   -1    0    0    0  501 -0.00000000000E+00 -0.00000000000E+00 -0.95583632755E+03  0.95583632756E+03  0.25500000000E-02 0.  1.
    8880022    1    1    2    0    0 -0.18536519010E+03 -0.31371964570E+03 -0.82615790415E+03  0.91581046369E+03  0.15294330000E+03 0.  0.
    8880022    1    1    2    0    0  0.18536519010E+03  0.31371964570E+03  0.37527743034E+03  0.54498171762E+03  0.15294330000E+03 0.  0.
<mgrwt>
<rscale>  0 0.39518593E+03</rscale>
<asrwt>0</asrwt>
<pdfrwt beam="1">  1        2 0.77685516E-01 0.39518593E+03</pdfrwt>
<pdfrwt beam="2">  1       -2 0.14705174E+00 0.39518593E+03</pdfrwt>
<totfact> 0.20316768E+01</totfact>
</mgrwt>
</event>
<event>
 4    1  0.4880711E-008  0.3990597E+03  0.7818608E-02  0.1044106E+00
          2   -1    0    0  501    0  0.00000000000E+00  0.00000000000E+00  0.14018210200E+04  0.14018210200E+04  0.25500000000E-02 0. -1.
         -2   -1    0    0    0  501 -0.00000000000E+00 -0.00000000000E+00 -0.63990052125E+03  0.63990052125E+03  0.25500000000E-02 0.  1.
    8880022    1    1    2    0    0 -0.35122147857E+03  0.11180530734E+03  0.13067804905E+04  0.13663542210E+04  0.15294330000E+03 0.  0.
    8880022    1    1    2    0    0  0.35122147857E+03 -0.11180530734E+03 -0.54485999173E+03  0.67536732032E+03  0.15294330000E+03 0.  1.
<mgrwt>
<rscale>  0 0.39905965E+03</rscale>
<asrwt>0</asrwt>
<pdfrwt beam="1">  1        2 0.21566477E+00 0.39905965E+03</pdfrwt>
<pdfrwt beam="2">  1       -2 0.98446235E-01 0.39905965E+03</pdfrwt>
<totfact> 0.13452634E+01</totfact>
</mgrwt>
</event>
<event>
 4    1  0.4880711E-008  0.3714058E+03  0.7818608E-02  0.1054157E+00
          2   -1    0    0  501    0  0.00000000000E+00  0.00000000000E+00  0.21521538873E+03  0.21521538875E+03  0.25500000000E-02 0. -1.
         -2   -1    0    0    0  501 -0.00000000000E+00 -0.00000000000E+00 -0.80856220342E+03  0.80856220342E+03  0.25500000000E-02 0.  1.
    8880022    1    1    2    0    0 -0.31395810785E+03 -0.12641571203E+03 -0.52973562368E+03  0.64696376231E+03  0.15294330000E+03 0.  0.
    8880022    1    1    2    0    0  0.31395810785E+03  0.12641571203E+03 -0.63611191010E+02  0.37681382986E+03  0.15294330000E+03 0.  0.
<mgrwt>
<rscale>  0 0.37140581E+03</rscale>
<asrwt>0</asrwt>
<pdfrwt beam="1">  1        2 0.33110060E-01 0.37140581E+03</pdfrwt>
<pdfrwt beam="2">  1       -2 0.12439418E+00 0.37140581E+03</pdfrwt>
<totfact> 0.79800555E+01</totfact>
</mgrwt>
</event>
<event>
 4    1  0.4880711E-008  0.6573797E+03  0.7818608E-02  0.9793029E-01
         -2   -1    0    0    0  501 -0.00000000000E+00  0.00000000000E+00  0.65570913980E+03  0.65570913981E+03  0.25500000000E-02 0.  1.
          2   -1    0    0  501    0  0.00000000000E+00 -0.00000000000E+00 -0.36847789135E+04  0.36847789135E+04  0.25500000000E-02 0. -1.
    8880022    1    1    2    0    0 -0.15356282611E+02  0.63915619786E+03  0.45207188663E+03  0.79782022059E+03  0.15294330000E+03 0.  0.
    8880022    1    1    2    0    0  0.15356282611E+02 -0.63915619786E+03 -0.34811416604E+04  0.35426678327E+04  0.15294330000E+03 0.  0.
<mgrwt>
<rscale>  0 0.65737973E+03</rscale>
<asrwt>0</asrwt>
<pdfrwt beam="1">  1        2 0.56688905E+00 0.65737973E+03</pdfrwt>
<pdfrwt beam="2">  1       -2 0.10087833E+00 0.65737973E+03</pdfrwt>
<totfact> 0.54557135E-01</totfact>
</mgrwt>
</event>
<event>
 4    1  0.4880711E-008  0.2673466E+03  0.7818608E-02  0.1102808E+00
         -2   -1    0    0    0  501 -0.00000000000E+00  0.00000000000E+00  0.17396917728E+03  0.17396917730E+03  0.25500000000E-02 0.  1.
          2   -1    0    0  501    0  0.00000000000E+00 -0.00000000000E+00 -0.51917847205E+03  0.51917847206E+03  0.25500000000E-02 0. -1.
    8880022    1    1    2    0    0 -0.38571105930E+02  0.21585830849E+03 -0.33091917082E+03  0.42541942855E+03  0.15294330000E+03 0.  0.
    8880022    1    1    2    0    0  0.38571105930E+02 -0.21585830849E+03 -0.14290123943E+02  0.26772822081E+03  0.15294330000E+03 0.  0.
<mgrwt>
<rscale>  0 0.26734658E+03</rscale>
<asrwt>0</asrwt>
<pdfrwt beam="1">  1        2 0.79873611E-01 0.26734658E+03</pdfrwt>
<pdfrwt beam="2">  1       -2 0.26764489E-01 0.26734658E+03</pdfrwt>
<totfact> 0.75288348E+02</totfact>
</mgrwt>
</event>
<event>
 4    1  0.4880711E-008  0.2895992E+03  0.7818608E-02  0.1090559E+00
         -2   -1    0    0    0  501 -0.00000000000E+00  0.00000000000E+00  0.14611893067E+03  0.14611893069E+03  0.25500000000E-02 0.  1.
          2   -1    0    0  501    0  0.00000000000E+00 -0.00000000000E+00 -0.22049674522E+04  0.22049674522E+04  0.25500000000E-02 0. -1.
    8880022    1    1    2    0    0  0.24589754638E+03  0.32322450869E+01 -0.20404548677E+04  0.20609036297E+04  0.15294330000E+03 0.  0.
    8880022    1    1    2    0    0 -0.24589754638E+03 -0.32322450869E+01 -0.18393653801E+02  0.29018275318E+03  0.15294330000E+03 0.  0.
<mgrwt>
<rscale>  0 0.28959921E+03</rscale>
<asrwt>0</asrwt>
<pdfrwt beam="1">  1        2 0.33922574E+00 0.28959921E+03</pdfrwt>
<pdfrwt beam="2">  1       -2 0.22479837E-01 0.28959921E+03</pdfrwt>
<totfact> 0.99497172E+01</totfact>
</mgrwt>
</event>
<event>
 4    1  0.4880711E-008  0.4842243E+03  0.7818608E-02  0.1017981E+00
         -2   -1    0    0    0  501 -0.00000000000E+00  0.00000000000E+00  0.41977129078E+03  0.41977129079E+03  0.25500000000E-02 0.  1.
          2   -1    0    0  501    0  0.00000000000E+00 -0.00000000000E+00 -0.91714743155E+03  0.91714743155E+03  0.25500000000E-02 0. -1.
    8880022    1    1    2    0    0 -0.45917644484E+03 -0.15444578586E+02 -0.66665765418E+03  0.82395729465E+03  0.15294330000E+03 0.  0.
    8880022    1    1    2    0    0  0.45917644484E+03  0.15444578586E+02  0.16928151341E+03  0.51296142770E+03  0.15294330000E+03 0.  0.
<mgrwt>
<rscale>  0 0.48422432E+03</rscale>
<asrwt>0</asrwt>
<pdfrwt beam="1">  1        2 0.14109960E+00 0.48422432E+03</pdfrwt>
<pdfrwt beam="2">  1       -2 0.64580199E-01 0.48422432E+03</pdfrwt>
<totfact> 0.65781591E+01</totfact>
</mgrwt>
</event>
<event>
 4    1  0.4880711E-008  0.5046326E+03  0.7818608E-02  0.1012577E+00
         -2   -1    0    0    0  501 -0.00000000000E+00  0.00000000000E+00  0.25179757699E+03  0.25179757700E+03  0.25500000000E-02 0.  1.
          2   -1    0    0  501    0  0.00000000000E+00 -0.00000000000E+00 -0.18131312367E+04  0.18131312367E+04  0.25500000000E-02 0. -1.
    8880022    1    1    2    0    0 -0.31237232101E+03  0.36563082148E+03 -0.14672449916E+04  0.15515997818E+04  0.15294330000E+03 0.  0.
    8880022    1    1    2    0    0  0.31237232101E+03 -0.36563082148E+03 -0.94088668185E+02  0.51332903195E+03  0.15294330000E+03 0.  1.
<mgrwt>
<rscale>  0 0.50463256E+03</rscale>
<asrwt>0</asrwt>
<pdfrwt beam="1">  1        2 0.27894326E+00 0.50463256E+03</pdfrwt>
<pdfrwt beam="2">  1       -2 0.38738090E-01 0.50463256E+03</pdfrwt>
<totfact> 0.56695450E+01</totfact>
</mgrwt>
</event>
<event>
 4    1  0.4880711E-008  0.2816185E+03  0.7818608E-02  0.1094808E+00
          2   -1    0    0  501    0  0.00000000000E+00  0.00000000000E+00  0.18073587143E+04  0.18073587143E+04  0.25500000000E-02 0. -1.
         -2   -1    0    0    0  501 -0.00000000000E+00 -0.00000000000E+00 -0.13777784873E+03  0.13777784875E+03  0.25500000000E-02 0.  1.
    8880022    1    1    2    0    0 -0.20754449553E+03 -0.11332530797E+03  0.31901370211E+02  0.28341964203E+03  0.15294330000E+03 0.  0.
    8880022    1    1    2    0    0  0.20754449553E+03  0.11332530797E+03  0.16376794953E+04  0.16617169210E+04  0.15294330000E+03 0.  0.
<mgrwt>
<rscale>  0 0.28161853E+03</rscale>
<asrwt>0</asrwt>
<pdfrwt beam="1">  1        2 0.27805519E+00 0.28161853E+03</pdfrwt>
<pdfrwt beam="2">  1       -2 0.21196592E-01 0.28161853E+03</pdfrwt>
<totfact> 0.17916376E+02</totfact>
</mgrwt>
</event>
<event>
 4    1  0.4880711E-008  0.5598681E+03  0.7818608E-02  0.9992353E-01
          2   -1    0    0  501    0  0.00000000000E+00  0.00000000000E+00  0.19456022404E+04  0.19456022404E+04  0.25500000000E-02 0. -1.
         -2   -1    0    0    0  501 -0.00000000000E+00 -0.00000000000E+00 -0.33508081025E+03  0.33508081026E+03  0.25500000000E-02 0.  1.
    8880022    1    1    2    0    0  0.42247871645E+03 -0.33402458913E+03  0.16269368702E+04  0.17205743008E+04  0.15294330000E+03 0. -1.
    8880022    1    1    2    0    0 -0.42247871645E+03  0.33402458913E+03 -0.16415440035E+02  0.56010874987E+03  0.15294330000E+03 0.  0.
<mgrwt>
<rscale>  0 0.55986815E+03</rscale>
<asrwt>0</asrwt>
<pdfrwt beam="1">  1        2 0.29932342E+00 0.55986815E+03</pdfrwt>
<pdfrwt beam="2">  1       -2 0.51550894E-01 0.55986815E+03</pdfrwt>
<totfact> 0.27048857E+01</totfact>
</mgrwt>
</event>
<event>
 4    1  0.4880711E-008  0.2697572E+03  0.7818608E-02  0.1101419E+00
         -2   -1    0    0    0  501 -0.00000000000E+00  0.00000000000E+00  0.33010193244E+02  0.33010193343E+02  0.25500000000E-02 0.  1.
          2   -1    0    0  501    0  0.00000000000E+00 -0.00000000000E+00 -0.30959984101E+04  0.30959984101E+04  0.25500000000E-02 0. -1.
    8880022    1    1    2    0    0  0.62610119252E+02  0.21320705840E+03 -0.23710541213E+04  0.23863500531E+04  0.15294330000E+03 0.  0.
    8880022    1    1    2    0    0 -0.62610119252E+02 -0.21320705840E+03 -0.69193409548E+03  0.74265855027E+03  0.15294330000E+03 0.  1.
<mgrwt>
<rscale>  0 0.26975717E+03</rscale>
<asrwt>0</asrwt>
<pdfrwt beam="1">  1        2 0.47630722E+00 0.26975717E+03</pdfrwt>
<pdfrwt beam="2">  1       -2 0.50784937E-02 0.26975717E+03</pdfrwt>
<totfact> 0.34925614E+02</totfact>
</mgrwt>
</event>
<event>
 4    1  0.4880711E-008  0.7040615E+03  0.7818608E-02  0.9710312E-01
          2   -1    0    0  501    0  0.00000000000E+00  0.00000000000E+00  0.20458903362E+04  0.20458903362E+04  0.25500000000E-02 0. -1.
         -2   -1    0    0    0  501 -0.00000000000E+00 -0.00000000000E+00 -0.32735484357E+03  0.32735484358E+03  0.25500000000E-02 0.  1.
    8880022    1    1    2    0    0 -0.13823162382E+03 -0.67320350634E+03  0.14641537087E+04  0.16246380146E+04  0.15294330000E+03 0.  0.
    8880022    1    1    2    0    0  0.13823162382E+03  0.67320350634E+03  0.25438178396E+03  0.74860716520E+03  0.15294330000E+03 0.  0.
<mgrwt>
<rscale>  0 0.70406150E+03</rscale>
<asrwt>0</asrwt>
<pdfrwt beam="1">  1        2 0.31475236E+00 0.70406150E+03</pdfrwt>
<pdfrwt beam="2">  1       -2 0.50362283E-01 0.70406150E+03</pdfrwt>
<totfact> 0.24452475E+01</totfact>
</mgrwt>
</event>
<event>
 4    1  0.4880711E-008  0.4867350E+03  0.7818608E-02  0.1017300E+00
         -2   -1    0    0    0  501 -0.00000000000E+00  0.00000000000E+00  0.18721827042E+03  0.18721827044E+03  0.25500000000E-02 0.  1.
          2   -1    0    0  501    0  0.00000000000E+00 -0.00000000000E+00 -0.25041072074E+04  0.25041072074E+04  0.25500000000E-02 0. -1.
    8880022    1    1    2    0    0  0.20955166227E+03 -0.41183423153E+03 -0.21201243648E+03  0.53090513245E+03  0.15294330000E+03 0.  0.
    8880022    1    1    2    0    0 -0.20955166227E+03  0.41183423153E+03 -0.21048765005E+04  0.21604203454E+04  0.15294330000E+03 0.  0.
<mgrwt>
<rscale>  0 0.48673503E+03</rscale>
<asrwt>0</asrwt>
<pdfrwt beam="1">  1        2 0.38524724E+00 0.48673503E+03</pdfrwt>
<pdfrwt beam="2">  1       -2 0.28802813E-01 0.48673503E+03</pdfrwt>
<totfact> 0.41733029E+01</totfact>
</mgrwt>
</event>
<event>
 4    1  0.4880711E-008  0.4732317E+03  0.7818608E-02  0.1021012E+00
         -2   -1    0    0    0  501 -0.00000000000E+00  0.00000000000E+00  0.32930415969E+03  0.32930415970E+03  0.25500000000E-02 0.  1.
          2   -1    0    0  501    0  0.00000000000E+00 -0.00000000000E+00 -0.10411332863E+04  0.10411332863E+04  0.25500000000E-02 0. -1.
    8880022    1    1    2    0    0 -0.37163749874E+03 -0.24988429587E+03 -0.75943980545E+03  0.89481677616E+03  0.15294330000E+03 0.  0.
    8880022    1    1    2    0    0  0.37163749874E+03  0.24988429587E+03  0.47610678874E+02  0.47562066980E+03  0.15294330000E+03 0.  1.
<mgrwt>
<rscale>  0 0.47323170E+03</rscale>
<asrwt>0</asrwt>
<pdfrwt beam="1">  1        2 0.16017435E+00 0.47323170E+03</pdfrwt>
<pdfrwt beam="2">  1       -2 0.50662179E-01 0.47323170E+03</pdfrwt>
<totfact> 0.90984426E+01</totfact>
</mgrwt>
</event>
<event>
 4    1  0.4880711E-008  0.1084442E+04  0.7818608E-02  0.9220490E-01
          2   -1    0    0  501    0  0.00000000000E+00  0.00000000000E+00  0.49607441634E+03  0.49607441634E+03  0.25500000000E-02 0. -1.
         -2   -1    0    0    0  501 -0.00000000000E+00 -0.00000000000E+00 -0.26329968890E+04  0.26329968890E+04  0.25500000000E-02 0.  1.
    8880022    1    1    2    0    0 -0.17627825676E+03 -0.10590321509E+04 -0.15623225348E+04  0.19018061090E+04  0.15294330000E+03 0.  0.
    8880022    1    1    2    0    0  0.17627825676E+03  0.10590321509E+04 -0.57459993786E+03  0.12272651963E+04  0.15294330000E+03 0.  0.
<mgrwt>
<rscale>  0 0.10844421E+04</rscale>
<asrwt>0</asrwt>
<pdfrwt beam="1">  1        2 0.76319142E-01 0.10844421E+04</pdfrwt>
<pdfrwt beam="2">  1       -2 0.40507644E+00 0.10844421E+04</pdfrwt>
<totfact> 0.43100318E-01</totfact>
</mgrwt>
</event>
<event>
 4    1  0.4880711E-008  0.7386749E+03  0.7818608E-02  0.9653287E-01
         -2   -1    0    0    0  501 -0.00000000000E+00  0.00000000000E+00  0.12818464795E+04  0.12818464795E+04  0.25500000000E-02 0.  1.
          2   -1    0    0  501    0  0.00000000000E+00 -0.00000000000E+00 -0.79448196733E+03  0.79448196733E+03  0.25500000000E-02 0. -1.
    8880022    1    1    2    0    0 -0.68740507649E+03  0.22298705855E+03 -0.46365723074E+03  0.87213453555E+03  0.15294330000E+03 0.  0.
    8880022    1    1    2    0    0  0.68740507649E+03 -0.22298705855E+03  0.95102174292E+03  0.12041939113E+04  0.15294330000E+03 0.  0.
<mgrwt>
<rscale>  0 0.73867491E+03</rscale>
<asrwt>0</asrwt>
<pdfrwt beam="1">  1        2 0.12222800E+00 0.73867491E+03</pdfrwt>
<pdfrwt beam="2">  1       -2 0.19720715E+00 0.73867491E+03</pdfrwt>
<totfact> 0.49347458E+00</totfact>
</mgrwt>
</event>
<event>
 4    1  0.4880711E-008  0.5340577E+03  0.7818608E-02  0.1005253E+00
         -2   -1    0    0    0  501 -0.00000000000E+00  0.00000000000E+00  0.13302475113E+03  0.13302475115E+03  0.25500000000E-02 0.  1.
          2   -1    0    0  501    0  0.00000000000E+00 -0.00000000000E+00 -0.27882136555E+04  0.27882136555E+04  0.25500000000E-02 0. -1.
    8880022    1    1    2    0    0 -0.50603744869E+03  0.75842337718E+02 -0.20296268442E+04  0.20987145445E+04  0.15294330000E+03 0.  0.
    8880022    1    1    2    0    0  0.50603744869E+03 -0.75842337718E+02 -0.62556206024E+03  0.82252386221E+03  0.15294330000E+03 0.  0.
<mgrwt>
<rscale>  0 0.53405769E+03</rscale>
<asrwt>0</asrwt>
<pdfrwt beam="1">  1        2 0.42895590E+00 0.53405769E+03</pdfrwt>
<pdfrwt beam="2">  1       -2 0.20465348E-01 0.53405769E+03</pdfrwt>
<totfact> 0.52364467E+01</totfact>
</mgrwt>
</event>
<event>
 4    1  0.4880711E-008  0.4772239E+03  0.7818608E-02  0.1019901E+00
         -2   -1    0    0    0  501 -0.00000000000E+00  0.00000000000E+00  0.21136827959E+03  0.21136827961E+03  0.25500000000E-02 0.  1.
          2   -1    0    0  501    0  0.00000000000E+00 -0.00000000000E+00 -0.19512999735E+04  0.19512999735E+04  0.25500000000E-02 0. -1.
    8880022    1    1    2    0    0 -0.22482693508E+03  0.39217834367E+03 -0.14634388570E+03  0.49915848173E+03  0.15294330000E+03 0.  0.
    8880022    1    1    2    0    0  0.22482693508E+03 -0.39217834367E+03 -0.15935878082E+04  0.16635097713E+04  0.15294330000E+03 0.  0.
<mgrwt>
<rscale>  0 0.47722391E+03</rscale>
<asrwt>0</asrwt>
<pdfrwt beam="1">  1        2 0.30019998E+00 0.47722391E+03</pdfrwt>
<pdfrwt beam="2">  1       -2 0.32518198E-01 0.47722391E+03</pdfrwt>
<totfact> 0.66916098E+01</totfact>
</mgrwt>
</event>
<event>
 4    1  0.4880711E-008  0.6097185E+03  0.7818608E-02  0.9885446E-01
          2   -1    0    0  501    0  0.00000000000E+00  0.00000000000E+00  0.18666582822E+04  0.18666582822E+04  0.25500000000E-02 0. -1.
         -2   -1    0    0    0  501 -0.00000000000E+00 -0.00000000000E+00 -0.12717325349E+04  0.12717325349E+04  0.25500000000E-02 0.  1.
    8880022    1    1    2    0    0 -0.44425921405E+03 -0.38858555796E+03  0.17385599450E+04  0.18423754559E+04  0.15294330000E+03 0.  0.
    8880022    1    1    2    0    0  0.44425921405E+03  0.38858555796E+03 -0.11436341978E+04  0.12960153612E+04  0.15294330000E+03 0.  0.
<mgrwt>
<rscale>  0 0.60971849E+03</rscale>
<asrwt>0</asrwt>
<pdfrwt beam="1">  1        2 0.28717819E+00 0.60971849E+03</pdfrwt>
<pdfrwt beam="2">  1       -2 0.19565116E+00 0.60971849E+03</pdfrwt>
<totfact> 0.12074824E+00</totfact>
</mgrwt>
</event>
<event>
 4    1  0.4880711E-008  0.8924179E+03  0.7818608E-02  0.9435109E-01
         -2   -1    0    0    0  501 -0.00000000000E+00  0.00000000000E+00  0.48055154790E+03  0.48055154791E+03  0.25500000000E-02 0.  1.
          2   -1    0    0  501    0  0.00000000000E+00 -0.00000000000E+00 -0.29830562430E+04  0.29830562430E+04  0.25500000000E-02 0. -1.
    8880022    1    1    2    0    0  0.11974190552E+02 -0.87913292153E+03 -0.24057755852E+04  0.25659629566E+04  0.15294330000E+03 0.  0.
    8880022    1    1    2    0    0 -0.11974190552E+02  0.87913292153E+03 -0.96729109900E+02  0.89764483438E+03  0.15294330000E+03 0.  0.
<mgrwt>
<rscale>  0 0.89241791E+03</rscale>
<asrwt>0</asrwt>
<pdfrwt beam="1">  1        2 0.45893172E+00 0.89241791E+03</pdfrwt>
<pdfrwt beam="2">  1       -2 0.73931009E-01 0.89241791E+03</pdfrwt>
<totfact> 0.30552625E+00</totfact>
</mgrwt>
</event>
<event>
 4    1  0.4880711E-008  0.1680940E+03  0.7818608E-02  0.1179850E+00
          2   -1    0    0  501    0  0.00000000000E+00  0.00000000000E+00  0.15691433352E+03  0.15691433354E+03  0.25500000000E-02 0. -1.
         -2   -1    0    0    0  501 -0.00000000000E+00 -0.00000000000E+00 -0.28028360510E+03  0.28028360511E+03  0.25500000000E-02 0.  1.
    8880022    1    1    2    0    0  0.69089797581E+02 -0.95149632513E+01  0.69026406923E+02  0.18171470090E+03  0.15294330000E+03 0.  0.
    8880022    1    1    2    0    0 -0.69089797581E+02  0.95149632513E+01 -0.19239567850E+03  0.25548323776E+03  0.15294330000E+03 0.  1.
<mgrwt>
<rscale>  0 0.16809398E+03</rscale>
<asrwt>0</asrwt>
<pdfrwt beam="1">  1        2 0.24140667E-01 0.16809398E+03</pdfrwt>
<pdfrwt beam="2">  1       -2 0.43120555E-01 0.16809398E+03</pdfrwt>
<totfact> 0.11393961E+03</totfact>
</mgrwt>
</event>
<event>
 4    1  0.4880711E-008  0.1834056E+03  0.7818608E-02  0.1164547E+00
         -2   -1    0    0    0  501 -0.00000000000E+00  0.00000000000E+00  0.22257408443E+03  0.22257408445E+03  0.25500000000E-02 0.  1.
          2   -1    0    0  501    0  0.00000000000E+00 -0.00000000000E+00 -0.20390506720E+03  0.20390506721E+03  0.25500000000E-02 0. -1.
    8880022    1    1    2    0    0  0.93968910215E+02  0.37627246723E+02  0.11781914709E+03  0.21798846350E+03  0.15294330000E+03 0.  1.
    8880022    1    1    2    0    0 -0.93968910215E+02 -0.37627246723E+02 -0.99150129859E+02  0.20849068816E+03  0.15294330000E+03 0. -1.
<mgrwt>
<rscale>  0 0.18340561E+03</rscale>
<asrwt>0</asrwt>
<pdfrwt beam="1">  1        2 0.31370010E-01 0.18340561E+03</pdfrwt>
<pdfrwt beam="2">  1       -2 0.34242167E-01 0.18340561E+03</pdfrwt>
<totfact> 0.13228874E+03</totfact>
</mgrwt>
</event>
<event>
 4    1  0.4880711E-008  0.2898941E+03  0.7818608E-02  0.1090404E+00
         -2   -1    0    0    0  501 -0.00000000000E+00  0.00000000000E+00  0.22170786151E+03  0.22170786153E+03  0.25500000000E-02 0.  1.
          2   -1    0    0  501    0  0.00000000000E+00 -0.00000000000E+00 -0.68769010894E+03  0.68769010895E+03  0.25500000000E-02 0. -1.
    8880022    1    1    2    0    0 -0.24485307082E+03  0.26342122658E+02  0.71625130836E+02  0.29861136298E+03  0.15294330000E+03 0.  0.
    8880022    1    1    2    0    0  0.24485307082E+03 -0.26342122658E+02 -0.53760737827E+03  0.61078660750E+03  0.15294330000E+03 0.  0.
<mgrwt>
<rscale>  0 0.28989410E+03</rscale>
<asrwt>0</asrwt>
<pdfrwt beam="1">  1        2 0.10579848E+00 0.28989410E+03</pdfrwt>
<pdfrwt beam="2">  1       -2 0.34108902E-01 0.28989410E+03</pdfrwt>
<totfact> 0.34762655E+02</totfact>
</mgrwt>
</event>
<event>
 4    1  0.4880711E-008  0.8112516E+03  0.7818608E-02  0.9543872E-01
          2   -1    0    0  501    0  0.00000000000E+00  0.00000000000E+00  0.80855562262E+03  0.80855562262E+03  0.25500000000E-02 0. -1.
         -2   -1    0    0    0  501 -0.00000000000E+00 -0.00000000000E+00 -0.10649797925E+04  0.10649797925E+04  0.25500000000E-02 0.  1.
    8880022    1    1    2    0    0 -0.73797787143E+03 -0.30021032874E+03  0.32658544869E+03  0.87452117671E+03  0.15294330000E+03 0. -1.
    8880022    1    1    2    0    0  0.73797787143E+03  0.30021032874E+03 -0.58300961857E+03  0.99901423842E+03  0.15294330000E+03 0.  0.
<mgrwt>
<rscale>  0 0.81125165E+03</rscale>
<asrwt>0</asrwt>
<pdfrwt beam="1">  1        2 0.12439317E+00 0.81125165E+03</pdfrwt>
<pdfrwt beam="2">  1       -2 0.16384304E+00 0.81125165E+03</pdfrwt>
<totfact> 0.80990657E+00</totfact>
</mgrwt>
</event>
<event>
 4    1  0.4880711E-008  0.1305121E+04  0.7818608E-02  0.9025514E-01
          2   -1    0    0  501    0  0.00000000000E+00  0.00000000000E+00  0.12213346798E+04  0.12213346798E+04  0.25500000000E-02 0. -1.
         -2   -1    0    0    0  501 -0.00000000000E+00 -0.00000000000E+00 -0.20096598521E+04  0.20096598521E+04  0.25500000000E-02 0.  1.
    8880022    1    1    2    0    0 -0.46153204173E+03 -0.12111714948E+04  0.49952228891E+03  0.13974485270E+04  0.15294330000E+03 0.  0.
    8880022    1    1    2    0    0  0.46153204173E+03  0.12111714948E+04 -0.12878474612E+04  0.18335460048E+04  0.15294330000E+03 0.  0.
<mgrwt>
<rscale>  0 0.13051206E+04</rscale>
<asrwt>0</asrwt>
<pdfrwt beam="1">  1        2 0.18789764E+00 0.13051206E+04</pdfrwt>
<pdfrwt beam="2">  1       -2 0.30917844E+00 0.13051206E+04</pdfrwt>
<totfact> 0.49542516E-01</totfact>
</mgrwt>
</event>
<event>
 4    1  0.4880711E-008  0.1016296E+04  0.7818608E-02  0.9290850E-01
         -2   -1    0    0    0  501 -0.00000000000E+00  0.00000000000E+00  0.12283288335E+04  0.12283288335E+04  0.25500000000E-02 0.  1.
          2   -1    0    0  501    0  0.00000000000E+00 -0.00000000000E+00 -0.11982073027E+04  0.11982073027E+04  0.25500000000E-02 0. -1.
    8880022    1    1    2    0    0  0.62361954096E+03 -0.78775979073E+03 -0.64751130796E+03  0.12050433049E+04  0.15294330000E+03 0.  0.
    8880022    1    1    2    0    0 -0.62361954096E+03  0.78775979073E+03  0.67763283880E+03  0.12214928313E+04  0.15294330000E+03 0.  0.
<mgrwt>
<rscale>  0 0.10162964E+04</rscale>
<asrwt>0</asrwt>
<pdfrwt beam="1">  1        2 0.18433958E+00 0.10162964E+04</pdfrwt>
<pdfrwt beam="2">  1       -2 0.18897367E+00 0.10162964E+04</pdfrwt>
<totfact> 0.29599837E+00</totfact>
</mgrwt>
</event>
<event>
 4    1  0.4880711E-008  0.5269094E+03  0.7818608E-02  0.1006984E+00
          2   -1    0    0  501    0  0.00000000000E+00  0.00000000000E+00  0.31892799429E+03  0.31892799430E+03  0.25500000000E-02 0. -1.
         -2   -1    0    0    0  501 -0.00000000000E+00 -0.00000000000E+00 -0.28548465849E+04  0.28548465849E+04  0.25500000000E-02 0.  1.
    8880022    1    1    2    0    0  0.25836345222E+03  0.43300141323E+03  0.55044678266E+02  0.52977680859E+03  0.15294330000E+03 0.  0.
    8880022    1    1    2    0    0 -0.25836345222E+03 -0.43300141323E+03 -0.25909632689E+04  0.26439977706E+04  0.15294330000E+03 0.  0.
<mgrwt>
<rscale>  0 0.52690943E+03</rscale>
<asrwt>0</asrwt>
<pdfrwt beam="1">  1        2 0.49065847E-01 0.52690943E+03</pdfrwt>
<pdfrwt beam="2">  1       -2 0.43920715E+00 0.52690943E+03</pdfrwt>
<totfact> 0.46987923E-01</totfact>
</mgrwt>
</event>
<event>
 4    1  0.4880711E-008  0.8589119E+03  0.7818608E-02  0.9478453E-01
          2   -1    0    0  501    0  0.00000000000E+00  0.00000000000E+00  0.14752236314E+04  0.14752236314E+04  0.25500000000E-02 0. -1.
         -2   -1    0    0    0  501 -0.00000000000E+00 -0.00000000000E+00 -0.87308962778E+03  0.87308962778E+03  0.25500000000E-02 0.  1.
    8880022    1    1    2    0    0 -0.96614960155E+01  0.84512999611E+03 -0.46639466148E+03  0.97737080379E+03  0.15294330000E+03 0.  0.
    8880022    1    1    2    0    0  0.96614960155E+01 -0.84512999611E+03  0.10685286650E+04  0.13709424553E+04  0.15294330000E+03 0.  0.
<mgrwt>
<rscale>  0 0.85891193E+03</rscale>
<asrwt>0</asrwt>
<pdfrwt beam="1">  1        2 0.22695748E+00 0.85891193E+03</pdfrwt>
<pdfrwt beam="2">  1       -2 0.13432148E+00 0.85891193E+03</pdfrwt>
<totfact> 0.52908728E+00</totfact>
</mgrwt>
</event>
<event>
 4    1  0.4880711E-008  0.1958133E+03  0.7818608E-02  0.1153320E+00
         -2   -1    0    0    0  501 -0.00000000000E+00  0.00000000000E+00  0.27149271223E+03  0.27149271224E+03  0.25500000000E-02 0.  1.
          2   -1    0    0  501    0  0.00000000000E+00 -0.00000000000E+00 -0.12402298232E+04  0.12402298232E+04  0.25500000000E-02 0. -1.
    8880022    1    1    2    0    0 -0.12012865385E+03  0.22810036038E+02  0.22715596234E+03  0.29990444388E+03  0.15294330000E+03 0.  0.
    8880022    1    1    2    0    0  0.12012865385E+03 -0.22810036038E+02 -0.11958930733E+04  0.12118180915E+04  0.15294330000E+03 0. -1.
<mgrwt>
<rscale>  0 0.19581329E+03</rscale>
<asrwt>0</asrwt>
<pdfrwt beam="1">  1        2 0.19080459E+00 0.19581329E+03</pdfrwt>
<pdfrwt beam="2">  1       -2 0.41768110E-01 0.19581329E+03</pdfrwt>
<totfact> 0.10727389E+02</totfact>
</mgrwt>
</event>
<event>
 4    1  0.4880711E-008  0.7330073E+03  0.7818608E-02  0.9662393E-01
         -2   -1    0    0    0  501 -0.00000000000E+00  0.00000000000E+00  0.18739024509E+04  0.18739024509E+04  0.25500000000E-02 0.  1.
          2   -1    0    0  501    0  0.00000000000E+00 -0.00000000000E+00 -0.94778310424E+03  0.94778310425E+03  0.25500000000E-02 0. -1.
    8880022    1    1    2    0    0 -0.52920500980E+03  0.48358057082E+03  0.16413249081E+04  0.17975670274E+04  0.15294330000E+03 0.  0.
    8880022    1    1    2    0    0  0.52920500980E+03 -0.48358057082E+03 -0.71520556143E+03  0.10241185278E+04  0.15294330000E+03 0.  0.
<mgrwt>
<rscale>  0 0.73300734E+03</rscale>
<asrwt>0</asrwt>
<pdfrwt beam="1">  1        2 0.14581279E+00 0.73300734E+03</pdfrwt>
<pdfrwt beam="2">  1       -2 0.28829268E+00 0.73300734E+03</pdfrwt>
<totfact> 0.10679969E+00</totfact>
</mgrwt>
</event>
<event>
 4    1  0.4880711E-008  0.7766131E+03  0.7818608E-02  0.9594500E-01
         -2   -1    0    0    0  501 -0.00000000000E+00  0.00000000000E+00  0.88793291898E+03  0.88793291898E+03  0.25500000000E-02 0.  1.
          2   -1    0    0  501    0  0.00000000000E+00 -0.00000000000E+00 -0.31851558614E+04  0.31851558614E+04  0.25500000000E-02 0. -1.
    8880022    1    1    2    0    0 -0.67463234111E+03  0.35299776277E+03  0.65777622947E+03  0.10177413410E+04  0.15294330000E+03 0.  0.
    8880022    1    1    2    0    0  0.67463234111E+03 -0.35299776277E+03 -0.29549991719E+04  0.30553474394E+04  0.15294330000E+03 0.  0.
<mgrwt>
<rscale>  0 0.77661308E+03</rscale>
<asrwt>0</asrwt>
<pdfrwt beam="1">  1        2 0.49002397E+00 0.77661308E+03</pdfrwt>
<pdfrwt beam="2">  1       -2 0.13660507E+00 0.77661308E+03</pdfrwt>
<totfact> 0.54282463E-01</totfact>
</mgrwt>
</event>
<event>
 4    1  0.4880711E-008  0.7569951E+03  0.7818608E-02  0.9624440E-01
          2   -1    0    0  501    0  0.00000000000E+00  0.00000000000E+00  0.16675580659E+04  0.16675580659E+04  0.25500000000E-02 0. -1.
         -2   -1    0    0    0  501 -0.00000000000E+00 -0.00000000000E+00 -0.46850188063E+03  0.46850188064E+03  0.25500000000E-02 0.  1.
    8880022    1    1    2    0    0  0.44493875556E+03  0.59302567745E+03  0.48161213348E+02  0.75852561314E+03  0.15294330000E+03 0.  0.
    8880022    1    1    2    0    0 -0.44493875556E+03 -0.59302567745E+03  0.11508949720E+04  0.13775343334E+04  0.15294330000E+03 0.  0.
<mgrwt>
<rscale>  0 0.75699511E+03</rscale>
<asrwt>0</asrwt>
<pdfrwt beam="1">  1        2 0.25654739E+00 0.75699511E+03</pdfrwt>
<pdfrwt beam="2">  1       -2 0.72077213E-01 0.75699511E+03</pdfrwt>
<totfact> 0.18293507E+01</totfact>
</mgrwt>
</event>
<event>
 4    1  0.4880711E-008  0.2312320E+03  0.7818608E-02  0.1125776E+00
         -2   -1    0    0    0  501 -0.00000000000E+00  0.00000000000E+00  0.37128258287E+03  0.37128258288E+03  0.25500000000E-02 0.  1.
          2   -1    0    0  501    0  0.00000000000E+00 -0.00000000000E+00 -0.43776014388E+03  0.43776014389E+03  0.25500000000E-02 0. -1.
    8880022    1    1    2    0    0  0.17927912302E+02  0.17249683549E+03  0.29813089488E+03  0.37729332327E+03  0.15294330000E+03 0.  0.
    8880022    1    1    2    0    0 -0.17927912302E+02 -0.17249683549E+03 -0.36460845589E+03  0.43174940349E+03  0.15294330000E+03 0. -1.
<mgrwt>
<rscale>  0 0.23123196E+03</rscale>
<asrwt>0</asrwt>
<pdfrwt beam="1">  1        2 0.67347714E-01 0.23123196E+03</pdfrwt>
<pdfrwt beam="2">  1       -2 0.57120398E-01 0.23123196E+03</pdfrwt>
<totfact> 0.21411905E+02</totfact>
</mgrwt>
</event>
<event>
 4    1  0.4880711E-008  0.5674075E+03  0.7818608E-02  0.9975432E-01
         -2   -1    0    0    0  501 -0.00000000000E+00  0.00000000000E+00  0.12574428020E+04  0.12574428020E+04  0.25500000000E-02 0.  1.
          2   -1    0    0  501    0  0.00000000000E+00 -0.00000000000E+00 -0.80162315364E+03  0.80162315364E+03  0.25500000000E-02 0. -1.
    8880022    1    1    2    0    0  0.18892500570E+03 -0.51270558207E+03  0.10772603944E+04  0.12175554533E+04  0.15294330000E+03 0.  0.
    8880022    1    1    2    0    0 -0.18892500570E+03  0.51270558207E+03 -0.62144074601E+03  0.84151050230E+03  0.15294330000E+03 0.  0.
<mgrwt>
<rscale>  0 0.56740755E+03</rscale>
<asrwt>0</asrwt>
<pdfrwt beam="1">  1        2 0.12332664E+00 0.56740755E+03</pdfrwt>
<pdfrwt beam="2">  1       -2 0.19345274E+00 0.56740755E+03</pdfrwt>
<totfact> 0.52987105E+00</totfact>
</mgrwt>
</event>
<event>
 4    1  0.4880711E-008  0.1075262E+04  0.7818608E-02  0.9229644E-01
          2   -1    0    0  501    0  0.00000000000E+00  0.00000000000E+00  0.18728882141E+04  0.18728882141E+04  0.25500000000E-02 0. -1.
         -2   -1    0    0    0  501 -0.00000000000E+00 -0.00000000000E+00 -0.90104750966E+03  0.90104750966E+03  0.25500000000E-02 0.  1.
    8880022    1    1    2    0    0  0.45015871408E+03  0.96444482540E+03 -0.29236047686E+03  0.11142993272E+04  0.15294330000E+03 0.  0.
    8880022    1    1    2    0    0 -0.45015871408E+03 -0.96444482540E+03  0.12642011813E+04  0.16596363966E+04  0.15294330000E+03 0.  0.
<mgrwt>
<rscale>  0 0.10752620E+04</rscale>
<asrwt>0</asrwt>
<pdfrwt beam="1">  1        2 0.28813665E+00 0.10752620E+04</pdfrwt>
<pdfrwt beam="2">  1       -2 0.13862269E+00 0.10752620E+04</pdfrwt>
<totfact> 0.28600907E+00</totfact>
</mgrwt>
</event>
<event>
 4    1  0.4880711E-008  0.8425095E+03  0.7818608E-02  0.9500446E-01
          2   -1    0    0  501    0  0.00000000000E+00  0.00000000000E+00  0.10742916792E+04  0.10742916792E+04  0.25500000000E-02 0. -1.
         -2   -1    0    0    0  501 -0.00000000000E+00 -0.00000000000E+00 -0.11269040129E+04  0.11269040129E+04  0.25500000000E-02 0.  1.
    8880022    1    1    2    0    0 -0.72408881310E+03  0.40264875998E+03 -0.73418156924E+03  0.11175172763E+04  0.15294330000E+03 0.  0.
    8880022    1    1    2    0    0  0.72408881310E+03 -0.40264875998E+03  0.68156923546E+03  0.10836784158E+04  0.15294330000E+03 0.  0.
<mgrwt>
<rscale>  0 0.84250952E+03</rscale>
<asrwt>0</asrwt>
<pdfrwt beam="1">  1        2 0.16527564E+00 0.84250952E+03</pdfrwt>
<pdfrwt beam="2">  1       -2 0.17336985E+00 0.84250952E+03</pdfrwt>
<totfact> 0.46013512E+00</totfact>
</mgrwt>
</event>
<event>
 4    1  0.9302333E-008  0.1071791E+04  0.7818608E-02  0.9233131E-01
         -2   -1    0    0    0  501 -0.00000000000E+00  0.00000000000E+00  0.14202634076E+04  0.14202634076E+04  0.25500000000E-02 0.  1.
          2   -1    0    0  501    0  0.00000000000E+00 -0.00000000000E+00 -0.24007983280E+04  0.24007983280E+04  0.25500000000E-02 0. -1.
    8880022    1    1    2    0    0 -0.99468813256E+03  0.36870065409E+03  0.10655007900E+04  0.15113001819E+04  0.15294330000E+03 0.  0.
    8880022    1    1    2    0    0  0.99468813256E+03 -0.36870065409E+03 -0.20460357104E+04  0.23097615537E+04  0.15294330000E+03 0.  0.
<mgrwt>
<rscale>  0 0.10717912E+04</rscale>
<asrwt>0</asrwt>
<pdfrwt beam="1">  1        2 0.36935359E+00 0.10717912E+04</pdfrwt>
<pdfrwt beam="2">  1       -2 0.21850206E+00 0.10717912E+04</pdfrwt>
<totfact> 0.39883184E-01</totfact>
</mgrwt>
</event>
<event>
 4    1  0.4880711E-008  0.7942022E+03  0.7818608E-02  0.9568447E-01
         -2   -1    0    0    0  501 -0.00000000000E+00  0.00000000000E+00  0.76104536265E+03  0.76104536266E+03  0.25500000000E-02 0.  1.
          2   -1    0    0  501    0  0.00000000000E+00 -0.00000000000E+00 -0.92680834949E+03  0.92680834949E+03  0.25500000000E-02 0. -1.
    8880022    1    1    2    0    0 -0.66560192035E+03  0.40538811250E+03  0.19154973636E+03  0.81697514812E+03  0.15294330000E+03 0.  0.
    8880022    1    1    2    0    0  0.66560192035E+03 -0.40538811250E+03 -0.35731272320E+03  0.87087856404E+03  0.15294330000E+03 0.  0.
<mgrwt>
<rscale>  0 0.79420217E+03</rscale>
<asrwt>0</asrwt>
<pdfrwt beam="1">  1        2 0.14258590E+00 0.79420217E+03</pdfrwt>
<pdfrwt beam="2">  1       -2 0.11708390E+00 0.79420217E+03</pdfrwt>
<totfact> 0.16052690E+01</totfact>
</mgrwt>
</event>
<event>
 4    1  0.4880711E-008  0.3008778E+03  0.7818608E-02  0.1084803E+00
         -2   -1    0    0    0  501 -0.00000000000E+00  0.00000000000E+00  0.54838167884E+03  0.54838167884E+03  0.25500000000E-02 0.  1.
          2   -1    0    0  501    0  0.00000000000E+00 -0.00000000000E+00 -0.91889280767E+03  0.91889280767E+03  0.25500000000E-02 0. -1.
    8880022    1    1    2    0    0 -0.78094090430E+02 -0.24705689656E+03 -0.84973322332E+03  0.90142886626E+03  0.15294330000E+03 0.  0.
    8880022    1    1    2    0    0  0.78094090430E+02  0.24705689656E+03  0.47922209449E+03  0.56584562025E+03  0.15294330000E+03 0.  0.
<mgrwt>
<rscale>  0 0.30087780E+03</rscale>
<asrwt>0</asrwt>
<pdfrwt beam="1">  1        2 0.14136812E+00 0.30087780E+03</pdfrwt>
<pdfrwt beam="2">  1       -2 0.84366413E-01 0.30087780E+03</pdfrwt>
<totfact> 0.37684516E+01</totfact>
</mgrwt>
</event>
<event>
 4    1  0.4880711E-008  0.7602913E+03  0.7818608E-02  0.9619342E-01
         -2   -1    0    0    0  501 -0.00000000000E+00  0.00000000000E+00  0.54006782692E+03  0.54006782693E+03  0.25500000000E-02 0.  1.
          2   -1    0    0  501    0  0.00000000000E+00 -0.00000000000E+00 -0.11980716843E+04  0.11980716843E+04  0.25500000000E-02 0. -1.
    8880022    1    1    2    0    0  0.35233244998E+03 -0.65613494242E+03 -0.45207085164E+02  0.76163413233E+03  0.15294330000E+03 0.  0.
    8880022    1    1    2    0    0 -0.35233244998E+03  0.65613494242E+03 -0.61279677223E+03  0.97650537891E+03  0.15294330000E+03 0.  0.
<mgrwt>
<rscale>  0 0.76029131E+03</rscale>
<asrwt>0</asrwt>
<pdfrwt beam="1">  1        2 0.18431872E+00 0.76029131E+03</pdfrwt>
<pdfrwt beam="2">  1       -2 0.83087358E-01 0.76029131E+03</pdfrwt>
<totfact> 0.24525892E+01</totfact>
</mgrwt>
</event>
<event>
 4    1  0.4880711E-008  0.3759851E+03  0.7818608E-02  0.1052428E+00
          2   -1    0    0  501    0  0.00000000000E+00  0.00000000000E+00  0.37803338755E+04  0.37803338755E+04  0.25500000000E-02 0. -1.
         -2   -1    0    0    0  501 -0.00000000000E+00 -0.00000000000E+00 -0.35040788537E+03  0.35040788538E+03  0.25500000000E-02 0.  1.
    8880022    1    1    2    0    0  0.13630925591E+03 -0.31526640560E+03  0.36670194397E+04  0.36862442057E+04  0.15294330000E+03 0.  0.
    8880022    1    1    2    0    0 -0.13630925591E+03  0.31526640560E+03 -0.23709344956E+03  0.44449755521E+03  0.15294330000E+03 0.  1.
<mgrwt>
<rscale>  0 0.37598507E+03</rscale>
<asrwt>0</asrwt>
<pdfrwt beam="1">  1        2 0.58158987E+00 0.37598507E+03</pdfrwt>
<pdfrwt beam="2">  1       -2 0.53908901E-01 0.37598507E+03</pdfrwt>
<totfact> 0.20517349E+00</totfact>
</mgrwt>
</event>
<event>
 4    1  0.4880711E-008  0.5254362E+03  0.7818608E-02  0.1007345E+00
         -2   -1    0    0    0  501 -0.00000000000E+00  0.00000000000E+00  0.13423287169E+03  0.13423287171E+03  0.25500000000E-02 0.  1.
          2   -1    0    0  501    0  0.00000000000E+00 -0.00000000000E+00 -0.28041837064E+04  0.28041837064E+04  0.25500000000E-02 0. -1.
    8880022    1    1    2    0    0 -0.22777694555E+03 -0.44811743992E+03 -0.57645552592E+03  0.77998987382E+03  0.15294330000E+03 0.  0.
    8880022    1    1    2    0    0  0.22777694555E+03  0.44811743992E+03 -0.20934953088E+04  0.21584267043E+04  0.15294330000E+03 0.  0.
<mgrwt>
<rscale>  0 0.52543623E+03</rscale>
<asrwt>0</asrwt>
<pdfrwt beam="1">  1        2 0.43141283E+00 0.52543623E+03</pdfrwt>
<pdfrwt beam="2">  1       -2 0.20651213E-01 0.52543623E+03</pdfrwt>
<totfact> 0.50535439E+01</totfact>
</mgrwt>
</event>
<event>
 4    1  0.4880711E-008  0.7339967E+03  0.7818608E-02  0.9660797E-01
         -2   -1    0    0    0  501 -0.00000000000E+00  0.00000000000E+00  0.73118044519E+03  0.73118044519E+03  0.25500000000E-02 0.  1.
          2   -1    0    0  501    0  0.00000000000E+00 -0.00000000000E+00 -0.13905090520E+04  0.13905090521E+04  0.25500000000E-02 0. -1.
    8880022    1    1    2    0    0  0.28623777296E+03  0.65835211434E+03  0.39769539369E+03  0.83481306189E+03  0.15294330000E+03 0.  0.
    8880022    1    1    2    0    0 -0.28623777296E+03 -0.65835211434E+03 -0.10570240005E+04  0.12868764354E+04  0.15294330000E+03 0.  0.
<mgrwt>
<rscale>  0 0.73399675E+03</rscale>
<asrwt>0</asrwt>
<pdfrwt beam="1">  1        2 0.21392447E+00 0.73399675E+03</pdfrwt>
<pdfrwt beam="2">  1       -2 0.11248930E+00 0.73399675E+03</pdfrwt>
<totfact> 0.93463747E+00</totfact>
</mgrwt>
</event>
<event>
 4    1  0.4880711E-008  0.9158789E+03  0.7818608E-02  0.9405947E-01
         -2   -1    0    0    0  501 -0.00000000000E+00  0.00000000000E+00  0.85036269700E+03  0.85036269701E+03  0.25500000000E-02 0.  1.
          2   -1    0    0  501    0  0.00000000000E+00 -0.00000000000E+00 -0.15293302087E+04  0.15293302087E+04  0.25500000000E-02 0. -1.
    8880022    1    1    2    0    0 -0.34274365185E+02  0.90236782201E+03 -0.10484004650E+04  0.13921126414E+04  0.15294330000E+03 0.  1.
    8880022    1    1    2    0    0  0.34274365185E+02 -0.90236782201E+03  0.36943295337E+03  0.98758026426E+03  0.15294330000E+03 0.  0.
<mgrwt>
<rscale>  0 0.91587885E+03</rscale>
<asrwt>0</asrwt>
<pdfrwt beam="1">  1        2 0.23528157E+00 0.91587885E+03</pdfrwt>
<pdfrwt beam="2">  1       -2 0.13082503E+00 0.91587885E+03</pdfrwt>
<totfact> 0.52399575E+00</totfact>
</mgrwt>
</event>
<event>
 4    1  0.4880711E-008  0.4342230E+03  0.7818608E-02  0.1032534E+00
         -2   -1    0    0    0  501 -0.00000000000E+00  0.00000000000E+00  0.94510377794E+03  0.94510377794E+03  0.25500000000E-02 0.  1.
          2   -1    0    0  501    0  0.00000000000E+00 -0.00000000000E+00 -0.93459454724E+03  0.93459454724E+03  0.25500000000E-02 0. -1.
    8880022    1    1    2    0    0 -0.40468088063E+03  0.37300382161E+02 -0.82826861038E+03  0.93518900636E+03  0.15294330000E+03 0.  0.
    8880022    1    1    2    0    0  0.40468088063E+03 -0.37300382161E+02  0.83877784108E+03  0.94450931883E+03  0.15294330000E+03 0.  0.
<mgrwt>
<rscale>  0 0.43422297E+03</rscale>
<asrwt>0</asrwt>
<pdfrwt beam="1">  1        2 0.14378378E+00 0.43422297E+03</pdfrwt>
<pdfrwt beam="2">  1       -2 0.14540058E+00 0.43422297E+03</pdfrwt>
<totfact> 0.96632175E+00</totfact>
</mgrwt>
</event>
<event>
 4    1  0.4880711E-008  0.2814874E+03  0.7818608E-02  0.1094879E+00
          2   -1    0    0  501    0  0.00000000000E+00  0.00000000000E+00  0.12066698421E+04  0.12066698421E+04  0.25500000000E-02 0. -1.
         -2   -1    0    0    0  501 -0.00000000000E+00 -0.00000000000E+00 -0.69863829435E+03  0.69863829435E+03  0.25500000000E-02 0.  1.
    8880022    1    1    2    0    0  0.51753976936E+02 -0.23057541999E+03 -0.65276428464E+03  0.71087014478E+03  0.15294330000E+03 0.  0.
    8880022    1    1    2    0    0 -0.51753976936E+02  0.23057541999E+03  0.11607958324E+04  0.11944379916E+04  0.15294330000E+03 0.  0.
<mgrwt>
<rscale>  0 0.28148739E+03</rscale>
<asrwt>0</asrwt>
<pdfrwt beam="1">  1        2 0.18564151E+00 0.28148739E+03</pdfrwt>
<pdfrwt beam="2">  1       -2 0.10748282E+00 0.28148739E+03</pdfrwt>
<totfact> 0.14541051E+01</totfact>
</mgrwt>
</event>
<event>
 4    1  0.4880711E-008  0.5987481E+03  0.7818608E-02  0.9908007E-01
          2   -1    0    0  501    0  0.00000000000E+00  0.00000000000E+00  0.10843688583E+04  0.10843688583E+04  0.25500000000E-02 0. -1.
         -2   -1    0    0    0  501 -0.00000000000E+00 -0.00000000000E+00 -0.45601855179E+03  0.45601855180E+03  0.25500000000E-02 0.  1.
    8880022    1    1    2    0    0  0.99759281155E+02 -0.57022428895E+03 -0.89729152727E+02  0.60543424726E+03  0.15294330000E+03 0.  0.
    8880022    1    1    2    0    0 -0.99759281155E+02  0.57022428895E+03  0.71807945919E+03  0.93495316279E+03  0.15294330000E+03 0.  0.
<mgrwt>
<rscale>  0 0.59874812E+03</rscale>
<asrwt>0</asrwt>
<pdfrwt beam="1">  1        2 0.16682598E+00 0.59874812E+03</pdfrwt>
<pdfrwt beam="2">  1       -2 0.70156701E-01 0.59874812E+03</pdfrwt>
<totfact> 0.42564989E+01</totfact>
</mgrwt>
</event>
<event>
 4    1  0.4880711E-008  0.1102634E+04  0.7818608E-02  0.9202628E-01
          2   -1    0    0  501    0  0.00000000000E+00  0.00000000000E+00  0.21753986600E+04  0.21753986600E+04  0.25500000000E-02 0. -1.
         -2   -1    0    0    0  501 -0.00000000000E+00 -0.00000000000E+00 -0.84340330396E+03  0.84340330397E+03  0.25500000000E-02 0.  1.
    8880022    1    1    2    0    0  0.10425971803E+04  0.32465516345E+03  0.15426769567E+04  0.18962208999E+04  0.15294330000E+03 0.  0.
    8880022    1    1    2    0    0 -0.10425971803E+04 -0.32465516345E+03 -0.21068160066E+03  0.11225810641E+04  0.15294330000E+03 0.  0.
<mgrwt>
<rscale>  0 0.11026339E+04</rscale>
<asrwt>0</asrwt>
<pdfrwt beam="1">  1        2 0.33467671E+00 0.11026339E+04</pdfrwt>
<pdfrwt beam="2">  1       -2 0.12975436E+00 0.11026339E+04</pdfrwt>
<totfact> 0.22978175E+00</totfact>
</mgrwt>
</event>
<event>
 4    1  0.4880711E-008  0.4715795E+03  0.7818608E-02  0.1021475E+00
          2   -1    0    0  501    0  0.00000000000E+00  0.00000000000E+00  0.30693266214E+04  0.30693266214E+04  0.25500000000E-02 0. -1.
         -2   -1    0    0    0  501 -0.00000000000E+00 -0.00000000000E+00 -0.31623685472E+03  0.31623685473E+03  0.25500000000E-02 0.  1.
    8880022    1    1    2    0    0  0.13205144377E+03 -0.42609619590E+03 -0.10971809812E+03  0.48417483003E+03  0.15294330000E+03 0.  0.
    8880022    1    1    2    0    0 -0.13205144377E+03  0.42609619590E+03  0.28628078648E+04  0.29013886461E+04  0.15294330000E+03 0. -1.
<mgrwt>
<rscale>  0 0.47157948E+03</rscale>
<asrwt>0</asrwt>
<pdfrwt beam="1">  1        2 0.47220410E+00 0.47157948E+03</pdfrwt>
<pdfrwt beam="2">  1       -2 0.48651823E-01 0.47157948E+03</pdfrwt>
<totfact> 0.71872845E+00</totfact>
</mgrwt>
</event>
<event>
 4    1  0.4880711E-008  0.1349689E+04  0.7818608E-02  0.8991064E-01
         -2   -1    0    0    0  501 -0.00000000000E+00  0.00000000000E+00  0.62381166463E+03  0.62381166464E+03  0.25500000000E-02 0.  1.
          2   -1    0    0  501    0  0.00000000000E+00 -0.00000000000E+00 -0.31432729601E+04  0.31432729601E+04  0.25500000000E-02 0. -1.
    8880022    1    1    2    0    0 -0.10098988296E+04  0.88225457258E+03 -0.17614941271E+04  0.22191264024E+04  0.15294330000E+03 0.  0.
    8880022    1    1    2    0    0  0.10098988296E+04 -0.88225457258E+03 -0.75796716837E+03  0.15479582224E+04  0.15294330000E+03 0.  1.
<mgrwt>
<rscale>  0 0.13496890E+04</rscale>
<asrwt>0</asrwt>
<pdfrwt beam="1">  1        2 0.48358045E+00 0.13496890E+04</pdfrwt>
<pdfrwt beam="2">  1       -2 0.95971027E-01 0.13496890E+04</pdfrwt>
<totfact> 0.12525832E+00</totfact>
</mgrwt>
</event>
<event>
 4    1  0.4880711E-008  0.3096264E+03  0.7818608E-02  0.1080525E+00
         -2   -1    0    0    0  501 -0.00000000000E+00  0.00000000000E+00  0.15469280351E+03  0.15469280353E+03  0.25500000000E-02 0.  1.
          2   -1    0    0  501    0  0.00000000000E+00 -0.00000000000E+00 -0.19316911225E+04  0.19316911225E+04  0.25500000000E-02 0. -1.
    8880022    1    1    2    0    0  0.24983357881E+03 -0.10029979867E+03 -0.28783034675E+02  0.31096138476E+03  0.15294330000E+03 0.  1.
    8880022    1    1    2    0    0 -0.24983357881E+03  0.10029979867E+03 -0.17482152843E+04  0.17754225413E+04  0.15294330000E+03 0.  0.
<mgrwt>
<rscale>  0 0.30962642E+03</rscale>
<asrwt>0</asrwt>
<pdfrwt beam="1">  1        2 0.29718323E+00 0.30962642E+03</pdfrwt>
<pdfrwt beam="2">  1       -2 0.23798894E-01 0.30962642E+03</pdfrwt>
<totfact> 0.12501229E+02</totfact>
</mgrwt>
</event>
<event>
 4    1  0.4880711E-008  0.4229328E+03  0.7818608E-02  0.1036116E+00
          2   -1    0    0  501    0  0.00000000000E+00  0.00000000000E+00  0.28604214665E+04  0.28604214665E+04  0.25500000000E-02 0. -1.
         -2   -1    0    0    0  501 -0.00000000000E+00 -0.00000000000E+00 -0.13737578322E+03  0.13737578324E+03  0.25500000000E-02 0.  1.
    8880022    1    1    2    0    0 -0.35274537398E+03  0.17621351447E+03  0.24678681433E+04  0.25038461069E+04  0.15294330000E+03 0. -1.
    8880022    1    1    2    0    0  0.35274537398E+03 -0.17621351447E+03  0.25517754000E+03  0.49395114281E+03  0.15294330000E+03 0.  0.
<mgrwt>
<rscale>  0 0.42293280E+03</rscale>
<asrwt>0</asrwt>
<pdfrwt beam="1">  1        2 0.44006481E+00 0.42293280E+03</pdfrwt>
<pdfrwt beam="2">  1       -2 0.21134737E-01 0.42293280E+03</pdfrwt>
<totfact> 0.46064623E+01</totfact>
</mgrwt>
</event>
<event>
 4    1  0.4880711E-008  0.2046343E+03  0.7818608E-02  0.1145887E+00
         -2   -1    0    0    0  501 -0.00000000000E+00  0.00000000000E+00  0.43032133231E+03  0.43032133232E+03  0.25500000000E-02 0.  1.
          2   -1    0    0  501    0  0.00000000000E+00 -0.00000000000E+00 -0.30847814337E+03  0.30847814338E+03  0.25500000000E-02 0. -1.
    8880022    1    1    2    0    0 -0.27732348323E+02 -0.13309575378E+03 -0.24470914938E+03  0.31899495862E+03  0.15294330000E+03 0.  0.
    8880022    1    1    2    0    0  0.27732348323E+02  0.13309575378E+03  0.36655233832E+03  0.41980451708E+03  0.15294330000E+03 0.  0.
<mgrwt>
<rscale>  0 0.20463435E+03</rscale>
<asrwt>0</asrwt>
<pdfrwt beam="1">  1        2 0.47458176E-01 0.20463435E+03</pdfrwt>
<pdfrwt beam="2">  1       -2 0.66203282E-01 0.20463435E+03</pdfrwt>
<totfact> 0.23047417E+02</totfact>
</mgrwt>
</event>
<event>
 4    1  0.4880711E-008  0.6476384E+03  0.7818608E-02  0.9811221E-01
          2   -1    0    0  501    0  0.00000000000E+00  0.00000000000E+00  0.18300419820E+04  0.18300419820E+04  0.25500000000E-02 0. -1.
         -2   -1    0    0    0  501 -0.00000000000E+00 -0.00000000000E+00 -0.26500312925E+03  0.26500312926E+03  0.25500000000E-02 0.  1.
    8880022    1    1    2    0    0  0.24585153058E+03  0.57931068822E+03  0.11675825364E+04  0.13351720791E+04  0.15294330000E+03 0.  0.
    8880022    1    1    2    0    0 -0.24585153058E+03 -0.57931068822E+03  0.39745631639E+03  0.75987303217E+03  0.15294330000E+03 0.  0.
<mgrwt>
<rscale>  0 0.64763840E+03</rscale>
<asrwt>0</asrwt>
<pdfrwt beam="1">  1        2 0.28154492E+00 0.64763840E+03</pdfrwt>
<pdfrwt beam="2">  1       -2 0.40769713E-01 0.64763840E+03</pdfrwt>
<totfact> 0.49208869E+01</totfact>
</mgrwt>
</event>
<event>
 4    1  0.4880711E-008  0.1633904E+03  0.7818608E-02  0.1184921E+00
          2   -1    0    0  501    0  0.00000000000E+00  0.00000000000E+00  0.16947419324E+04  0.16947419324E+04  0.25500000000E-02 0. -1.
         -2   -1    0    0    0  501 -0.00000000000E+00 -0.00000000000E+00 -0.16004196689E+03  0.16004196692E+03  0.25500000000E-02 0.  1.
    8880022    1    1    2    0    0 -0.57442976376E+02  0.22525785666E+01  0.16479195979E+04  0.16559998260E+04  0.15294330000E+03 0. -1.
    8880022    1    1    2    0    0  0.57442976376E+02 -0.22525785666E+01 -0.11321963235E+03  0.19878407333E+03  0.15294330000E+03 0.  0.
<mgrwt>
<rscale>  0 0.16339040E+03</rscale>
<asrwt>0</asrwt>
<pdfrwt beam="1">  1        2 0.26072955E+00 0.16339040E+03</pdfrwt>
<pdfrwt beam="2">  1       -2 0.24621839E-01 0.16339040E+03</pdfrwt>
<totfact> 0.16364810E+02</totfact>
</mgrwt>
</event>
<event>
 4    1  0.4880711E-008  0.5046204E+03  0.7818608E-02  0.1012580E+00
          2   -1    0    0  501    0  0.00000000000E+00  0.00000000000E+00  0.47473298067E+03  0.47473298068E+03  0.25500000000E-02 0. -1.
         -2   -1    0    0    0  501 -0.00000000000E+00 -0.00000000000E+00 -0.11113356757E+04  0.11113356757E+04  0.25500000000E-02 0.  1.
    8880022    1    1    2    0    0 -0.47880318479E+03  0.44694762028E+02 -0.88870588419E+03  0.10219784309E+04  0.15294330000E+03 0.  0.
    8880022    1    1    2    0    0  0.47880318479E+03 -0.44694762028E+02  0.25210318917E+03  0.56409022552E+03  0.15294330000E+03 0.  0.
<mgrwt>
<rscale>  0 0.50462042E+03</rscale>
<asrwt>0</asrwt>
<pdfrwt beam="1">  1        2 0.73035843E-01 0.50462042E+03</pdfrwt>
<pdfrwt beam="2">  1       -2 0.17097472E+00 0.50462042E+03</pdfrwt>
<totfact> 0.14328565E+01</totfact>
</mgrwt>
</event>
<event>
 4    1  0.4880711E-008  0.4298593E+03  0.7818608E-02  0.1033904E+00
          2   -1    0    0  501    0  0.00000000000E+00  0.00000000000E+00  0.90476134670E+03  0.90476134671E+03  0.25500000000E-02 0. -1.
         -2   -1    0    0    0  501 -0.00000000000E+00 -0.00000000000E+00 -0.10122890545E+04  0.10122890545E+04  0.25500000000E-02 0.  1.
    8880022    1    1    2    0    0  0.18343597200E+03  0.35740538974E+03 -0.91015650282E+03  0.10065604210E+04  0.15294330000E+03 0.  0.
    8880022    1    1    2    0    0 -0.18343597200E+03 -0.35740538974E+03  0.80262879504E+03  0.91048998022E+03  0.15294330000E+03 0.  0.
<mgrwt>
<rscale>  0 0.42985930E+03</rscale>
<asrwt>0</asrwt>
<pdfrwt beam="1">  1        2 0.13919405E+00 0.42985930E+03</pdfrwt>
<pdfrwt beam="2">  1       -2 0.15573678E+00 0.42985930E+03</pdfrwt>
<totfact> 0.84503688E+00</totfact>
</mgrwt>
</event>
<event>
 4    1  0.4880711E-008  0.4131136E+03  0.7818608E-02  0.1039331E+00
         -2   -1    0    0    0  501 -0.00000000000E+00  0.00000000000E+00  0.14680500608E+03  0.14680500610E+03  0.25500000000E-02 0.  1.
          2   -1    0    0  501    0  0.00000000000E+00 -0.00000000000E+00 -0.13794929352E+04  0.13794929352E+04  0.25500000000E-02 0. -1.
    8880022    1    1    2    0    0 -0.38357207469E+03  0.11986707102E+02 -0.31368161587E+03  0.51870900010E+03  0.15294330000E+03 0.  0.
    8880022    1    1    2    0    0  0.38357207469E+03 -0.11986707102E+02 -0.91900631323E+03  0.10075889412E+04  0.15294330000E+03 0.  0.
<mgrwt>
<rscale>  0 0.41311363E+03</rscale>
<asrwt>0</asrwt>
<pdfrwt beam="1">  1        2 0.21222967E+00 0.41311363E+03</pdfrwt>
<pdfrwt beam="2">  1       -2 0.22585386E-01 0.41311363E+03</pdfrwt>
<totfact> 0.26655134E+02</totfact>
</mgrwt>
</event>
<event>
 4    1  0.4880711E-008  0.2279125E+03  0.7818608E-02  0.1128118E+00
          2   -1    0    0  501    0  0.00000000000E+00  0.00000000000E+00  0.35781794516E+03  0.35781794517E+03  0.25500000000E-02 0. -1.
         -2   -1    0    0    0  501 -0.00000000000E+00 -0.00000000000E+00 -0.16061582226E+04  0.16061582226E+04  0.25500000000E-02 0.  1.
    8880022    1    1    2    0    0  0.63094076494E+02 -0.15675335278E+03 -0.15607299936E+04  0.15772831838E+04  0.15294330000E+03 0.  1.
    8880022    1    1    2    0    0 -0.63094076494E+02  0.15675335278E+03  0.31238971612E+03  0.38669298397E+03  0.15294330000E+03 0.  0.
<mgrwt>
<rscale>  0 0.22791255E+03</rscale>
<asrwt>0</asrwt>
<pdfrwt beam="1">  1        2 0.55048916E-01 0.22791255E+03</pdfrwt>
<pdfrwt beam="2">  1       -2 0.24710126E+00 0.22791255E+03</pdfrwt>
<totfact> 0.69008220E+00</totfact>
</mgrwt>
</event>
<event>
 4    1  0.4880711E-008  0.6049546E+03  0.7818608E-02  0.9895180E-01
         -2   -1    0    0    0  501 -0.00000000000E+00  0.00000000000E+00  0.24063707383E+03  0.24063707384E+03  0.25500000000E-02 0.  1.
          2   -1    0    0  501    0  0.00000000000E+00 -0.00000000000E+00 -0.20865556567E+04  0.20865556567E+04  0.25500000000E-02 0. -1.
    8880022    1    1    2    0    0 -0.22169958548E+03 -0.54168972954E+03 -0.31707868598E+03  0.68301465241E+03  0.15294330000E+03 0.  0.
    8880022    1    1    2    0    0  0.22169958548E+03  0.54168972954E+03 -0.15288398969E+04  0.16441780781E+04  0.15294330000E+03 0.  0.
<mgrwt>
<rscale>  0 0.60495464E+03</rscale>
<asrwt>0</asrwt>
<pdfrwt beam="1">  1        2 0.32100855E+00 0.60495464E+03</pdfrwt>
<pdfrwt beam="2">  1       -2 0.37021090E-01 0.60495464E+03</pdfrwt>
<totfact> 0.43313593E+01</totfact>
</mgrwt>
</event>
<event>
 4    1  0.4880711E-008  0.8492505E+03  0.7818608E-02  0.9491343E-01
         -2   -1    0    0    0  501 -0.00000000000E+00  0.00000000000E+00  0.56350147830E+03  0.56350147831E+03  0.25500000000E-02 0.  1.
          2   -1    0    0  501    0  0.00000000000E+00 -0.00000000000E+00 -0.37330202662E+04  0.37330202662E+04  0.25500000000E-02 0. -1.
    8880022    1    1    2    0    0  0.82913371481E+03  0.10184298061E+03 -0.33262299493E+04  0.34329334451E+04  0.15294330000E+03 0.  0.
    8880022    1    1    2    0    0 -0.82913371481E+03 -0.10184298061E+03  0.15671116143E+03  0.86358829940E+03  0.15294330000E+03 0.  0.
<mgrwt>
<rscale>  0 0.84925047E+03</rscale>
<asrwt>0</asrwt>
<pdfrwt beam="1">  1        2 0.57431080E+00 0.84925047E+03</pdfrwt>
<pdfrwt beam="2">  1       -2 0.86692537E-01 0.84925047E+03</pdfrwt>
<totfact> 0.68265391E-01</totfact>
</mgrwt>
</event>
<event>
 4    1  0.4880711E-008  0.1815304E+03  0.7818608E-02  0.1166330E+00
         -2   -1    0    0    0  501 -0.00000000000E+00  0.00000000000E+00  0.28181060297E+03  0.28181060298E+03  0.25500000000E-02 0.  1.
          2   -1    0    0  501    0  0.00000000000E+00 -0.00000000000E+00 -0.21114785463E+04  0.21114785463E+04  0.25500000000E-02 0. -1.
    8880022    1    1    2    0    0  0.60970818836E+02  0.76447244007E+02  0.24820347126E+03  0.30750323255E+03  0.15294330000E+03 0.  0.
    8880022    1    1    2    0    0 -0.60970818836E+02 -0.76447244007E+02 -0.20778714146E+04  0.20857859168E+04  0.15294330000E+03 0. -1.
<mgrwt>
<rscale>  0 0.18153037E+03</rscale>
<asrwt>0</asrwt>
<pdfrwt beam="1">  1        2 0.32484284E+00 0.18153037E+03</pdfrwt>
<pdfrwt beam="2">  1       -2 0.43355479E-01 0.18153037E+03</pdfrwt>
<totfact> 0.34958933E+01</totfact>
</mgrwt>
</event>
<event>
 4    1  0.4880711E-008  0.4070122E+03  0.7818608E-02  0.1041378E+00
          2   -1    0    0  501    0  0.00000000000E+00  0.00000000000E+00  0.79961481158E+03  0.79961481158E+03  0.25500000000E-02 0. -1.
         -2   -1    0    0    0  501 -0.00000000000E+00 -0.00000000000E+00 -0.74724965757E+03  0.74724965757E+03  0.25500000000E-02 0.  1.
    8880022    1    1    2    0    0  0.32838310911E+03 -0.18555816206E+03 -0.63134948272E+03  0.75117316259E+03  0.15294330000E+03 0.  0.
    8880022    1    1    2    0    0 -0.32838310911E+03  0.18555816206E+03  0.68371463672E+03  0.79569130656E+03  0.15294330000E+03 0.  0.
<mgrwt>
<rscale>  0 0.40701222E+03</rscale>
<asrwt>0</asrwt>
<pdfrwt beam="1">  1        2 0.12301766E+00 0.40701222E+03</pdfrwt>
<pdfrwt beam="2">  1       -2 0.11496149E+00 0.40701222E+03</pdfrwt>
<totfact> 0.21572780E+01</totfact>
</mgrwt>
</event>
<event>
 4    1  0.4880711E-008  0.2257517E+03  0.7818608E-02  0.1129666E+00
          2   -1    0    0  501    0  0.00000000000E+00  0.00000000000E+00  0.11524396693E+04  0.11524396693E+04  0.25500000000E-02 0. -1.
         -2   -1    0    0    0  501 -0.00000000000E+00 -0.00000000000E+00 -0.24564389986E+03  0.24564389988E+03  0.25500000000E-02 0.  1.
    8880022    1    1    2    0    0 -0.15689923214E+03  0.54358269645E+02  0.10863966664E+04  0.11096042359E+04  0.15294330000E+03 0. -1.
    8880022    1    1    2    0    0  0.15689923214E+03 -0.54358269645E+02 -0.17960089697E+03  0.28847933328E+03  0.15294330000E+03 0.  0.
<mgrwt>
<rscale>  0 0.22575173E+03</rscale>
<asrwt>0</asrwt>
<pdfrwt beam="1">  1        2 0.17729841E+00 0.22575173E+03</pdfrwt>
<pdfrwt beam="2">  1       -2 0.37791370E-01 0.22575173E+03</pdfrwt>
<totfact> 0.14437443E+02</totfact>
</mgrwt>
</event>
<event>
 4    1  0.4880711E-008  0.1448398E+04  0.7818608E-02  0.8919512E-01
          2   -1    0    0  501    0  0.00000000000E+00  0.00000000000E+00  0.13427645325E+04  0.13427645325E+04  0.25500000000E-02 0. -1.
         -2   -1    0    0    0  501 -0.00000000000E+00 -0.00000000000E+00 -0.17366607977E+04  0.17366607977E+04  0.25500000000E-02 0.  1.
    8880022    1    1    2    0    0 -0.86975674512E+03 -0.11480364914E+04  0.29086714476E+03  0.14773151087E+04  0.15294330000E+03 0.  0.
    8880022    1    1    2    0    0  0.86975674512E+03  0.11480364914E+04 -0.68476340995E+03  0.16021102216E+04  0.15294330000E+03 0.  0.
<mgrwt>
<rscale>  0 0.14483978E+04</rscale>
<asrwt>0</asrwt>
<pdfrwt beam="1">  1        2 0.20657916E+00 0.14483978E+04</pdfrwt>
<pdfrwt beam="2">  1       -2 0.26717859E+00 0.14483978E+04</pdfrwt>
<totfact> 0.74551861E-01</totfact>
</mgrwt>
</event>
<event>
 4    1  0.4880711E-008  0.3891128E+03  0.7818608E-02  0.1047616E+00
          2   -1    0    0  501    0  0.00000000000E+00  0.00000000000E+00  0.16411690240E+04  0.16411690240E+04  0.25500000000E-02 0. -1.
         -2   -1    0    0    0  501 -0.00000000000E+00 -0.00000000000E+00 -0.38683702079E+03  0.38683702080E+03  0.25500000000E-02 0.  1.
    8880022    1    1    2    0    0  0.13409770623E+03 -0.33171515857E+03 -0.25769920693E+03  0.46670941228E+03  0.15294330000E+03 0.  0.
    8880022    1    1    2    0    0 -0.13409770623E+03  0.33171515857E+03  0.15120312101E+04  0.15612966325E+04  0.15294330000E+03 0.  0.
<mgrwt>
<rscale>  0 0.38911283E+03</rscale>
<asrwt>0</asrwt>
<pdfrwt beam="1">  1        2 0.25248754E+00 0.38911283E+03</pdfrwt>
<pdfrwt beam="2">  1       -2 0.59513388E-01 0.38911283E+03</pdfrwt>
<totfact> 0.30346275E+01</totfact>
</mgrwt>
</event>
<event>
 4    1  0.4880711E-008  0.5323168E+03  0.7818608E-02  0.1005672E+00
         -2   -1    0    0    0  501 -0.00000000000E+00  0.00000000000E+00  0.90121868174E+03  0.90121868174E+03  0.25500000000E-02 0.  1.
          2   -1    0    0  501    0  0.00000000000E+00 -0.00000000000E+00 -0.10763559934E+04  0.10763559934E+04  0.25500000000E-02 0. -1.
    8880022    1    1    2    0    0 -0.26826954234E+02  0.50916582557E+03  0.74435634324E+03  0.91511067207E+03  0.15294330000E+03 0.  0.
    8880022    1    1    2    0    0  0.26826954234E+02 -0.50916582557E+03 -0.91949365486E+03  0.10624640030E+04  0.15294330000E+03 0.  0.
<mgrwt>
<rscale>  0 0.53231680E+03</rscale>
<asrwt>0</asrwt>
<pdfrwt beam="1">  1        2 0.16559323E+00 0.53231680E+03</pdfrwt>
<pdfrwt beam="2">  1       -2 0.13864903E+00 0.53231680E+03</pdfrwt>
<totfact> 0.87351438E+00</totfact>
</mgrwt>
</event>
<event>
 4    1  0.4880711E-008  0.6115039E+03  0.7818608E-02  0.9881822E-01
         -2   -1    0    0    0  501 -0.00000000000E+00  0.00000000000E+00  0.12327824911E+04  0.12327824911E+04  0.25500000000E-02 0.  1.
          2   -1    0    0  501    0  0.00000000000E+00 -0.00000000000E+00 -0.60162450751E+03  0.60162450752E+03  0.25500000000E-02 0. -1.
    8880022    1    1    2    0    0  0.53954034102E+03  0.24380639810E+03 -0.33026451326E+03  0.69499038920E+03  0.15294330000E+03 0.  0.
    8880022    1    1    2    0    0 -0.53954034102E+03 -0.24380639810E+03  0.96142249686E+03  0.11394166094E+04  0.15294330000E+03 0.  0.
<mgrwt>
<rscale>  0 0.61150388E+03</rscale>
<asrwt>0</asrwt>
<pdfrwt beam="1">  1        2 0.92557617E-01 0.61150388E+03</pdfrwt>
<pdfrwt beam="2">  1       -2 0.18965884E+00 0.61150388E+03</pdfrwt>
<totfact> 0.79853371E+00</totfact>
</mgrwt>
</event>
<event>
 4    1  0.4880711E-008  0.6481743E+03  0.7818608E-02  0.9810211E-01
         -2   -1    0    0    0  501 -0.00000000000E+00  0.00000000000E+00  0.25155825406E+03  0.25155825407E+03  0.25500000000E-02 0.  1.
          2   -1    0    0  501    0  0.00000000000E+00 -0.00000000000E+00 -0.28490324503E+04  0.28490324503E+04  0.25500000000E-02 0. -1.
    8880022    1    1    2    0    0 -0.61540169990E+03 -0.13423494135E+03 -0.30147712357E+03  0.71485549643E+03  0.15294330000E+03 0.  0.
    8880022    1    1    2    0    0  0.61540169990E+03  0.13423494135E+03 -0.22959970727E+04  0.23857352080E+04  0.15294330000E+03 0.  0.
<mgrwt>
<rscale>  0 0.64817430E+03</rscale>
<asrwt>0</asrwt>
<pdfrwt beam="1">  1        2 0.43831266E+00 0.64817430E+03</pdfrwt>
<pdfrwt beam="2">  1       -2 0.38701272E-01 0.64817430E+03</pdfrwt>
<totfact> 0.14662349E+01</totfact>
</mgrwt>
</event>
<event>
 4    1  0.4880711E-008  0.5369900E+03  0.7818608E-02  0.1004551E+00
         -2   -1    0    0    0  501 -0.00000000000E+00  0.00000000000E+00  0.57839221749E+03  0.57839221749E+03  0.25500000000E-02 0.  1.
          2   -1    0    0  501    0  0.00000000000E+00 -0.00000000000E+00 -0.70512043531E+03  0.70512043531E+03  0.25500000000E-02 0. -1.
    8880022    1    1    2    0    0 -0.48322925531E+02  0.51247585567E+03  0.28398892669E+03  0.60746026313E+03  0.15294330000E+03 0.  0.
    8880022    1    1    2    0    0  0.48322925531E+02 -0.51247585567E+03 -0.41071714451E+03  0.67605238968E+03  0.15294330000E+03 0.  0.
<mgrwt>
<rscale>  0 0.53699000E+03</rscale>
<asrwt>0</asrwt>
<pdfrwt beam="1">  1        2 0.10848007E+00 0.53699000E+03</pdfrwt>
<pdfrwt beam="2">  1       -2 0.88983418E-01 0.53699000E+03</pdfrwt>
<totfact> 0.45488632E+01</totfact>
</mgrwt>
</event>
<event>
 4    1  0.4880711E-008  0.5914811E+03  0.7818608E-02  0.9923239E-01
         -2   -1    0    0    0  501 -0.00000000000E+00  0.00000000000E+00  0.27781282646E+03  0.27781282647E+03  0.25500000000E-02 0.  1.
          2   -1    0    0  501    0  0.00000000000E+00 -0.00000000000E+00 -0.31015461385E+04  0.31015461385E+04  0.25500000000E-02 0. -1.
    8880022    1    1    2    0    0 -0.36553047721E+03 -0.43914198907E+03 -0.27141004453E+04  0.27778032861E+04  0.15294330000E+03 0.  0.
    8880022    1    1    2    0    0  0.36553047721E+03  0.43914198907E+03 -0.10963286683E+03  0.60155567892E+03  0.15294330000E+03 0.  0.
<mgrwt>
<rscale>  0 0.59148108E+03</rscale>
<asrwt>0</asrwt>
<pdfrwt beam="1">  1        2 0.47716092E+00 0.59148108E+03</pdfrwt>
<pdfrwt beam="2">  1       -2 0.42740437E-01 0.59148108E+03</pdfrwt>
<totfact> 0.85983593E+00</totfact>
</mgrwt>
</event>
<event>
 4    1  0.4880711E-008  0.4412718E+03  0.7818608E-02  0.1030357E+00
         -2   -1    0    0    0  501 -0.00000000000E+00  0.00000000000E+00  0.16833543942E+03  0.16833543944E+03  0.25500000000E-02 0.  1.
          2   -1    0    0  501    0  0.00000000000E+00 -0.00000000000E+00 -0.36198578925E+04  0.36198578925E+04  0.25500000000E-02 0. -1.
    8880022    1    1    2    0    0 -0.25103401985E+03  0.32910650659E+03 -0.32881845830E+04  0.33176616278E+04  0.15294330000E+03 0.  0.
    8880022    1    1    2    0    0  0.25103401985E+03 -0.32910650659E+03 -0.16333787012E+03  0.47053170417E+03  0.15294330000E+03 0.  0.
<mgrwt>
<rscale>  0 0.44127183E+03</rscale>
<asrwt>0</asrwt>
<pdfrwt beam="1">  1        2 0.55690115E+00 0.44127183E+03</pdfrwt>
<pdfrwt beam="2">  1       -2 0.25897763E-01 0.44127183E+03</pdfrwt>
<totfact> 0.10538839E+01</totfact>
</mgrwt>
</event>
<event>
 4    1  0.4880711E-008  0.4891012E+03  0.7818608E-02  0.1016663E+00
          2   -1    0    0  501    0  0.00000000000E+00  0.00000000000E+00  0.20954562018E+04  0.20954562018E+04  0.25500000000E-02 0. -1.
         -2   -1    0    0    0  501 -0.00000000000E+00 -0.00000000000E+00 -0.71726492079E+03  0.71726492079E+03  0.25500000000E-02 0.  1.
    8880022    1    1    2    0    0  0.35760385347E+02  0.46319492255E+03 -0.60049791101E+03  0.77447900913E+03  0.15294330000E+03 0.  0.
    8880022    1    1    2    0    0 -0.35760385347E+02 -0.46319492255E+03  0.19786891920E+04  0.20382421134E+04  0.15294330000E+03 0. -1.
<mgrwt>
<rscale>  0 0.48910121E+03</rscale>
<asrwt>0</asrwt>
<pdfrwt beam="1">  1        2 0.32237787E+00 0.48910121E+03</pdfrwt>
<pdfrwt beam="2">  1       -2 0.11034845E+00 0.48910121E+03</pdfrwt>
<totfact> 0.42331291E+00</totfact>
</mgrwt>
</event>
<event>
 4    1  0.4880711E-008  0.2494193E+03  0.7818608E-02  0.1113672E+00
         -2   -1    0    0    0  501 -0.00000000000E+00  0.00000000000E+00  0.10707987194E+04  0.10707987194E+04  0.25500000000E-02 0.  1.
          2   -1    0    0  501    0  0.00000000000E+00 -0.00000000000E+00 -0.77369603937E+02  0.77369603979E+02  0.25500000000E-02 0. -1.
    8880022    1    1    2    0    0 -0.10819946766E+03 -0.16465482508E+03  0.21018942453E+03  0.32617416119E+03  0.15294330000E+03 0. -1.
    8880022    1    1    2    0    0  0.10819946766E+03  0.16465482508E+03  0.78323969094E+03  0.82199416221E+03  0.15294330000E+03 0.  1.
<mgrwt>
<rscale>  0 0.24941930E+03</rscale>
<asrwt>0</asrwt>
<pdfrwt beam="1">  1        2 0.11903015E-01 0.24941930E+03</pdfrwt>
<pdfrwt beam="2">  1       -2 0.16473828E+00 0.24941930E+03</pdfrwt>
<totfact> 0.12814081E+02</totfact>
</mgrwt>
</event>
<event>
 4    1  0.4880711E-008  0.1713735E+03  0.7818608E-02  0.1176423E+00
          2   -1    0    0  501    0  0.00000000000E+00  0.00000000000E+00  0.12375028443E+04  0.12375028443E+04  0.25500000000E-02 0. -1.
         -2   -1    0    0    0  501 -0.00000000000E+00 -0.00000000000E+00 -0.31059218409E+02  0.31059218513E+02  0.25500000000E-02 0.  1.
    8880022    1    1    2    0    0  0.66423156995E+02  0.39562272566E+02  0.91128895672E+03  0.92726286718E+03  0.15294330000E+03 0.  0.
    8880022    1    1    2    0    0 -0.66423156995E+02 -0.39562272566E+02  0.29515466920E+03  0.34129919566E+03  0.15294330000E+03 0.  0.
<mgrwt>
<rscale>  0 0.17137346E+03</rscale>
<asrwt>0</asrwt>
<pdfrwt beam="1">  1        2 0.19038507E+00 0.17137346E+03</pdfrwt>
<pdfrwt beam="2">  1       -2 0.47783408E-02 0.17137346E+03</pdfrwt>
<totfact> 0.39548435E+03</totfact>
</mgrwt>
</event>
<event>
 4    1  0.4880711E-008  0.5447041E+03  0.7818608E-02  0.1002727E+00
         -2   -1    0    0    0  501 -0.00000000000E+00  0.00000000000E+00  0.66961270561E+03  0.66961270562E+03  0.25500000000E-02 0.  1.
          2   -1    0    0  501    0  0.00000000000E+00 -0.00000000000E+00 -0.54597714921E+03  0.54597714922E+03  0.25500000000E-02 0. -1.
    8880022    1    1    2    0    0 -0.28891354247E+03  0.43570615305E+03 -0.20202079038E+03  0.58096035974E+03  0.15294330000E+03 0.  0.
    8880022    1    1    2    0    0  0.28891354247E+03 -0.43570615305E+03  0.32565634679E+03  0.63462949510E+03  0.15294330000E+03 0.  0.
<mgrwt>
<rscale>  0 0.54470408E+03</rscale>
<asrwt>0</asrwt>
<pdfrwt beam="1">  1        2 0.83996485E-01 0.54470408E+03</pdfrwt>
<pdfrwt beam="2">  1       -2 0.10301734E+00 0.54470408E+03</pdfrwt>
<totfact> 0.43993835E+01</totfact>
</mgrwt>
</event>
<event>
 4    1  0.4880711E-008  0.4787426E+03  0.7818608E-02  0.1019481E+00
         -2   -1    0    0    0  501 -0.00000000000E+00  0.00000000000E+00  0.25128806274E+03  0.25128806276E+03  0.25500000000E-02 0.  1.
          2   -1    0    0  501    0  0.00000000000E+00 -0.00000000000E+00 -0.19893001526E+04  0.19893001526E+04  0.25500000000E-02 0. -1.
    8880022    1    1    2    0    0 -0.92337568182E+02 -0.44415832117E+03 -0.44612870691E+02  0.48081680712E+03  0.15294330000E+03 0.  0.
    8880022    1    1    2    0    0  0.92337568182E+02  0.44415832117E+03 -0.16933992192E+04  0.17597714082E+04  0.15294330000E+03 0.  0.
<mgrwt>
<rscale>  0 0.47874262E+03</rscale>
<asrwt>0</asrwt>
<pdfrwt beam="1">  1        2 0.30604617E+00 0.47874262E+03</pdfrwt>
<pdfrwt beam="2">  1       -2 0.38659703E-01 0.47874262E+03</pdfrwt>
<totfact> 0.45985690E+01</totfact>
</mgrwt>
</event>
<event>
 4    1  0.4880711E-008  0.3179231E+03  0.7818608E-02  0.1076609E+00
         -2   -1    0    0    0  501 -0.00000000000E+00  0.00000000000E+00  0.82104070246E+03  0.82104070247E+03  0.25500000000E-02 0.  1.
          2   -1    0    0  501    0  0.00000000000E+00 -0.00000000000E+00 -0.31752923420E+03  0.31752923421E+03  0.25500000000E-02 0. -1.
    8880022    1    1    2    0    0 -0.23952175167E+03  0.14252285082E+03  0.69721897657E+03  0.76628283736E+03  0.15294330000E+03 0.  1.
    8880022    1    1    2    0    0  0.23952175167E+03 -0.14252285082E+03 -0.19370750830E+03  0.37228709931E+03  0.15294330000E+03 0.  0.
<mgrwt>
<rscale>  0 0.31792308E+03</rscale>
<asrwt>0</asrwt>
<pdfrwt beam="1">  1        2 0.48850652E-01 0.31792308E+03</pdfrwt>
<pdfrwt beam="2">  1       -2 0.12631395E+00 0.31792308E+03</pdfrwt>
<totfact> 0.50487938E+01</totfact>
</mgrwt>
</event>
<event>
 4    1  0.4880711E-008  0.3707295E+03  0.7818608E-02  0.1054414E+00
         -2   -1    0    0    0  501 -0.00000000000E+00  0.00000000000E+00  0.25416972659E+03  0.25416972660E+03  0.25500000000E-02 0.  1.
          2   -1    0    0  501    0  0.00000000000E+00 -0.00000000000E+00 -0.10220624817E+04  0.10220624817E+04  0.25500000000E-02 0. -1.
    8880022    1    1    2    0    0  0.14979337727E+03 -0.30267255414E+03  0.53956610839E+02  0.37463542247E+03  0.15294330000E+03 0.  0.
    8880022    1    1    2    0    0 -0.14979337727E+03  0.30267255414E+03 -0.82184936595E+03  0.90159678584E+03  0.15294330000E+03 0.  0.
<mgrwt>
<rscale>  0 0.37072953E+03</rscale>
<asrwt>0</asrwt>
<pdfrwt beam="1">  1        2 0.15724038E+00 0.37072953E+03</pdfrwt>
<pdfrwt beam="2">  1       -2 0.39103035E-01 0.37072953E+03</pdfrwt>
<totfact> 0.15779189E+02</totfact>
</mgrwt>
</event>
<event>
 4    1  0.4880711E-008  0.9520847E+03  0.7818608E-02  0.9362717E-01
          2   -1    0    0  501    0  0.00000000000E+00  0.00000000000E+00  0.28453059389E+04  0.28453059389E+04  0.25500000000E-02 0. -1.
         -2   -1    0    0    0  501 -0.00000000000E+00 -0.00000000000E+00 -0.65689891672E+03  0.65689891673E+03  0.25500000000E-02 0.  1.
    8880022    1    1    2    0    0 -0.84429679826E+03 -0.41259730675E+03 -0.16247352569E+03  0.96584829070E+03  0.15294330000E+03 0.  0.
    8880022    1    1    2    0    0  0.84429679826E+03  0.41259730675E+03  0.23508805479E+04  0.25363565649E+04  0.15294330000E+03 0.  0.
<mgrwt>
<rscale>  0 0.95208470E+03</rscale>
<asrwt>0</asrwt>
<pdfrwt beam="1">  1        2 0.43773938E+00 0.95208470E+03</pdfrwt>
<pdfrwt beam="2">  1       -2 0.10106137E+00 0.95208470E+03</pdfrwt>
<totfact> 0.17893277E+00</totfact>
</mgrwt>
</event>
<event>
 4    1  0.4880711E-008  0.9601275E+03  0.7818608E-02  0.9353391E-01
         -2   -1    0    0    0  501 -0.00000000000E+00  0.00000000000E+00  0.10713718337E+04  0.10713718337E+04  0.25500000000E-02 0.  1.
          2   -1    0    0  501    0  0.00000000000E+00 -0.00000000000E+00 -0.14099232913E+04  0.14099232913E+04  0.25500000000E-02 0. -1.
    8880022    1    1    2    0    0  0.40011539883E+03 -0.85927927796E+03 -0.94379148989E+03  0.13463236013E+04  0.15294330000E+03 0.  0.
    8880022    1    1    2    0    0 -0.40011539883E+03  0.85927927796E+03  0.60524003230E+03  0.11349715237E+04  0.15294330000E+03 0.  0.
<mgrwt>
<rscale>  0 0.96012752E+03</rscale>
<asrwt>0</asrwt>
<pdfrwt beam="1">  1        2 0.21691128E+00 0.96012752E+03</pdfrwt>
<pdfrwt beam="2">  1       -2 0.16482644E+00 0.96012752E+03</pdfrwt>
<totfact> 0.33055450E+00</totfact>
</mgrwt>
</event>
<event>
 4    1  0.4880711E-008  0.5441649E+03  0.7818608E-02  0.1002854E+00
         -2   -1    0    0    0  501 -0.00000000000E+00  0.00000000000E+00  0.32393504484E+03  0.32393504485E+03  0.25500000000E-02 0.  1.
          2   -1    0    0  501    0  0.00000000000E+00 -0.00000000000E+00 -0.11317329981E+04  0.11317329981E+04  0.25500000000E-02 0. -1.
    8880022    1    1    2    0    0 -0.62121820638E+02 -0.51852162916E+03 -0.84743036522E+02  0.55072391973E+03  0.15294330000E+03 0.  0.
    8880022    1    1    2    0    0  0.62121820638E+02  0.51852162916E+03 -0.72305491669E+03  0.90494412318E+03  0.15294330000E+03 0.  0.
<mgrwt>
<rscale>  0 0.54416491E+03</rscale>
<asrwt>0</asrwt>
<pdfrwt beam="1">  1        2 0.17411277E+00 0.54416491E+03</pdfrwt>
<pdfrwt beam="2">  1       -2 0.49836161E-01 0.54416491E+03</pdfrwt>
<totfact> 0.82192326E+01</totfact>
</mgrwt>
</event>
<event>
 4    1  0.4880711E-008  0.9195490E+03  0.7818608E-02  0.9401469E-01
          2   -1    0    0  501    0  0.00000000000E+00  0.00000000000E+00  0.11453359362E+04  0.11453359362E+04  0.25500000000E-02 0. -1.
         -2   -1    0    0    0  501 -0.00000000000E+00 -0.00000000000E+00 -0.93956070807E+03  0.93956070807E+03  0.25500000000E-02 0.  1.
    8880022    1    1    2    0    0 -0.60429385936E+03  0.67602343763E+03 -0.37961638349E+03  0.99482611964E+03  0.15294330000E+03 0.  0.
    8880022    1    1    2    0    0  0.60429385936E+03 -0.67602343763E+03  0.58539161160E+03  0.10900705246E+04  0.15294330000E+03 0.  0.
<mgrwt>
<rscale>  0 0.91954903E+03</rscale>
<asrwt>0</asrwt>
<pdfrwt beam="1">  1        2 0.17620553E+00 0.91954903E+03</pdfrwt>
<pdfrwt beam="2">  1       -2 0.14454780E+00 0.91954903E+03</pdfrwt>
<totfact> 0.67492281E+00</totfact>
</mgrwt>
</event>
<event>
 4    1  0.4880711E-008  0.7743202E+03  0.7818608E-02  0.9597950E-01
          2   -1    0    0  501    0  0.00000000000E+00  0.00000000000E+00  0.18947501877E+04  0.18947501877E+04  0.25500000000E-02 0. -1.
         -2   -1    0    0    0  501 -0.00000000000E+00 -0.00000000000E+00 -0.44652211892E+03  0.44652211893E+03  0.25500000000E-02 0.  1.
    8880022    1    1    2    0    0  0.72689941573E+03  0.21862610202E+03  0.92267138812E+02  0.77979805783E+03  0.15294330000E+03 0.  0.
    8880022    1    1    2    0    0 -0.72689941573E+03 -0.21862610202E+03  0.13559609300E+04  0.15614742488E+04  0.15294330000E+03 0.  0.
<mgrwt>
<rscale>  0 0.77432021E+03</rscale>
<asrwt>0</asrwt>
<pdfrwt beam="1">  1        2 0.29150002E+00 0.77432021E+03</pdfrwt>
<pdfrwt beam="2">  1       -2 0.68695712E-01 0.77432021E+03</pdfrwt>
<totfact> 0.15233678E+01</totfact>
</mgrwt>
</event>
<event>
 4    1  0.4880711E-008  0.2945362E+03  0.7818608E-02  0.1088004E+00
         -2   -1    0    0    0  501 -0.00000000000E+00  0.00000000000E+00  0.41615691544E+03  0.41615691545E+03  0.25500000000E-02 0.  1.
          2   -1    0    0  501    0  0.00000000000E+00 -0.00000000000E+00 -0.11098270395E+04  0.11098270395E+04  0.25500000000E-02 0. -1.
    8880022    1    1    2    0    0  0.23094009735E+03 -0.10013275675E+03  0.34077695551E+03  0.45042256155E+03  0.15294330000E+03 0.  0.
    8880022    1    1    2    0    0 -0.23094009735E+03  0.10013275675E+03 -0.10344470796E+04  0.10755613934E+04  0.15294330000E+03 0.  0.
<mgrwt>
<rscale>  0 0.29453616E+03</rscale>
<asrwt>0</asrwt>
<pdfrwt beam="1">  1        2 0.17074262E+00 0.29453616E+03</pdfrwt>
<pdfrwt beam="2">  1       -2 0.64024141E-01 0.29453616E+03</pdfrwt>
<totfact> 0.52513965E+01</totfact>
</mgrwt>
</event>
<event>
 4    1  0.4880711E-008  0.7452804E+03  0.7818608E-02  0.9642784E-01
          2   -1    0    0  501    0  0.00000000000E+00  0.00000000000E+00  0.81171107410E+03  0.81171107411E+03  0.25500000000E-02 0. -1.
         -2   -1    0    0    0  501 -0.00000000000E+00 -0.00000000000E+00 -0.20693592044E+04  0.20693592044E+04  0.25500000000E-02 0.  1.
    8880022    1    1    2    0    0  0.72043920297E+03 -0.11409875151E+03 -0.18073583496E+04  0.19549902882E+04  0.15294330000E+03 0.  0.
    8880022    1    1    2    0    0 -0.72043920297E+03  0.11409875151E+03  0.54971021925E+03  0.92607999030E+03  0.15294330000E+03 0.  0.
<mgrwt>
<rscale>  0 0.74528037E+03</rscale>
<asrwt>0</asrwt>
<pdfrwt beam="1">  1        2 0.12487863E+00 0.74528037E+03</pdfrwt>
<pdfrwt beam="2">  1       -2 0.31836295E+00 0.74528037E+03</pdfrwt>
<totfact> 0.86925884E-01</totfact>
</mgrwt>
</event>
<event>
 4    1  0.4880711E-008  0.1050725E+04  0.7818608E-02  0.9254595E-01
         -2   -1    0    0    0  501 -0.00000000000E+00  0.00000000000E+00  0.24404360475E+04  0.24404360475E+04  0.25500000000E-02 0.  1.
          2   -1    0    0  501    0  0.00000000000E+00 -0.00000000000E+00 -0.82710867533E+03  0.82710867534E+03  0.25500000000E-02 0. -1.
    8880022    1    1    2    0    0 -0.24952611917E+03  0.10091427567E+04  0.19063379750E+04  0.21767288567E+04  0.15294330000E+03 0.  0.
    8880022    1    1    2    0    0  0.24952611917E+03 -0.10091427567E+04 -0.29301060278E+03  0.10908158662E+04  0.15294330000E+03 0.  0.
<mgrwt>
<rscale>  0 0.10507255E+04</rscale>
<asrwt>0</asrwt>
<pdfrwt beam="1">  1        2 0.12724749E+00 0.10507255E+04</pdfrwt>
<pdfrwt beam="2">  1       -2 0.37545169E+00 0.10507255E+04</pdfrwt>
<totfact> 0.35538166E-01</totfact>
</mgrwt>
</event>
<event>
 4    1  0.4880711E-008  0.6454280E+03  0.7818608E-02  0.9815396E-01
          2   -1    0    0  501    0  0.00000000000E+00  0.00000000000E+00  0.30672261885E+04  0.30672261885E+04  0.25500000000E-02 0. -1.
         -2   -1    0    0    0  501 -0.00000000000E+00 -0.00000000000E+00 -0.27894339021E+03  0.27894339022E+03  0.25500000000E-02 0.  1.
    8880022    1    1    2    0    0 -0.49114249201E+03  0.38982655127E+03  0.25925966147E+04  0.26717287563E+04  0.15294330000E+03 0.  0.
    8880022    1    1    2    0    0  0.49114249201E+03 -0.38982655127E+03  0.19568618360E+03  0.67444082246E+03  0.15294330000E+03 0.  0.
<mgrwt>
<rscale>  0 0.64542803E+03</rscale>
<asrwt>0</asrwt>
<pdfrwt beam="1">  1        2 0.47188096E+00 0.64542803E+03</pdfrwt>
<pdfrwt beam="2">  1       -2 0.42914367E-01 0.64542803E+03</pdfrwt>
<totfact> 0.88486486E+00</totfact>
</mgrwt>
</event>
<event>
 4    1  0.4880711E-008  0.1185435E+04  0.7818608E-02  0.9125702E-01
          2   -1    0    0  501    0  0.00000000000E+00  0.00000000000E+00  0.12878651082E+04  0.12878651082E+04  0.25500000000E-02 0. -1.
         -2   -1    0    0    0  501 -0.00000000000E+00 -0.00000000000E+00 -0.17785515188E+04  0.17785515188E+04  0.25500000000E-02 0.  1.
    8880022    1    1    2    0    0 -0.11617996244E+04  0.17912564197E+03 -0.11985183147E+04  0.16857349040E+04  0.15294330000E+03 0.  0.
    8880022    1    1    2    0    0  0.11617996244E+04 -0.17912564197E+03  0.70783190408E+03  0.13806817231E+04  0.15294330000E+03 0.  0.
<mgrwt>
<rscale>  0 0.11854349E+04</rscale>
<asrwt>0</asrwt>
<pdfrwt beam="1">  1        2 0.19813309E+00 0.11854349E+04</pdfrwt>
<pdfrwt beam="2">  1       -2 0.27362331E+00 0.11854349E+04</pdfrwt>
<totfact> 0.75512781E-01</totfact>
</mgrwt>
</event>
<event>
 4    1  0.4880711E-008  0.6219161E+03  0.7818608E-02  0.9860952E-01
         -2   -1    0    0    0  501 -0.00000000000E+00  0.00000000000E+00  0.71428873510E+03  0.71428873510E+03  0.25500000000E-02 0.  1.
          2   -1    0    0  501    0  0.00000000000E+00 -0.00000000000E+00 -0.13302609695E+04  0.13302609695E+04  0.25500000000E-02 0. -1.
    8880022    1    1    2    0    0  0.75583080040E+02  0.59805955476E+03  0.47919544432E+03  0.78511652632E+03  0.15294330000E+03 0.  0.
    8880022    1    1    2    0    0 -0.75583080040E+02 -0.59805955476E+03 -0.10951676788E+04  0.12594331783E+04  0.15294330000E+03 0. -1.
<mgrwt>
<rscale>  0 0.62191614E+03</rscale>
<asrwt>0</asrwt>
<pdfrwt beam="1">  1        2 0.20465553E+00 0.62191614E+03</pdfrwt>
<pdfrwt beam="2">  1       -2 0.10989058E+00 0.62191614E+03</pdfrwt>
<totfact> 0.10877690E+01</totfact>
</mgrwt>
</event>
<event>
 4    1  0.4880711E-008  0.9786615E+03  0.7818608E-02  0.9332263E-01
          2   -1    0    0  501    0  0.00000000000E+00  0.00000000000E+00  0.12285493691E+04  0.12285493691E+04  0.25500000000E-02 0. -1.
         -2   -1    0    0    0  501 -0.00000000000E+00 -0.00000000000E+00 -0.11346579699E+04  0.11346579699E+04  0.25500000000E-02 0.  1.
    8880022    1    1    2    0    0  0.87106500521E+03 -0.41908516881E+03 -0.61403440724E+03  0.11553426021E+04  0.15294330000E+03 0.  0.
    8880022    1    1    2    0    0 -0.87106500521E+03  0.41908516881E+03  0.70792580646E+03  0.12078647368E+04  0.15294330000E+03 0.  0.
<mgrwt>
<rscale>  0 0.97866147E+03</rscale>
<asrwt>0</asrwt>
<pdfrwt beam="1">  1        2 0.18900759E+00 0.97866147E+03</pdfrwt>
<pdfrwt beam="2">  1       -2 0.17456277E+00 0.97866147E+03</pdfrwt>
<totfact> 0.35814796E+00</totfact>
</mgrwt>
</event>
<event>
 4    1  0.4880711E-008  0.6292023E+03  0.7818608E-02  0.9846607E-01
         -2   -1    0    0    0  501 -0.00000000000E+00  0.00000000000E+00  0.11135932365E+04  0.11135932365E+04  0.25500000000E-02 0.  1.
          2   -1    0    0  501    0  0.00000000000E+00 -0.00000000000E+00 -0.58794927226E+03  0.58794927226E+03  0.25500000000E-02 0. -1.
    8880022    1    1    2    0    0  0.10920639403E+03 -0.60048136646E+03  0.79775072002E+03  0.10160225255E+04  0.15294330000E+03 0.  0.
    8880022    1    1    2    0    0 -0.10920639403E+03  0.60048136646E+03 -0.27210675576E+03  0.68551998330E+03  0.15294330000E+03 0.  0.
<mgrwt>
<rscale>  0 0.62920232E+03</rscale>
<asrwt>0</asrwt>
<pdfrwt beam="1">  1        2 0.90453735E-01 0.62920232E+03</pdfrwt>
<pdfrwt beam="2">  1       -2 0.17132203E+00 0.62920232E+03</pdfrwt>
<totfact> 0.10924204E+01</totfact>
</mgrwt>
</event>
<event>
 4    1  0.4880711E-008  0.3086629E+03  0.7818608E-02  0.1080989E+00
         -2   -1    0    0    0  501 -0.00000000000E+00  0.00000000000E+00  0.98849418605E+02  0.98849418638E+02  0.25500000000E-02 0.  1.
          2   -1    0    0  501    0  0.00000000000E+00 -0.00000000000E+00 -0.19436381663E+04  0.19436381663E+04  0.25500000000E-02 0. -1.
    8880022    1    1    2    0    0 -0.26403084210E+03  0.46571206780E+02 -0.19729925520E+03  0.36633292508E+03  0.15294330000E+03 0.  0.
    8880022    1    1    2    0    0  0.26403084210E+03 -0.46571206780E+02 -0.16474894925E+04  0.16761546599E+04  0.15294330000E+03 0.  0.
<mgrwt>
<rscale>  0 0.30866295E+03</rscale>
<asrwt>0</asrwt>
<pdfrwt beam="1">  1        2 0.29902123E+00 0.30866295E+03</pdfrwt>
<pdfrwt beam="2">  1       -2 0.15207604E-01 0.30866295E+03</pdfrwt>
<totfact> 0.26529184E+02</totfact>
</mgrwt>
</event>
<event>
 4    1  0.4880711E-008  0.3376747E+03  0.7818608E-02  0.1067791E+00
         -2   -1    0    0    0  501 -0.00000000000E+00  0.00000000000E+00  0.33802036797E+04  0.33802036797E+04  0.25500000000E-02 0.  1.
          2   -1    0    0  501    0  0.00000000000E+00 -0.00000000000E+00 -0.41722870357E+03  0.41722870358E+03  0.25500000000E-02 0. -1.
    8880022    1    1    2    0    0  0.30103291673E+03  0.34220829349E+01 -0.33885562335E+03  0.47837988471E+03  0.15294330000E+03 0.  0.
    8880022    1    1    2    0    0 -0.30103291673E+03 -0.34220829349E+01  0.33018305995E+04  0.33190524986E+04  0.15294330000E+03 0.  0.
<mgrwt>
<rscale>  0 0.33767467E+03</rscale>
<asrwt>0</asrwt>
<pdfrwt beam="1">  1        2 0.64189032E-01 0.33767467E+03</pdfrwt>
<pdfrwt beam="2">  1       -2 0.52003133E+00 0.33767467E+03</pdfrwt>
<totfact> 0.11214319E-01</totfact>
</mgrwt>
</event>
<event>
 4    1  0.4880711E-008  0.4540738E+03  0.7818608E-02  0.1026514E+00
          2   -1    0    0  501    0  0.00000000000E+00  0.00000000000E+00  0.16326804225E+04  0.16326804225E+04  0.25500000000E-02 0. -1.
         -2   -1    0    0    0  501 -0.00000000000E+00 -0.00000000000E+00 -0.17333300400E+03  0.17333300402E+03  0.25500000000E-02 0.  1.
    8880022    1    1    2    0    0  0.21333578660E+03 -0.37051210950E+03  0.25921557098E+03  0.52285346550E+03  0.15294330000E+03 0.  0.
    8880022    1    1    2    0    0 -0.21333578660E+03  0.37051210950E+03  0.12001318475E+04  0.12831599610E+04  0.15294330000E+03 0.  0.
<mgrwt>
<rscale>  0 0.45407382E+03</rscale>
<asrwt>0</asrwt>
<pdfrwt beam="1">  1        2 0.25118160E+00 0.45407382E+03</pdfrwt>
<pdfrwt beam="2">  1       -2 0.26666616E-01 0.45407382E+03</pdfrwt>
<totfact> 0.14339085E+02</totfact>
</mgrwt>
</event>
<event>
 4    1  0.4880711E-008  0.5516537E+03  0.7818608E-02  0.1001112E+00
         -2   -1    0    0    0  501 -0.00000000000E+00  0.00000000000E+00  0.50678459871E+03  0.50678459871E+03  0.25500000000E-02 0.  1.
          2   -1    0    0  501    0  0.00000000000E+00 -0.00000000000E+00 -0.17883173858E+04  0.17883173858E+04  0.25500000000E-02 0. -1.
    8880022    1    1    2    0    0 -0.15938258759E+03  0.50549716213E+03  0.29447854170E+03  0.62533147584E+03  0.15294330000E+03 0.  0.
    8880022    1    1    2    0    0  0.15938258759E+03 -0.50549716213E+03 -0.15760113288E+04  0.16697705087E+04  0.15294330000E+03 0.  0.
<mgrwt>
<rscale>  0 0.55165373E+03</rscale>
<asrwt>0</asrwt>
<pdfrwt beam="1">  1        2 0.27512575E+00 0.55165373E+03</pdfrwt>
<pdfrwt beam="2">  1       -2 0.77966862E-01 0.55165373E+03</pdfrwt>
<totfact> 0.13649950E+01</totfact>
</mgrwt>
</event>
<event>
 4    1  0.4880711E-008  0.1131954E+04  0.7818608E-02  0.9174595E-01
         -2   -1    0    0    0  501 -0.00000000000E+00  0.00000000000E+00  0.98795726808E+03  0.98795726808E+03  0.25500000000E-02 0.  1.
          2   -1    0    0  501    0  0.00000000000E+00 -0.00000000000E+00 -0.16877153184E+04  0.16877153184E+04  0.25500000000E-02 0. -1.
    8880022    1    1    2    0    0 -0.10042570609E+04 -0.49939551288E+03  0.29387179765E+03  0.11694786911E+04  0.15294330000E+03 0.  0.
    8880022    1    1    2    0    0  0.10042570609E+04  0.49939551288E+03 -0.99362984796E+03  0.15061938953E+04  0.15294330000E+03 0.  0.
<mgrwt>
<rscale>  0 0.11319540E+04</rscale>
<asrwt>0</asrwt>
<pdfrwt beam="1">  1        2 0.25964851E+00 0.11319540E+04</pdfrwt>
<pdfrwt beam="2">  1       -2 0.15199343E+00 0.11319540E+04</pdfrwt>
<totfact> 0.28215342E+00</totfact>
</mgrwt>
</event>
<event>
 4    1  0.4880711E-008  0.1741270E+03  0.7818608E-02  0.1173611E+00
         -2   -1    0    0    0  501 -0.00000000000E+00  0.00000000000E+00  0.40226367355E+03  0.40226367356E+03  0.25500000000E-02 0.  1.
          2   -1    0    0  501    0  0.00000000000E+00 -0.00000000000E+00 -0.22866623044E+03  0.22866623045E+03  0.25500000000E-02 0. -1.
    8880022    1    1    2    0    0 -0.81370679185E+02 -0.17532287080E+02  0.34509025694E+03  0.38653267258E+03  0.15294330000E+03 0.  0.
    8880022    1    1    2    0    0  0.81370679185E+02  0.17532287080E+02 -0.17149281383E+03  0.24439723143E+03  0.15294330000E+03 0. -1.
<mgrwt>
<rscale>  0 0.17412703E+03</rscale>
<asrwt>0</asrwt>
<pdfrwt beam="1">  1        2 0.35179421E-01 0.17412703E+03</pdfrwt>
<pdfrwt beam="2">  1       -2 0.61886718E-01 0.17412703E+03</pdfrwt>
<totfact> 0.36643951E+02</totfact>
</mgrwt>
</event>
<event>
 4    1  0.4880711E-008  0.4029616E+03  0.7818608E-02  0.1042759E+00
         -2   -1    0    0    0  501 -0.00000000000E+00  0.00000000000E+00  0.46474038279E+03  0.46474038280E+03  0.25500000000E-02 0.  1.
          2   -1    0    0  501    0  0.00000000000E+00 -0.00000000000E+00 -0.65531679119E+03  0.65531679120E+03  0.25500000000E-02 0. -1.
    8880022    1    1    2    0    0  0.22317069231E+03 -0.29863225333E+03 -0.47792757334E+03  0.62513422479E+03  0.15294330000E+03 0.  0.
    8880022    1    1    2    0    0 -0.22317069231E+03  0.29863225333E+03  0.28735116494E+03  0.49492294920E+03  0.15294330000E+03 0.  1.
<mgrwt>
<rscale>  0 0.40296158E+03</rscale>
<asrwt>0</asrwt>
<pdfrwt beam="1">  1        2 0.10081797E+00 0.40296158E+03</pdfrwt>
<pdfrwt beam="2">  1       -2 0.71498520E-01 0.40296158E+03</pdfrwt>
<totfact> 0.82333081E+01</totfact>
</mgrwt>
</event>
<event>
 4    1  0.4880711E-008  0.8587233E+03  0.7818608E-02  0.9478703E-01
          2   -1    0    0  501    0  0.00000000000E+00  0.00000000000E+00  0.24255744280E+04  0.24255744280E+04  0.25500000000E-02 0. -1.
         -2   -1    0    0    0  501 -0.00000000000E+00 -0.00000000000E+00 -0.72190423281E+03  0.72190423282E+03  0.25500000000E-02 0.  1.
    8880022    1    1    2    0    0  0.80115153546E+03  0.26864515225E+03  0.20491950895E+04  0.22218474675E+04  0.15294330000E+03 0.  0.
    8880022    1    1    2    0    0 -0.80115153546E+03 -0.26864515225E+03 -0.34552489432E+03  0.92563119341E+03  0.15294330000E+03 0.  0.
<mgrwt>
<rscale>  0 0.85872327E+03</rscale>
<asrwt>0</asrwt>
<pdfrwt beam="1">  1        2 0.37316529E+00 0.85872327E+03</pdfrwt>
<pdfrwt beam="2">  1       -2 0.11106219E+00 0.85872327E+03</pdfrwt>
<totfact> 0.25365405E+00</totfact>
</mgrwt>
</event>
<event>
 4    1  0.4880711E-008  0.6486954E+03  0.7818608E-02  0.9809230E-01
         -2   -1    0    0    0  501 -0.00000000000E+00  0.00000000000E+00  0.54774709479E+03  0.54774709479E+03  0.25500000000E-02 0.  1.
          2   -1    0    0  501    0  0.00000000000E+00 -0.00000000000E+00 -0.81832860490E+03  0.81832860491E+03  0.25500000000E-02 0. -1.
    8880022    1    1    2    0    0 -0.92962471962E+02  0.62351591515E+03  0.33681117151E+02  0.64956923288E+03  0.15294330000E+03 0.  1.
    8880022    1    1    2    0    0  0.92962471962E+02 -0.62351591515E+03 -0.30426262727E+03  0.71650646682E+03  0.15294330000E+03 0.  0.
<mgrwt>
<rscale>  0 0.64869544E+03</rscale>
<asrwt>0</asrwt>
<pdfrwt beam="1">  1        2 0.12589671E+00 0.64869544E+03</pdfrwt>
<pdfrwt beam="2">  1       -2 0.84268784E-01 0.64869544E+03</pdfrwt>
<totfact> 0.42018706E+01</totfact>
</mgrwt>
</event>
<event>
 4    1  0.4880711E-008  0.3336937E+03  0.7818608E-02  0.1069514E+00
         -2   -1    0    0    0  501 -0.00000000000E+00  0.00000000000E+00  0.17575444612E+03  0.17575444614E+03  0.25500000000E-02 0.  1.
          2   -1    0    0  501    0  0.00000000000E+00 -0.00000000000E+00 -0.79223951631E+03  0.79223951631E+03  0.25500000000E-02 0. -1.
    8880022    1    1    2    0    0 -0.38502579533E+02 -0.29407042061E+03 -0.91636410226E+02  0.34604731700E+03  0.15294330000E+03 0.  0.
    8880022    1    1    2    0    0  0.38502579533E+02  0.29407042061E+03 -0.52484865997E+03  0.62194664545E+03  0.15294330000E+03 0.  0.
<mgrwt>
<rscale>  0 0.33369374E+03</rscale>
<asrwt>0</asrwt>
<pdfrwt beam="1">  1        2 0.12188300E+00 0.33369374E+03</pdfrwt>
<pdfrwt beam="2">  1       -2 0.27039146E-01 0.33369374E+03</pdfrwt>
<totfact> 0.44449667E+02</totfact>
</mgrwt>
</event>
<event>
 4    1  0.4880711E-008  0.5713447E+03  0.7818608E-02  0.9966707E-01
          2   -1    0    0  501    0  0.00000000000E+00  0.00000000000E+00  0.19519677159E+04  0.19519677159E+04  0.25500000000E-02 0. -1.
         -2   -1    0    0    0  501 -0.00000000000E+00 -0.00000000000E+00 -0.40267495304E+03  0.40267495305E+03  0.25500000000E-02 0.  1.
    8880022    1    1    2    0    0 -0.26930911385E+03 -0.48012047925E+03 -0.12559508404E+03  0.58498619774E+03  0.15294330000E+03 0.  0.
    8880022    1    1    2    0    0  0.26930911385E+03  0.48012047925E+03  0.16748878469E+04  0.17696564713E+04  0.15294330000E+03 0.  0.
<mgrwt>
<rscale>  0 0.57134467E+03</rscale>
<asrwt>0</asrwt>
<pdfrwt beam="1">  1        2 0.30030273E+00 0.57134467E+03</pdfrwt>
<pdfrwt beam="2">  1       -2 0.61949993E-01 0.57134467E+03</pdfrwt>
<totfact> 0.18280199E+01</totfact>
</mgrwt>
</event>
<event>
 4    1  0.4880711E-008  0.4624362E+03  0.7818608E-02  0.1024077E+00
          2   -1    0    0  501    0  0.00000000000E+00  0.00000000000E+00  0.74844885713E+03  0.74844885714E+03  0.25500000000E-02 0. -1.
         -2   -1    0    0    0  501 -0.00000000000E+00 -0.00000000000E+00 -0.82583705117E+03  0.82583705117E+03  0.25500000000E-02 0.  1.
    8880022    1    1    2    0    0  0.41098639516E+03  0.14678473789E+03 -0.67526993135E+03  0.81843552555E+03  0.15294330000E+03 0.  0.
    8880022    1    1    2    0    0 -0.41098639516E+03 -0.14678473789E+03  0.59788173732E+03  0.75585038276E+03  0.15294330000E+03 0.  0.
<mgrwt>
<rscale>  0 0.46243619E+03</rscale>
<asrwt>0</asrwt>
<pdfrwt beam="1">  1        2 0.11514598E+00 0.46243619E+03</pdfrwt>
<pdfrwt beam="2">  1       -2 0.12705185E+00 0.46243619E+03</pdfrwt>
<totfact> 0.18193203E+01</totfact>
</mgrwt>
</event>
<event>
 4    1  0.4880711E-008  0.2772118E+03  0.7818608E-02  0.1097222E+00
         -2   -1    0    0    0  501 -0.00000000000E+00  0.00000000000E+00  0.53017702860E+02  0.53017702921E+02  0.25500000000E-02 0.  1.
          2   -1    0    0  501    0  0.00000000000E+00 -0.00000000000E+00 -0.17570535677E+04  0.17570535677E+04  0.25500000000E-02 0. -1.
    8880022    1    1    2    0    0  0.11917623165E+03  0.19812060957E+03 -0.47333975487E+03  0.54854072472E+03  0.15294330000E+03 0.  0.
    8880022    1    1    2    0    0 -0.11917623165E+03 -0.19812060957E+03 -0.12306961100E+04  0.12615305459E+04  0.15294330000E+03 0.  1.
<mgrwt>
<rscale>  0 0.27721184E+03</rscale>
<asrwt>0</asrwt>
<pdfrwt beam="1">  1        2 0.27031589E+00 0.27721184E+03</pdfrwt>
<pdfrwt beam="2">  1       -2 0.81565710E-02 0.27721184E+03</pdfrwt>
<totfact> 0.91463245E+02</totfact>
</mgrwt>
</event>
<event>
 4    1  0.4880711E-008  0.4138703E+03  0.7818608E-02  0.1039080E+00
         -2   -1    0    0    0  501 -0.00000000000E+00  0.00000000000E+00  0.16524806696E+03  0.16524806698E+03  0.25500000000E-02 0.  1.
          2   -1    0    0  501    0  0.00000000000E+00 -0.00000000000E+00 -0.16307540610E+04  0.16307540610E+04  0.25500000000E-02 0. -1.
    8880022    1    1    2    0    0  0.21791694381E+02  0.38395588496E+03 -0.12748146993E+04  0.13403138327E+04  0.15294330000E+03 0.  0.
    8880022    1    1    2    0    0 -0.21791694381E+02 -0.38395588496E+03 -0.19069129471E+03  0.45568829525E+03  0.15294330000E+03 0.  0.
<mgrwt>
<rscale>  0 0.41387033E+03</rscale>
<asrwt>0</asrwt>
<pdfrwt beam="1">  1        2 0.25088523E+00 0.41387033E+03</pdfrwt>
<pdfrwt beam="2">  1       -2 0.25422781E-01 0.41387033E+03</pdfrwt>
<totfact> 0.15755793E+02</totfact>
</mgrwt>
</event>
<event>
 4    1  0.5779236E-008  0.8955490E+03  0.7818608E-02  0.9431163E-01
         -2   -1    0    0    0  501 -0.00000000000E+00  0.00000000000E+00  0.13576324251E+04  0.13576324251E+04  0.25500000000E-02 0.  1.
          2   -1    0    0  501    0  0.00000000000E+00 -0.00000000000E+00 -0.11881402812E+04  0.11881402812E+04  0.25500000000E-02 0. -1.
    8880022    1    1    2    0    0 -0.53195481571E+03 -0.70401735929E+03  0.98733170611E+03  0.13329785891E+04  0.15294330000E+03 0.  0.
    8880022    1    1    2    0    0  0.53195481571E+03  0.70401735929E+03 -0.81783956227E+03  0.12127941172E+04  0.15294330000E+03 0. -1.
<mgrwt>
<rscale>  0 0.89554901E+03</rscale>
<asrwt>0</asrwt>
<pdfrwt beam="1">  1        2 0.18279081E+00 0.89554901E+03</pdfrwt>
<pdfrwt beam="2">  1       -2 0.20886653E+00 0.89554901E+03</pdfrwt>
<totfact> 0.22560545E+00</totfact>
</mgrwt>
</event>
<event>
 4    1  0.4881644E-008  0.6151582E+03  0.7818608E-02  0.9874447E-01
         -2   -1    0    0    0  501 -0.00000000000E+00  0.00000000000E+00  0.68850769894E+03  0.68850769895E+03  0.25500000000E-02 0.  1.
          2   -1    0    0  501    0  0.00000000000E+00 -0.00000000000E+00 -0.16625861743E+04  0.16625861743E+04  0.25500000000E-02 0. -1.
    8880022    1    1    2    0    0  0.19953024506E+03  0.56144070737E+03  0.47476856693E+03  0.77706166534E+03  0.15294330000E+03 0.  0.
    8880022    1    1    2    0    0 -0.19953024506E+03 -0.56144070737E+03 -0.14488470423E+04  0.15740322079E+04  0.15294330000E+03 0.  0.
<mgrwt>
<rscale>  0 0.61515822E+03</rscale>
<asrwt>0</asrwt>
<pdfrwt beam="1">  1        2 0.25578249E+00 0.61515822E+03</pdfrwt>
<pdfrwt beam="2">  1       -2 0.10592426E+00 0.61515822E+03</pdfrwt>
<totfact> 0.77821588E+00</totfact>
</mgrwt>
</event>
<event>
 4    1  0.5324378E-008  0.7250342E+03  0.7818608E-02  0.9675353E-01
         -2   -1    0    0    0  501 -0.00000000000E+00  0.00000000000E+00  0.12222371560E+04  0.12222371560E+04  0.25500000000E-02 0.  1.
          2   -1    0    0  501    0  0.00000000000E+00 -0.00000000000E+00 -0.11619269301E+04  0.11619269301E+04  0.25500000000E-02 0. -1.
    8880022    1    1    2    0    0 -0.70078116966E+03 -0.10577661796E+03 -0.91591486916E+03  0.11681500936E+04  0.15294330000E+03 0.  0.
    8880022    1    1    2    0    0  0.70078116966E+03  0.10577661796E+03  0.97622509510E+03  0.12160139925E+04  0.15294330000E+03 0.  0.
<mgrwt>
<rscale>  0 0.72503420E+03</rscale>
<asrwt>0</asrwt>
<pdfrwt beam="1">  1        2 0.17875799E+00 0.72503420E+03</pdfrwt>
<pdfrwt beam="2">  1       -2 0.18803648E+00 0.72503420E+03</pdfrwt>
<totfact> 0.32820345E+00</totfact>
</mgrwt>
</event>
<event>
 4    1  0.4880711E-008  0.6186497E+03  0.7818608E-02  0.9867452E-01
          2   -1    0    0  501    0  0.00000000000E+00  0.00000000000E+00  0.18817005419E+04  0.18817005419E+04  0.25500000000E-02 0. -1.
         -2   -1    0    0    0  501 -0.00000000000E+00 -0.00000000000E+00 -0.28785367577E+03  0.28785367578E+03  0.25500000000E-02 0.  1.
    8880022    1    1    2    0    0 -0.15255131869E+03 -0.57971020914E+03  0.20932839623E+03  0.65310478631E+03  0.15294330000E+03 0.  1.
    8880022    1    1    2    0    0  0.15255131869E+03  0.57971020914E+03  0.13845184699E+04  0.15164494314E+04  0.15294330000E+03 0.  0.
<mgrwt>
<rscale>  0 0.61864973E+03</rscale>
<asrwt>0</asrwt>
<pdfrwt beam="1">  1        2 0.28949240E+00 0.61864973E+03</pdfrwt>
<pdfrwt beam="2">  1       -2 0.44285180E-01 0.61864973E+03</pdfrwt>
<totfact> 0.39369335E+01</totfact>
</mgrwt>
</event>
<event>
 4    1  0.4880711E-008  0.5988753E+03  0.7818608E-02  0.9907742E-01
         -2   -1    0    0    0  501 -0.00000000000E+00  0.00000000000E+00  0.99114951582E+03  0.99114951582E+03  0.25500000000E-02 0.  1.
          2   -1    0    0  501    0  0.00000000000E+00 -0.00000000000E+00 -0.63455718235E+03  0.63455718236E+03  0.25500000000E-02 0. -1.
    8880022    1    1    2    0    0  0.12695286139E+03 -0.56492733177E+03 -0.35457447743E+03  0.69597028116E+03  0.15294330000E+03 0.  0.
    8880022    1    1    2    0    0 -0.12695286139E+03  0.56492733177E+03  0.71116681090E+03  0.92973641702E+03  0.15294330000E+03 0.  0.
<mgrwt>
<rscale>  0 0.59887526E+03</rscale>
<asrwt>0</asrwt>
<pdfrwt beam="1">  1        2 0.97624182E-01 0.59887526E+03</pdfrwt>
<pdfrwt beam="2">  1       -2 0.15248454E+00 0.59887526E+03</pdfrwt>
<totfact> 0.13713179E+01</totfact>
</mgrwt>
</event>
<event>
 4    1  0.4880711E-008  0.1750993E+03  0.7818608E-02  0.1172632E+00
         -2   -1    0    0    0  501 -0.00000000000E+00  0.00000000000E+00  0.22640396073E+03  0.22640396074E+03  0.25500000000E-02 0.  1.
          2   -1    0    0  501    0  0.00000000000E+00 -0.00000000000E+00 -0.34466922745E+03  0.34466922746E+03  0.25500000000E-02 0. -1.
    8880022    1    1    2    0    0  0.83449906943E+02  0.17441897176E+02 -0.28161307122E+03  0.33161073813E+03  0.15294330000E+03 0.  0.
    8880022    1    1    2    0    0 -0.83449906943E+02 -0.17441897176E+02  0.16334780450E+03  0.23946245007E+03  0.15294330000E+03 0.  0.
<mgrwt>
<rscale>  0 0.17509929E+03</rscale>
<asrwt>0</asrwt>
<pdfrwt beam="1">  1        2 0.53026035E-01 0.17509929E+03</pdfrwt>
<pdfrwt beam="2">  1       -2 0.34831379E-01 0.17509929E+03</pdfrwt>
<totfact> 0.72860635E+02</totfact>
</mgrwt>
</event>
<event>
 4    1  0.4880711E-008  0.6868507E+03  0.7818608E-02  0.9739987E-01
         -2   -1    0    0    0  501 -0.00000000000E+00  0.00000000000E+00  0.89637584857E+03  0.89637584858E+03  0.25500000000E-02 0.  1.
          2   -1    0    0  501    0  0.00000000000E+00 -0.00000000000E+00 -0.89082557833E+03  0.89082557833E+03  0.25500000000E-02 0. -1.
    8880022    1    1    2    0    0  0.66074509121E+03  0.10857336903E+03 -0.56884867480E+03  0.89182549854E+03  0.15294330000E+03 0.  0.
    8880022    1    1    2    0    0 -0.66074509121E+03 -0.10857336903E+03  0.57439894504E+03  0.89537592837E+03  0.15294330000E+03 0.  0.
<mgrwt>
<rscale>  0 0.68685072E+03</rscale>
<asrwt>0</asrwt>
<pdfrwt beam="1">  1        2 0.13705009E+00 0.68685072E+03</pdfrwt>
<pdfrwt beam="2">  1       -2 0.13790398E+00 0.68685072E+03</pdfrwt>
<totfact> 0.11376517E+01</totfact>
</mgrwt>
</event>
<event>
 4    1  0.4880711E-008  0.5990031E+03  0.7818608E-02  0.9907477E-01
         -2   -1    0    0    0  501 -0.00000000000E+00  0.00000000000E+00  0.25380880167E+03  0.25380880168E+03  0.25500000000E-02 0.  1.
          2   -1    0    0  501    0  0.00000000000E+00 -0.00000000000E+00 -0.21964700559E+04  0.21964700559E+04  0.25500000000E-02 0. -1.
    8880022    1    1    2    0    0  0.57587227326E+03 -0.61515345680E+02 -0.23994695237E+03  0.64527451974E+03  0.15294330000E+03 0.  0.
    8880022    1    1    2    0    0 -0.57587227326E+03  0.61515345680E+02 -0.17027143019E+04  0.18050043379E+04  0.15294330000E+03 0. -1.
<mgrwt>
<rscale>  0 0.59900306E+03</rscale>
<asrwt>0</asrwt>
<pdfrwt beam="1">  1        2 0.33791846E+00 0.59900306E+03</pdfrwt>
<pdfrwt beam="2">  1       -2 0.39047509E-01 0.59900306E+03</pdfrwt>
<totfact> 0.34082798E+01</totfact>
</mgrwt>
</event>
<event>
 4    1  0.4880711E-008  0.2801640E+03  0.7818608E-02  0.1095599E+00
          2   -1    0    0  501    0  0.00000000000E+00  0.00000000000E+00  0.15638373196E+04  0.15638373196E+04  0.25500000000E-02 0. -1.
         -2   -1    0    0    0  501 -0.00000000000E+00 -0.00000000000E+00 -0.68336378349E+02  0.68336378396E+02  0.25500000000E-02 0.  1.
    8880022    1    1    2    0    0 -0.21652654493E+03  0.90644620060E+02  0.32723345475E+03  0.43078251906E+03  0.15294330000E+03 0.  0.
    8880022    1    1    2    0    0  0.21652654493E+03 -0.90644620060E+02  0.11682674865E+04  0.12013911789E+04  0.15294330000E+03 0.  0.
<mgrwt>
<rscale>  0 0.28016396E+03</rscale>
<asrwt>0</asrwt>
<pdfrwt beam="1">  1        2 0.24059038E+00 0.28016396E+03</pdfrwt>
<pdfrwt beam="2">  1       -2 0.10513288E-01 0.28016396E+03</pdfrwt>
<totfact> 0.77338041E+02</totfact>
</mgrwt>
</event>
<event>
 4    1  0.4880711E-008  0.2353723E+03  0.7818608E-02  0.1122915E+00
         -2   -1    0    0    0  501 -0.00000000000E+00  0.00000000000E+00  0.76826389382E+02  0.76826389424E+02  0.25500000000E-02 0.  1.
          2   -1    0    0  501    0  0.00000000000E+00 -0.00000000000E+00 -0.28956461270E+04  0.28956461270E+04  0.25500000000E-02 0. -1.
    8880022    1    1    2    0    0 -0.13575415982E+03 -0.11653021025E+03 -0.26973586971E+04  0.27076085529E+04  0.15294330000E+03 0. -1.
    8880022    1    1    2    0    0  0.13575415982E+03  0.11653021025E+03 -0.12146104054E+03  0.26486396356E+03  0.15294330000E+03 0.  0.
<mgrwt>
<rscale>  0 0.23537233E+03</rscale>
<asrwt>0</asrwt>
<pdfrwt beam="1">  1        2 0.44548394E+00 0.23537233E+03</pdfrwt>
<pdfrwt beam="2">  1       -2 0.11819447E-01 0.23537233E+03</pdfrwt>
<totfact> 0.12361388E+02</totfact>
</mgrwt>
</event>
<event>
 4    1  0.4880711E-008  0.8076350E+03  0.7818608E-02  0.9549031E-01
          2   -1    0    0  501    0  0.00000000000E+00  0.00000000000E+00  0.10131504648E+04  0.10131504648E+04  0.25500000000E-02 0. -1.
         -2   -1    0    0    0  501 -0.00000000000E+00 -0.00000000000E+00 -0.77167529944E+03  0.77167529944E+03  0.25500000000E-02 0.  1.
    8880022    1    1    2    0    0 -0.51909697460E+03  0.59951727706E+03  0.48400665366E+03  0.94156079375E+03  0.15294330000E+03 0.  0.
    8880022    1    1    2    0    0  0.51909697460E+03 -0.59951727706E+03 -0.24253148834E+03  0.84326497045E+03  0.15294330000E+03 0.  0.
<mgrwt>
<rscale>  0 0.80763500E+03</rscale>
<asrwt>0</asrwt>
<pdfrwt beam="1">  1        2 0.15586930E+00 0.80763500E+03</pdfrwt>
<pdfrwt beam="2">  1       -2 0.11871928E+00 0.80763500E+03</pdfrwt>
<totfact> 0.13616535E+01</totfact>
</mgrwt>
</event>
<event>
 4    1  0.4880711E-008  0.4613793E+03  0.7818608E-02  0.1024382E+00
          2   -1    0    0  501    0  0.00000000000E+00  0.00000000000E+00  0.12091905344E+04  0.12091905344E+04  0.25500000000E-02 0. -1.
         -2   -1    0    0    0  501 -0.00000000000E+00 -0.00000000000E+00 -0.22244748027E+03  0.22244748028E+03  0.25500000000E-02 0.  1.
    8880022    1    1    2    0    0  0.43069360439E+03 -0.63104851804E+02  0.82030869939E+03  0.94115738243E+03  0.15294330000E+03 0.  0.
    8880022    1    1    2    0    0 -0.43069360439E+03  0.63104851804E+02  0.16643435477E+03  0.49048063228E+03  0.15294330000E+03 0.  0.
<mgrwt>
<rscale>  0 0.46137930E+03</rscale>
<asrwt>0</asrwt>
<pdfrwt beam="1">  1        2 0.18602931E+00 0.46137930E+03</pdfrwt>
<pdfrwt beam="2">  1       -2 0.34222690E-01 0.46137930E+03</pdfrwt>
<totfact> 0.15549780E+02</totfact>
</mgrwt>
</event>
<event>
 4    1  0.4880711E-008  0.1051935E+04  0.7818608E-02  0.9253348E-01
         -2   -1    0    0    0  501 -0.00000000000E+00  0.00000000000E+00  0.93315070502E+03  0.93315070503E+03  0.25500000000E-02 0.  1.
          2   -1    0    0  501    0  0.00000000000E+00 -0.00000000000E+00 -0.14449946632E+04  0.14449946632E+04  0.25500000000E-02 0. -1.
    8880022    1    1    2    0    0 -0.10066928143E+04  0.26409356171E+03 -0.75948606362E+03  0.12974538780E+04  0.15294330000E+03 0.  0.
    8880022    1    1    2    0    0  0.10066928143E+04 -0.26409356171E+03  0.24764210540E+03  0.10806914903E+04  0.15294330000E+03 0.  0.
<mgrwt>
<rscale>  0 0.10519351E+04</rscale>
<asrwt>0</asrwt>
<pdfrwt beam="1">  1        2 0.22230687E+00 0.10519351E+04</pdfrwt>
<pdfrwt beam="2">  1       -2 0.14356165E+00 0.10519351E+04</pdfrwt>
<totfact> 0.45277379E+00</totfact>
</mgrwt>
</event>
<event>
 4    1  0.4880711E-008  0.1033964E+04  0.7818608E-02  0.9272059E-01
          2   -1    0    0  501    0  0.00000000000E+00  0.00000000000E+00  0.10448376615E+04  0.10448376615E+04  0.25500000000E-02 0. -1.
         -2   -1    0    0    0  501 -0.00000000000E+00 -0.00000000000E+00 -0.15676162915E+04  0.15676162915E+04  0.25500000000E-02 0.  1.
    8880022    1    1    2    0    0  0.60215750486E+03 -0.82649606457E+03  0.50838446379E+03  0.11521874073E+04  0.15294330000E+03 0.  0.
    8880022    1    1    2    0    0 -0.60215750486E+03  0.82649606457E+03 -0.10311630938E+04  0.14602665457E+04  0.15294330000E+03 0.  0.
<mgrwt>
<rscale>  0 0.10339638E+04</rscale>
<asrwt>0</asrwt>
<pdfrwt beam="1">  1        2 0.16074426E+00 0.10339638E+04</pdfrwt>
<pdfrwt beam="2">  1       -2 0.24117174E+00 0.10339638E+04</pdfrwt>
<totfact> 0.17035749E+00</totfact>
</mgrwt>
</event>
<event>
 4    1  0.4880711E-008  0.4458756E+03  0.7818608E-02  0.1028959E+00
         -2   -1    0    0    0  501 -0.00000000000E+00  0.00000000000E+00  0.64183035361E+03  0.64183035361E+03  0.25500000000E-02 0.  1.
          2   -1    0    0  501    0  0.00000000000E+00 -0.00000000000E+00 -0.42970601470E+03  0.42970601470E+03  0.25500000000E-02 0. -1.
    8880022    1    1    2    0    0 -0.39375984728E+03  0.14271161269E+03 -0.17701673931E+03  0.47972909098E+03  0.15294330000E+03 0. -1.
    8880022    1    1    2    0    0  0.39375984728E+03 -0.14271161269E+03  0.38914107822E+03  0.59180727733E+03  0.15294330000E+03 0.  0.
<mgrwt>
<rscale>  0 0.44587563E+03</rscale>
<asrwt>0</asrwt>
<pdfrwt beam="1">  1        2 0.66108617E-01 0.44587563E+03</pdfrwt>
<pdfrwt beam="2">  1       -2 0.98743132E-01 0.44587563E+03</pdfrwt>
<totfact> 0.64536134E+01</totfact>
</mgrwt>
</event>
<event>
 4    1  0.4880711E-008  0.5870642E+03  0.7818608E-02  0.9932613E-01
         -2   -1    0    0    0  501 -0.00000000000E+00  0.00000000000E+00  0.19556049664E+04  0.19556049664E+04  0.25500000000E-02 0.  1.
          2   -1    0    0  501    0  0.00000000000E+00 -0.00000000000E+00 -0.55037304012E+03  0.55037304012E+03  0.25500000000E-02 0. -1.
    8880022    1    1    2    0    0 -0.31078768233E+03 -0.47398707048E+03  0.17356987136E+04  0.18322921175E+04  0.15294330000E+03 0.  0.
    8880022    1    1    2    0    0  0.31078768233E+03  0.47398707048E+03 -0.33046678735E+03  0.67368588899E+03  0.15294330000E+03 0.  0.
<mgrwt>
<rscale>  0 0.58706420E+03</rscale>
<asrwt>0</asrwt>
<pdfrwt beam="1">  1        2 0.84672778E-01 0.58706420E+03</pdfrwt>
<pdfrwt beam="2">  1       -2 0.30086229E+00 0.58706420E+03</pdfrwt>
<totfact> 0.18544356E+00</totfact>
</mgrwt>
</event>
<event>
 4    1  0.4880711E-008  0.2244600E+03  0.7818608E-02  0.1130601E+00
         -2   -1    0    0    0  501 -0.00000000000E+00  0.00000000000E+00  0.18535452224E+03  0.18535452226E+03  0.25500000000E-02 0.  1.
          2   -1    0    0  501    0  0.00000000000E+00 -0.00000000000E+00 -0.27423292372E+04  0.27423292372E+04  0.25500000000E-02 0. -1.
    8880022    1    1    2    0    0 -0.43787161821E+02  0.15834554180E+03 -0.26678895672E+04  0.26773152638E+04  0.15294330000E+03 0. -1.
    8880022    1    1    2    0    0  0.43787161821E+02 -0.15834554180E+03  0.11091485223E+03  0.25036849564E+03  0.15294330000E+03 0.  0.
<mgrwt>
<rscale>  0 0.22445997E+03</rscale>
<asrwt>0</asrwt>
<pdfrwt beam="1">  1        2 0.42189678E+00 0.22445997E+03</pdfrwt>
<pdfrwt beam="2">  1       -2 0.28516082E-01 0.22445997E+03</pdfrwt>
<totfact> 0.34068517E+01</totfact>
</mgrwt>
</event>
<event>
 4    1  0.4880711E-008  0.8317111E+03  0.7818608E-02  0.9515218E-01
         -2   -1    0    0    0  501 -0.00000000000E+00  0.00000000000E+00  0.11924994287E+04  0.11924994287E+04  0.25500000000E-02 0.  1.
          2   -1    0    0  501    0  0.00000000000E+00 -0.00000000000E+00 -0.16817404188E+04  0.16817404188E+04  0.25500000000E-02 0. -1.
    8880022    1    1    2    0    0  0.23735757961E+03  0.78231263402E+03  0.91853476649E+03  0.12391325386E+04  0.15294330000E+03 0.  0.
    8880022    1    1    2    0    0 -0.23735757961E+03 -0.78231263402E+03 -0.14077757566E+04  0.16351073089E+04  0.15294330000E+03 0.  0.
<mgrwt>
<rscale>  0 0.83171109E+03</rscale>
<asrwt>0</asrwt>
<pdfrwt beam="1">  1        2 0.25872930E+00 0.83171109E+03</pdfrwt>
<pdfrwt beam="2">  1       -2 0.18346145E+00 0.83171109E+03</pdfrwt>
<totfact> 0.17566183E+00</totfact>
</mgrwt>
</event>
<event>
 4    1  0.4880711E-008  0.6421259E+03  0.7818608E-02  0.9821668E-01
         -2   -1    0    0    0  501 -0.00000000000E+00  0.00000000000E+00  0.37351547511E+03  0.37351547512E+03  0.25500000000E-02 0.  1.
          2   -1    0    0  501    0  0.00000000000E+00 -0.00000000000E+00 -0.11916146951E+04  0.11916146951E+04  0.25500000000E-02 0. -1.
    8880022    1    1    2    0    0 -0.32415581694E+03  0.53278236765E+03 -0.62136217512E+03  0.89354163340E+03  0.15294330000E+03 0.  0.
    8880022    1    1    2    0    0  0.32415581694E+03 -0.53278236765E+03 -0.19673704487E+03  0.67158853681E+03  0.15294330000E+03 0.  0.
<mgrwt>
<rscale>  0 0.64212592E+03</rscale>
<asrwt>0</asrwt>
<pdfrwt beam="1">  1        2 0.18332534E+00 0.64212592E+03</pdfrwt>
<pdfrwt beam="2">  1       -2 0.57463920E-01 0.64212592E+03</pdfrwt>
<totfact> 0.55894795E+01</totfact>
</mgrwt>
</event>
<event>
 4    1  0.4880711E-008  0.7025941E+03  0.7818608E-02  0.9712806E-01
          2   -1    0    0  501    0  0.00000000000E+00  0.00000000000E+00  0.46692020364E+04  0.46692020364E+04  0.25500000000E-02 0. -1.
         -2   -1    0    0    0  501 -0.00000000000E+00 -0.00000000000E+00 -0.12739727447E+03  0.12739727450E+03  0.25500000000E-02 0.  1.
    8880022    1    1    2    0    0  0.47689984045E+03 -0.49276095482E+03  0.32601461812E+04  0.33349949913E+04  0.15294330000E+03 0.  0.
    8880022    1    1    2    0    0 -0.47689984045E+03  0.49276095482E+03  0.12816585807E+04  0.14616043196E+04  0.15294330000E+03 0.  0.
<mgrwt>
<rscale>  0 0.70259410E+03</rscale>
<asrwt>0</asrwt>
<pdfrwt beam="1">  1        2 0.71833873E+00 0.70259410E+03</pdfrwt>
<pdfrwt beam="2">  1       -2 0.19599582E-01 0.70259410E+03</pdfrwt>
<totfact> 0.21215046E+00</totfact>
</mgrwt>
</event>
<event>
 4    1  0.4880711E-008  0.1155964E+04  0.7818608E-02  0.9152299E-01
         -2   -1    0    0    0  501 -0.00000000000E+00  0.00000000000E+00  0.69199738198E+03  0.69199738198E+03  0.25500000000E-02 0.  1.
          2   -1    0    0  501    0  0.00000000000E+00 -0.00000000000E+00 -0.25579838706E+04  0.25579838706E+04  0.25500000000E-02 0. -1.
    8880022    1    1    2    0    0  0.71565617454E+03 -0.89481747021E+03 -0.17374945503E+04  0.20868974653E+04  0.15294330000E+03 0.  0.
    8880022    1    1    2    0    0 -0.71565617454E+03  0.89481747021E+03 -0.12849193834E+03  0.11630837873E+04  0.15294330000E+03 0.  0.
<mgrwt>
<rscale>  0 0.11559644E+04</rscale>
<asrwt>0</asrwt>
<pdfrwt beam="1">  1        2 0.39353598E+00 0.11559644E+04</pdfrwt>
<pdfrwt beam="2">  1       -2 0.10646114E+00 0.11559644E+04</pdfrwt>
<totfact> 0.22637040E+00</totfact>
</mgrwt>
</event>
<event>
 4    1  0.4880711E-008  0.6648286E+03  0.7818608E-02  0.9779345E-01
         -2   -1    0    0    0  501 -0.00000000000E+00  0.00000000000E+00  0.11397609743E+04  0.11397609743E+04  0.25500000000E-02 0.  1.
          2   -1    0    0  501    0  0.00000000000E+00 -0.00000000000E+00 -0.58316910922E+03  0.58316910923E+03  0.25500000000E-02 0. -1.
    8880022    1    1    2    0    0 -0.21062542780E+03  0.61175350430E+03  0.77691688918E+03  0.10225443397E+04  0.15294330000E+03 0.  0.
    8880022    1    1    2    0    0  0.21062542780E+03 -0.61175350430E+03 -0.22032502416E+03  0.70038574382E+03  0.15294330000E+03 0.  0.
<mgrwt>
<rscale>  0 0.66482860E+03</rscale>
<asrwt>0</asrwt>
<pdfrwt beam="1">  1        2 0.89718325E-01 0.66482860E+03</pdfrwt>
<pdfrwt beam="2">  1       -2 0.17534784E+00 0.66482860E+03</pdfrwt>
<totfact> 0.10294695E+01</totfact>
</mgrwt>
</event>
<event>
 4    1  0.4880711E-008  0.9890820E+03  0.7818608E-02  0.9320601E-01
         -2   -1    0    0    0  501 -0.00000000000E+00  0.00000000000E+00  0.45965429662E+03  0.45965429663E+03  0.25500000000E-02 0.  1.
          2   -1    0    0  501    0  0.00000000000E+00 -0.00000000000E+00 -0.29247264968E+04  0.29247264968E+04  0.25500000000E-02 0. -1.
    8880022    1    1    2    0    0  0.78983716626E+03  0.57536844391E+03 -0.34949920846E+03  0.10490152264E+04  0.15294330000E+03 0.  0.
    8880022    1    1    2    0    0 -0.78983716626E+03 -0.57536844391E+03 -0.21155729917E+04  0.23353655670E+04  0.15294330000E+03 0.  0.
<mgrwt>
<rscale>  0 0.98908202E+03</rscale>
<asrwt>0</asrwt>
<pdfrwt beam="1">  1        2 0.44995791E+00 0.98908202E+03</pdfrwt>
<pdfrwt beam="2">  1       -2 0.70716047E-01 0.98908202E+03</pdfrwt>
<totfact> 0.36031457E+00</totfact>
</mgrwt>
</event>
<event>
 4    1  0.4880711E-008  0.1531240E+04  0.7818608E-02  0.8863940E-01
         -2   -1    0    0    0  501 -0.00000000000E+00  0.00000000000E+00  0.17939055857E+04  0.17939055857E+04  0.25500000000E-02 0.  1.
          2   -1    0    0  501    0  0.00000000000E+00 -0.00000000000E+00 -0.15889931358E+04  0.15889931358E+04  0.25500000000E-02 0. -1.
    8880022    1    1    2    0    0  0.15225761836E+04  0.55379798819E+02 -0.61005310040E+03  0.16482905070E+04  0.15294330000E+03 0.  0.
    8880022    1    1    2    0    0 -0.15225761836E+04 -0.55379798819E+02  0.81496555024E+03  0.17346082146E+04  0.15294330000E+03 0.  0.
<mgrwt>
<rscale>  0 0.15312403E+04</rscale>
<asrwt>0</asrwt>
<pdfrwt beam="1">  1        2 0.24446048E+00 0.15312403E+04</pdfrwt>
<pdfrwt beam="2">  1       -2 0.27598547E+00 0.15312403E+04</pdfrwt>
<totfact> 0.47205719E-01</totfact>
</mgrwt>
</event>
<event>
 4    1  0.4880711E-008  0.4776657E+03  0.7818608E-02  0.1019779E+00
         -2   -1    0    0    0  501 -0.00000000000E+00  0.00000000000E+00  0.42206173309E+03  0.42206173310E+03  0.25500000000E-02 0.  1.
          2   -1    0    0  501    0  0.00000000000E+00 -0.00000000000E+00 -0.88231055022E+03  0.88231055023E+03  0.25500000000E-02 0. -1.
    8880022    1    1    2    0    0 -0.42296311606E+03 -0.16085724083E+03 -0.63600019319E+03  0.79539974116E+03  0.15294330000E+03 0.  0.
    8880022    1    1    2    0    0  0.42296311606E+03  0.16085724083E+03  0.17575137606E+03  0.50897254217E+03  0.15294330000E+03 0.  0.
<mgrwt>
<rscale>  0 0.47766568E+03</rscale>
<asrwt>0</asrwt>
<pdfrwt beam="1">  1        2 0.13574008E+00 0.47766568E+03</pdfrwt>
<pdfrwt beam="2">  1       -2 0.64932574E-01 0.47766568E+03</pdfrwt>
<totfact> 0.68628004E+01</totfact>
</mgrwt>
</event>
<event>
 4    1  0.4880711E-008  0.3374741E+03  0.7818608E-02  0.1067877E+00
          2   -1    0    0  501    0  0.00000000000E+00  0.00000000000E+00  0.75722171994E+03  0.75722171995E+03  0.25500000000E-02 0. -1.
         -2   -1    0    0    0  501 -0.00000000000E+00 -0.00000000000E+00 -0.13431141615E+04  0.13431141615E+04  0.25500000000E-02 0.  1.
    8880022    1    1    2    0    0 -0.43247997872E+02 -0.29770245837E+03 -0.12825693635E+04  0.13262250820E+04  0.15294330000E+03 0.  0.
    8880022    1    1    2    0    0  0.43247997872E+02  0.29770245837E+03  0.69667692199E+03  0.77411079936E+03  0.15294330000E+03 0.  0.
<mgrwt>
<rscale>  0 0.33747414E+03</rscale>
<asrwt>0</asrwt>
<pdfrwt beam="1">  1        2 0.11649565E+00 0.33747414E+03</pdfrwt>
<pdfrwt beam="2">  1       -2 0.20663295E+00 0.33747414E+03</pdfrwt>
<totfact> 0.49454709E+00</totfact>
</mgrwt>
</event>
<event>
 4    1  0.4880711E-008  0.3342089E+03  0.7818608E-02  0.1069290E+00
          2   -1    0    0  501    0  0.00000000000E+00  0.00000000000E+00  0.17218173213E+04  0.17218173213E+04  0.25500000000E-02 0. -1.
         -2   -1    0    0    0  501 -0.00000000000E+00 -0.00000000000E+00 -0.77157846136E+02  0.77157846179E+02  0.25500000000E-02 0.  1.
    8880022    1    1    2    0    0  0.18000779352E+03  0.23643417150E+03  0.11812763034E+04  0.12276437925E+04  0.15294330000E+03 0.  0.
    8880022    1    1    2    0    0 -0.18000779352E+03 -0.23643417150E+03  0.46338317171E+03  0.57133137496E+03  0.15294330000E+03 0.  0.
<mgrwt>
<rscale>  0 0.33420888E+03</rscale>
<asrwt>0</asrwt>
<pdfrwt beam="1">  1        2 0.26489497E+00 0.33420888E+03</pdfrwt>
<pdfrwt beam="2">  1       -2 0.11870438E-01 0.33420888E+03</pdfrwt>
<totfact> 0.52054062E+02</totfact>
</mgrwt>
</event>
<event>
 4    1  0.4880711E-008  0.3576457E+03  0.7818608E-02  0.1059520E+00
          2   -1    0    0  501    0  0.00000000000E+00  0.00000000000E+00  0.11543867062E+04  0.11543867062E+04  0.25500000000E-02 0. -1.
         -2   -1    0    0    0  501 -0.00000000000E+00 -0.00000000000E+00 -0.19261307010E+03  0.19261307012E+03  0.25500000000E-02 0.  1.
    8880022    1    1    2    0    0  0.26596806921E+03  0.18379268868E+03  0.41956132486E+02  0.36009823148E+03  0.15294330000E+03 0.  0.
    8880022    1    1    2    0    0 -0.26596806921E+03 -0.18379268868E+03  0.91981750361E+03  0.98690154485E+03  0.15294330000E+03 0.  0.
<mgrwt>
<rscale>  0 0.35764566E+03</rscale>
<asrwt>0</asrwt>
<pdfrwt beam="1">  1        2 0.17759795E+00 0.35764566E+03</pdfrwt>
<pdfrwt beam="2">  1       -2 0.29632780E-01 0.35764566E+03</pdfrwt>
<totfact> 0.22136098E+02</totfact>
</mgrwt>
</event>
<event>
 4    1  0.4880711E-008  0.3049440E+03  0.7818608E-02  0.1082795E+00
          2   -1    0    0  501    0  0.00000000000E+00  0.00000000000E+00  0.85493685733E+03  0.85493685733E+03  0.25500000000E-02 0. -1.
         -2   -1    0    0    0  501 -0.00000000000E+00 -0.00000000000E+00 -0.41097690765E+03  0.41097690766E+03  0.25500000000E-02 0.  1.
    8880022    1    1    2    0    0  0.20390097549E+03 -0.16740244676E+03 -0.32079291746E+03  0.44260471743E+03  0.15294330000E+03 0.  1.
    8880022    1    1    2    0    0 -0.20390097549E+03  0.16740244676E+03  0.76475286714E+03  0.82330904756E+03  0.15294330000E+03 0.  0.
<mgrwt>
<rscale>  0 0.30494399E+03</rscale>
<asrwt>0</asrwt>
<pdfrwt beam="1">  1        2 0.13152875E+00 0.30494399E+03</pdfrwt>
<pdfrwt beam="2">  1       -2 0.63227217E-01 0.30494399E+03</pdfrwt>
<totfact> 0.77649597E+01</totfact>
</mgrwt>
</event>
<event>
 4    1  0.4880711E-008  0.4218616E+03  0.7818608E-02  0.1036462E+00
         -2   -1    0    0    0  501 -0.00000000000E+00  0.00000000000E+00  0.23282791233E+03  0.23282791235E+03  0.25500000000E-02 0.  1.
          2   -1    0    0  501    0  0.00000000000E+00 -0.00000000000E+00 -0.22076687254E+04  0.22076687254E+04  0.25500000000E-02 0. -1.
    8880022    1    1    2    0    0  0.19894959673E+03  0.33910852056E+03 -0.77965734364E+00  0.42186228990E+03  0.15294330000E+03 0.  0.
    8880022    1    1    2    0    0 -0.19894959673E+03 -0.33910852056E+03 -0.19740611557E+04  0.20186343479E+04  0.15294330000E+03 0.  0.
<mgrwt>
<rscale>  0 0.42186157E+03</rscale>
<asrwt>0</asrwt>
<pdfrwt beam="1">  1        2 0.33964133E+00 0.42186157E+03</pdfrwt>
<pdfrwt beam="2">  1       -2 0.35819680E-01 0.42186157E+03</pdfrwt>
<totfact> 0.41069625E+01</totfact>
</mgrwt>
</event>
<event>
 4    1  0.4880711E-008  0.9181267E+03  0.7818608E-02  0.9403202E-01
          2   -1    0    0  501    0  0.00000000000E+00  0.00000000000E+00  0.29592417900E+04  0.29592417900E+04  0.25500000000E-02 0. -1.
         -2   -1    0    0    0  501 -0.00000000000E+00 -0.00000000000E+00 -0.65550496228E+03  0.65550496228E+03  0.25500000000E-02 0.  1.
    8880022    1    1    2    0    0 -0.40530693808E+03  0.80950059141E+03 -0.20720063314E+03  0.94121659406E+03  0.15294330000E+03 0.  0.
    8880022    1    1    2    0    0  0.40530693808E+03 -0.80950059141E+03  0.25109374608E+04  0.26735301582E+04  0.15294330000E+03 0.  0.
<mgrwt>
<rscale>  0 0.91812667E+03</rscale>
<asrwt>0</asrwt>
<pdfrwt beam="1">  1        2 0.45526796E+00 0.91812667E+03</pdfrwt>
<pdfrwt beam="2">  1       -2 0.10084692E+00 0.91812667E+03</pdfrwt>
<totfact> 0.15431717E+00</totfact>
</mgrwt>
</event>
<event>
 4    1  0.4880711E-008  0.8620033E+03  0.7818608E-02  0.9474367E-01
         -2   -1    0    0    0  501 -0.00000000000E+00  0.00000000000E+00  0.55726223862E+03  0.55726223863E+03  0.25500000000E-02 0.  1.
          2   -1    0    0  501    0  0.00000000000E+00 -0.00000000000E+00 -0.39068413159E+04  0.39068413159E+04  0.25500000000E-02 0. -1.
    8880022    1    1    2    0    0 -0.68311493771E+03  0.50300295884E+03 -0.34863343942E+04  0.35913196956E+04  0.15294330000E+03 0.  0.
    8880022    1    1    2    0    0  0.68311493771E+03 -0.50300295884E+03  0.13675531692E+03  0.87278385895E+03  0.15294330000E+03 0.  0.
<mgrwt>
<rscale>  0 0.86200328E+03</rscale>
<asrwt>0</asrwt>
<pdfrwt beam="1">  1        2 0.60105249E+00 0.86200328E+03</pdfrwt>
<pdfrwt beam="2">  1       -2 0.85732655E-01 0.86200328E+03</pdfrwt>
<totfact> 0.51765123E-01</totfact>
</mgrwt>
</event>
<event>
 4    1  0.4880711E-008  0.1336935E+04  0.7818608E-02  0.9000777E-01
         -2   -1    0    0    0  501 -0.00000000000E+00  0.00000000000E+00  0.63800481413E+03  0.63800481414E+03  0.25500000000E-02 0.  1.
          2   -1    0    0  501    0  0.00000000000E+00 -0.00000000000E+00 -0.28530590355E+04  0.28530590355E+04  0.25500000000E-02 0. -1.
    8880022    1    1    2    0    0 -0.13010160159E+04 -0.26713580377E+03 -0.87296534500E+03  0.15967042174E+04  0.15294330000E+03 0.  0.
    8880022    1    1    2    0    0  0.13010160159E+04  0.26713580377E+03 -0.13420888764E+04  0.18943596323E+04  0.15294330000E+03 0.  0.
<mgrwt>
<rscale>  0 0.13369353E+04</rscale>
<asrwt>0</asrwt>
<pdfrwt beam="1">  1        2 0.43893215E+00 0.13369353E+04</pdfrwt>
<pdfrwt beam="2">  1       -2 0.98154588E-01 0.13369353E+04</pdfrwt>
<totfact> 0.18020876E+00</totfact>
</mgrwt>
</event>
<event>
 4    1  0.4880711E-008  0.4513848E+03  0.7818608E-02  0.1027310E+00
         -2   -1    0    0    0  501 -0.00000000000E+00  0.00000000000E+00  0.95854673448E+03  0.95854673448E+03  0.25500000000E-02 0.  1.
          2   -1    0    0  501    0  0.00000000000E+00 -0.00000000000E+00 -0.10212563509E+04  0.10212563509E+04  0.25500000000E-02 0. -1.
    8880022    1    1    2    0    0  0.37753709213E+03  0.19447962914E+03 -0.91223630209E+03  0.10178031764E+04  0.15294330000E+03 0. -1.
    8880022    1    1    2    0    0 -0.37753709213E+03 -0.19447962914E+03  0.84952668568E+03  0.96199990893E+03  0.15294330000E+03 0.  0.
<mgrwt>
<rscale>  0 0.45138480E+03</rscale>
<asrwt>0</asrwt>
<pdfrwt beam="1">  1        2 0.15711636E+00 0.45138480E+03</pdfrwt>
<pdfrwt beam="2">  1       -2 0.14746873E+00 0.45138480E+03</pdfrwt>
<totfact> 0.81791488E+00</totfact>
</mgrwt>
</event>
<event>
 4    1  0.4880711E-008  0.1117237E+04  0.7818608E-02  0.9188553E-01
          2   -1    0    0  501    0  0.00000000000E+00  0.00000000000E+00  0.17514144881E+04  0.17514144881E+04  0.25500000000E-02 0. -1.
         -2   -1    0    0    0  501 -0.00000000000E+00 -0.00000000000E+00 -0.78012642701E+03  0.78012642701E+03  0.25500000000E-02 0.  1.
    8880022    1    1    2    0    0 -0.10420197961E+04 -0.37285453394E+03  0.11349543066E+03  0.11229864757E+04  0.15294330000E+03 0.  0.
    8880022    1    1    2    0    0  0.10420197961E+04  0.37285453394E+03  0.85779263047E+03  0.14085544394E+04  0.15294330000E+03 0.  0.
<mgrwt>
<rscale>  0 0.11172365E+04</rscale>
<asrwt>0</asrwt>
<pdfrwt beam="1">  1        2 0.26944838E+00 0.11172365E+04</pdfrwt>
<pdfrwt beam="2">  1       -2 0.12001945E+00 0.11172365E+04</pdfrwt>
<totfact> 0.47925905E+00</totfact>
</mgrwt>
</event>
<event>
 4    1  0.4880711E-008  0.4530564E+03  0.7818608E-02  0.1026815E+00
          2   -1    0    0  501    0  0.00000000000E+00  0.00000000000E+00  0.87766850456E+03  0.87766850457E+03  0.25500000000E-02 0. -1.
         -2   -1    0    0    0  501 -0.00000000000E+00 -0.00000000000E+00 -0.53884243950E+03  0.53884243951E+03  0.25500000000E-02 0.  1.
    8880022    1    1    2    0    0 -0.42641688170E+03  0.60873768670E+01 -0.36341805480E+03  0.58080353712E+03  0.15294330000E+03 0.  0.
    8880022    1    1    2    0    0  0.42641688170E+03 -0.60873768670E+01  0.70224411986E+03  0.83570740696E+03  0.15294330000E+03 0.  0.
<mgrwt>
<rscale>  0 0.45305636E+03</rscale>
<asrwt>0</asrwt>
<pdfrwt beam="1">  1        2 0.13502592E+00 0.45305636E+03</pdfrwt>
<pdfrwt beam="2">  1       -2 0.82898838E-01 0.45305636E+03</pdfrwt>
<totfact> 0.40607892E+01</totfact>
</mgrwt>
</event>
<event>
 4    1  0.4880711E-008  0.4491762E+03  0.7818608E-02  0.1027968E+00
         -2   -1    0    0    0  501 -0.00000000000E+00  0.00000000000E+00  0.31398036358E+03  0.31398036359E+03  0.25500000000E-02 0.  1.
          2   -1    0    0  501    0  0.00000000000E+00 -0.00000000000E+00 -0.13090375964E+04  0.13090375964E+04  0.25500000000E-02 0. -1.
    8880022    1    1    2    0    0  0.34262805958E+03  0.24692839844E+03 -0.10765594521E+04  0.11665074060E+04  0.15294330000E+03 0.  0.
    8880022    1    1    2    0    0 -0.34262805958E+03 -0.24692839844E+03  0.81502219320E+02  0.45651055402E+03  0.15294330000E+03 0.  0.
<mgrwt>
<rscale>  0 0.44917622E+03</rscale>
<asrwt>0</asrwt>
<pdfrwt beam="1">  1        2 0.20139040E+00 0.44917622E+03</pdfrwt>
<pdfrwt beam="2">  1       -2 0.48304672E-01 0.44917622E+03</pdfrwt>
<totfact> 0.69932195E+01</totfact>
</mgrwt>
</event>
<event>
 4    1  0.4880711E-008  0.7529298E+03  0.7818608E-02  0.9630765E-01
         -2   -1    0    0    0  501 -0.00000000000E+00  0.00000000000E+00  0.80363178214E+03  0.80363178215E+03  0.25500000000E-02 0.  1.
          2   -1    0    0  501    0  0.00000000000E+00 -0.00000000000E+00 -0.80973495491E+03  0.80973495491E+03  0.25500000000E-02 0. -1.
    8880022    1    1    2    0    0  0.73579421907E+03  0.46026859754E+02  0.28647680050E+03  0.80558811739E+03  0.15294330000E+03 0.  0.
    8880022    1    1    2    0    0 -0.73579421907E+03 -0.46026859754E+02 -0.29257997326E+03  0.80777861967E+03  0.15294330000E+03 0.  0.
<mgrwt>
<rscale>  0 0.75292978E+03</rscale>
<asrwt>0</asrwt>
<pdfrwt beam="1">  1        2 0.12457461E+00 0.75292978E+03</pdfrwt>
<pdfrwt beam="2">  1       -2 0.12363566E+00 0.75292978E+03</pdfrwt>
<totfact> 0.16949012E+01</totfact>
</mgrwt>
</event>
<event>
 4    1  0.4880711E-008  0.8319159E+03  0.7818608E-02  0.9514935E-01
          2   -1    0    0  501    0  0.00000000000E+00  0.00000000000E+00  0.12309292375E+04  0.12309292375E+04  0.25500000000E-02 0. -1.
         -2   -1    0    0    0  501 -0.00000000000E+00 -0.00000000000E+00 -0.64385847781E+03  0.64385847781E+03  0.25500000000E-02 0.  1.
    8880022    1    1    2    0    0  0.10212686746E+02 -0.81767236359E+03 -0.40203899906E+02  0.83288678686E+03  0.15294330000E+03 0.  0.
    8880022    1    1    2    0    0 -0.10212686746E+02  0.81767236359E+03  0.62727465962E+03  0.10419009285E+04  0.15294330000E+03 0.  0.
<mgrwt>
<rscale>  0 0.83191589E+03</rscale>
<asrwt>0</asrwt>
<pdfrwt beam="1">  1        2 0.18937373E+00 0.83191589E+03</pdfrwt>
<pdfrwt beam="2">  1       -2 0.99055151E-01 0.83191589E+03</pdfrwt>
<totfact> 0.15496804E+01</totfact>
</mgrwt>
</event>
<event>
 4    1  0.4880711E-008  0.1244120E+04  0.7818608E-02  0.9075092E-01
         -2   -1    0    0    0  501 -0.00000000000E+00  0.00000000000E+00  0.11704785599E+04  0.11704785599E+04  0.25500000000E-02 0.  1.
          2   -1    0    0  501    0  0.00000000000E+00 -0.00000000000E+00 -0.31063152651E+04  0.31063152651E+04  0.25500000000E-02 0. -1.
    8880022    1    1    2    0    0  0.11277256262E+04 -0.50267005741E+03  0.65259787298E+03  0.14048907115E+04  0.15294330000E+03 0.  0.
    8880022    1    1    2    0    0 -0.11277256262E+04  0.50267005741E+03 -0.25884345782E+04  0.28719031135E+04  0.15294330000E+03 0. -1.
<mgrwt>
<rscale>  0 0.12441197E+04</rscale>
<asrwt>0</asrwt>
<pdfrwt beam="1">  1        2 0.47789465E+00 0.12441197E+04</pdfrwt>
<pdfrwt beam="2">  1       -2 0.18007363E+00 0.12441197E+04</pdfrwt>
<totfact> 0.26420184E-01</totfact>
</mgrwt>
</event>
<event>
 4    1  0.4880711E-008  0.3757012E+03  0.7818608E-02  0.1052534E+00
          2   -1    0    0  501    0  0.00000000000E+00  0.00000000000E+00  0.12896169496E+04  0.12896169496E+04  0.25500000000E-02 0. -1.
         -2   -1    0    0    0  501 -0.00000000000E+00 -0.00000000000E+00 -0.23231498744E+03  0.23231498745E+03  0.25500000000E-02 0.  1.
    8880022    1    1    2    0    0  0.32523682982E+03 -0.10945642824E+03  0.10820480784E+04  0.11454166937E+04  0.15294330000E+03 0.  0.
    8880022    1    1    2    0    0 -0.32523682982E+03  0.10945642824E+03 -0.24746116319E+02  0.37651524330E+03  0.15294330000E+03 0.  0.
<mgrwt>
<rscale>  0 0.37570116E+03</rscale>
<asrwt>0</asrwt>
<pdfrwt beam="1">  1        2 0.19840261E+00 0.37570116E+03</pdfrwt>
<pdfrwt beam="2">  1       -2 0.35740767E-01 0.37570116E+03</pdfrwt>
<totfact> 0.13036445E+02</totfact>
</mgrwt>
</event>
<event>
 4    1  0.4880711E-008  0.3473285E+03  0.7818608E-02  0.1063717E+00
          2   -1    0    0  501    0  0.00000000000E+00  0.00000000000E+00  0.52970907829E+03  0.52970907830E+03  0.25500000000E-02 0. -1.
         -2   -1    0    0    0  501 -0.00000000000E+00 -0.00000000000E+00 -0.79562860647E+03  0.79562860647E+03  0.25500000000E-02 0.  1.
    8880022    1    1    2    0    0  0.31172025179E+03 -0.87121424574E+01  0.42689080320E+03  0.55033882988E+03  0.15294330000E+03 0. -1.
    8880022    1    1    2    0    0 -0.31172025179E+03  0.87121424574E+01 -0.69281033137E+03  0.77499885489E+03  0.15294330000E+03 0.  0.
<mgrwt>
<rscale>  0 0.34732848E+03</rscale>
<asrwt>0</asrwt>
<pdfrwt beam="1">  1        2 0.81493704E-01 0.34732848E+03</pdfrwt>
<pdfrwt beam="2">  1       -2 0.12240440E+00 0.34732848E+03</pdfrwt>
<totfact> 0.30808448E+01</totfact>
</mgrwt>
</event>
<event>
 4    1  0.4880711E-008  0.6390353E+03  0.7818608E-02  0.9827574E-01
         -2   -1    0    0    0  501 -0.00000000000E+00  0.00000000000E+00  0.26068065325E+04  0.26068065325E+04  0.25500000000E-02 0.  1.
          2   -1    0    0  501    0  0.00000000000E+00 -0.00000000000E+00 -0.47446561549E+03  0.47446561550E+03  0.25500000000E-02 0. -1.
    8880022    1    1    2    0    0  0.18304133433E+03  0.59284934528E+03 -0.19473555271E+03  0.66804795096E+03  0.15294330000E+03 0.  0.
    8880022    1    1    2    0    0 -0.18304133433E+03 -0.59284934528E+03  0.23270764697E+04  0.24132241970E+04  0.15294330000E+03 0.  0.
<mgrwt>
<rscale>  0 0.63903531E+03</rscale>
<asrwt>0</asrwt>
<pdfrwt beam="1">  1        2 0.72994709E-01 0.63903531E+03</pdfrwt>
<pdfrwt beam="2">  1       -2 0.40104716E+00 0.63903531E+03</pdfrwt>
<totfact> 0.52065147E-01</totfact>
</mgrwt>
</event>
<event>
 4    1  0.4880711E-008  0.2670385E+03  0.7818608E-02  0.1102987E+00
          2   -1    0    0  501    0  0.00000000000E+00  0.00000000000E+00  0.27310305387E+04  0.27310305387E+04  0.25500000000E-02 0. -1.
         -2   -1    0    0    0  501 -0.00000000000E+00 -0.00000000000E+00 -0.83397796505E+02  0.83397796544E+02  0.25500000000E-02 0.  1.
    8880022    1    1    2    0    0  0.20933446367E+03  0.64007616213E+02  0.24901175767E+04  0.25043951548E+04  0.15294330000E+03 0.  0.
    8880022    1    1    2    0    0 -0.20933446367E+03 -0.64007616213E+02  0.15751516554E+03  0.31003318049E+03  0.15294330000E+03 0.  0.
<mgrwt>
<rscale>  0 0.26703847E+03</rscale>
<asrwt>0</asrwt>
<pdfrwt beam="1">  1        2 0.42015853E+00 0.26703847E+03</pdfrwt>
<pdfrwt beam="2">  1       -2 0.12830431E-01 0.26703847E+03</pdfrwt>
<totfact> 0.13284745E+02</totfact>
</mgrwt>
</event>
<event>
 4    1  0.4880711E-008  0.6573963E+03  0.7818608E-02  0.9792999E-01
          2   -1    0    0  501    0  0.00000000000E+00  0.00000000000E+00  0.41895798637E+04  0.41895798637E+04  0.25500000000E-02 0. -1.
         -2   -1    0    0    0  501 -0.00000000000E+00 -0.00000000000E+00 -0.12388029765E+03  0.12388029767E+03  0.25500000000E-02 0.  1.
    8880022    1    1    2    0    0  0.99280960818E+02  0.63160233426E+03  0.29150368131E+04  0.29882452196E+04  0.15294330000E+03 0.  0.
    8880022    1    1    2    0    0 -0.99280960818E+02 -0.63160233426E+03  0.11506627530E+04  0.13252149418E+04  0.15294330000E+03 0.  0.
<mgrwt>
<rscale>  0 0.65739628E+03</rscale>
<asrwt>0</asrwt>
<pdfrwt beam="1">  1        2 0.64455093E+00 0.65739628E+03</pdfrwt>
<pdfrwt beam="2">  1       -2 0.19058502E-01 0.65739628E+03</pdfrwt>
<totfact> 0.62691036E+00</totfact>
</mgrwt>
</event>
<event>
 4    1  0.4880711E-008  0.6192750E+03  0.7818608E-02  0.9866204E-01
          2   -1    0    0  501    0  0.00000000000E+00  0.00000000000E+00  0.42860452338E+04  0.42860452338E+04  0.25500000000E-02 0. -1.
         -2   -1    0    0    0  501 -0.00000000000E+00 -0.00000000000E+00 -0.11147981961E+03  0.11147981964E+03  0.25500000000E-02 0.  1.
    8880022    1    1    2    0    0 -0.80814894953E+02  0.59462496898E+03  0.30641182989E+04  0.31260714169E+04  0.15294330000E+03 0.  0.
    8880022    1    1    2    0    0  0.80814894953E+02 -0.59462496898E+03  0.11104471153E+04  0.12714536365E+04  0.15294330000E+03 0.  0.
<mgrwt>
<rscale>  0 0.61927502E+03</rscale>
<asrwt>0</asrwt>
<pdfrwt beam="1">  1        2 0.65939163E+00 0.61927502E+03</pdfrwt>
<pdfrwt beam="2">  1       -2 0.17150740E-01 0.61927502E+03</pdfrwt>
<totfact> 0.62812097E+00</totfact>
</mgrwt>
</event>
<event>
 4    1  0.4880711E-008  0.8728131E+03  0.7818608E-02  0.9460219E-01
          2   -1    0    0  501    0  0.00000000000E+00  0.00000000000E+00  0.12653732219E+04  0.12653732219E+04  0.25500000000E-02 0. -1.
         -2   -1    0    0    0  501 -0.00000000000E+00 -0.00000000000E+00 -0.86969784067E+03  0.86969784067E+03  0.25500000000E-02 0.  1.
    8880022    1    1    2    0    0 -0.70591889249E+03 -0.48998934741E+03 -0.39439147810E+03  0.95778250890E+03  0.15294330000E+03 0.  0.
    8880022    1    1    2    0    0  0.70591889249E+03  0.48998934741E+03  0.79006685928E+03  0.11772885536E+04  0.15294330000E+03 0.  0.
<mgrwt>
<rscale>  0 0.87281309E+03</rscale>
<asrwt>0</asrwt>
<pdfrwt beam="1">  1        2 0.19467280E+00 0.87281309E+03</pdfrwt>
<pdfrwt beam="2">  1       -2 0.13379967E+00 0.87281309E+03</pdfrwt>
<totfact> 0.70320665E+00</totfact>
</mgrwt>
</event>
<event>
 4    1  0.4880711E-008  0.9095666E+03  0.7818608E-02  0.9413701E-01
         -2   -1    0    0    0  501 -0.00000000000E+00  0.00000000000E+00  0.55042063772E+03  0.55042063772E+03  0.25500000000E-02 0.  1.
          2   -1    0    0  501    0  0.00000000000E+00 -0.00000000000E+00 -0.24492050759E+04  0.24492050759E+04  0.25500000000E-02 0. -1.
    8880022    1    1    2    0    0 -0.32705057708E+02  0.89601908520E+03 -0.17201156117E+02  0.90972927546E+03  0.15294330000E+03 0.  0.
    8880022    1    1    2    0    0  0.32705057708E+02 -0.89601908520E+03 -0.18815832820E+04  0.20898964381E+04  0.15294330000E+03 0.  0.
<mgrwt>
<rscale>  0 0.90956664E+03</rscale>
<asrwt>0</asrwt>
<pdfrwt beam="1">  1        2 0.37680078E+00 0.90956664E+03</pdfrwt>
<pdfrwt beam="2">  1       -2 0.84680099E-01 0.90956664E+03</pdfrwt>
<totfact> 0.46248456E+00</totfact>
</mgrwt>
</event>
<event>
 4    1  0.4880711E-008  0.2237740E+03  0.7818608E-02  0.1131100E+00
          2   -1    0    0  501    0  0.00000000000E+00  0.00000000000E+00  0.28666906197E+04  0.28666906197E+04  0.25500000000E-02 0. -1.
         -2   -1    0    0    0  501 -0.00000000000E+00 -0.00000000000E+00 -0.25730188471E+02  0.25730188597E+02  0.25500000000E-02 0.  1.
    8880022    1    1    2    0    0  0.14299065164E+03  0.78973686458E+02  0.22400055785E+04  0.22511552178E+04  0.15294330000E+03 0.  0.
    8880022    1    1    2    0    0 -0.14299065164E+03 -0.78973686458E+02  0.60095485275E+03  0.64126559059E+03  0.15294330000E+03 0.  0.
<mgrwt>
<rscale>  0 0.22377404E+03</rscale>
<asrwt>0</asrwt>
<pdfrwt beam="1">  1        2 0.44102925E+00 0.22377404E+03</pdfrwt>
<pdfrwt beam="2">  1       -2 0.39584913E-02 0.22377404E+03</pdfrwt>
<totfact> 0.70374288E+02</totfact>
</mgrwt>
</event>
<event>
 4    1  0.4880711E-008  0.7872001E+03  0.7818608E-02  0.9578731E-01
         -2   -1    0    0    0  501 -0.00000000000E+00  0.00000000000E+00  0.15515290426E+04  0.15515290426E+04  0.25500000000E-02 0.  1.
          2   -1    0    0  501    0  0.00000000000E+00 -0.00000000000E+00 -0.68255409474E+03  0.68255409475E+03  0.25500000000E-02 0. -1.
    8880022    1    1    2    0    0 -0.98601730554E+02 -0.76587859151E+03  0.11539540167E+04  0.13968871980E+04  0.15294330000E+03 0.  0.
    8880022    1    1    2    0    0  0.98601730554E+02  0.76587859151E+03 -0.28497906885E+03  0.83719593937E+03  0.15294330000E+03 0.  0.
<mgrwt>
<rscale>  0 0.78720008E+03</rscale>
<asrwt>0</asrwt>
<pdfrwt beam="1">  1        2 0.10500832E+00 0.78720008E+03</pdfrwt>
<pdfrwt beam="2">  1       -2 0.23869678E+00 0.78720008E+03</pdfrwt>
<totfact> 0.32650693E+00</totfact>
</mgrwt>
</event>
<event>
 4    1  0.4880711E-008  0.1106175E+04  0.7818608E-02  0.9199194E-01
         -2   -1    0    0    0  501 -0.00000000000E+00  0.00000000000E+00  0.11983487026E+04  0.11983487026E+04  0.25500000000E-02 0.  1.
          2   -1    0    0  501    0  0.00000000000E+00 -0.00000000000E+00 -0.11796909629E+04  0.11796909630E+04  0.25500000000E-02 0. -1.
    8880022    1    1    2    0    0  0.26085529032E+03 -0.10640423283E+04  0.44529862020E+03  0.11924403855E+04  0.15294330000E+03 0.  0.
    8880022    1    1    2    0    0 -0.26085529032E+03  0.10640423283E+04 -0.42664088052E+03  0.11855992800E+04  0.15294330000E+03 0.  0.
<mgrwt>
<rscale>  0 0.11061750E+04</rscale>
<asrwt>0</asrwt>
<pdfrwt beam="1">  1        2 0.18149092E+00 0.11061750E+04</pdfrwt>
<pdfrwt beam="2">  1       -2 0.18436134E+00 0.11061750E+04</pdfrwt>
<totfact> 0.32319428E+00</totfact>
</mgrwt>
</event>
<event>
 4    1  0.4880711E-008  0.8075028E+03  0.7818608E-02  0.9549220E-01
         -2   -1    0    0    0  501 -0.00000000000E+00  0.00000000000E+00  0.59481738906E+03  0.59481738906E+03  0.25500000000E-02 0.  1.
          2   -1    0    0  501    0  0.00000000000E+00 -0.00000000000E+00 -0.12340657092E+04  0.12340657092E+04  0.25500000000E-02 0. -1.
    8880022    1    1    2    0    0 -0.79248368687E+03 -0.25273098354E+02 -0.14021735951E+02  0.80762453253E+03  0.15294330000E+03 0.  0.
    8880022    1    1    2    0    0  0.79248368687E+03  0.25273098354E+02 -0.62522658415E+03  0.10212585657E+04  0.15294330000E+03 0.  0.
<mgrwt>
<rscale>  0 0.80750280E+03</rscale>
<asrwt>0</asrwt>
<pdfrwt beam="1">  1        2 0.18985626E+00 0.80750280E+03</pdfrwt>
<pdfrwt beam="2">  1       -2 0.91510368E-01 0.80750280E+03</pdfrwt>
<totfact> 0.18624615E+01</totfact>
</mgrwt>
</event>
<event>
 4    1  0.4880711E-008  0.6971115E+03  0.7818608E-02  0.9722185E-01
         -2   -1    0    0    0  501 -0.00000000000E+00  0.00000000000E+00  0.80289937167E+03  0.80289937167E+03  0.25500000000E-02 0.  1.
          2   -1    0    0  501    0  0.00000000000E+00 -0.00000000000E+00 -0.10429959860E+04  0.10429959860E+04  0.25500000000E-02 0. -1.
    8880022    1    1    2    0    0 -0.63621724203E+03 -0.24041728151E+03 -0.71796528226E+03  0.10007190654E+04  0.15294330000E+03 0.  0.
    8880022    1    1    2    0    0  0.63621724203E+03  0.24041728151E+03  0.47786866790E+03  0.84517629231E+03  0.15294330000E+03 0.  0.
<mgrwt>
<rscale>  0 0.69711154E+03</rscale>
<asrwt>0</asrwt>
<pdfrwt beam="1">  1        2 0.16046092E+00 0.69711154E+03</pdfrwt>
<pdfrwt beam="2">  1       -2 0.12352298E+00 0.69711154E+03</pdfrwt>
<totfact> 0.11964380E+01</totfact>
</mgrwt>
</event>
<event>
 4    1  0.4880711E-008  0.4256007E+03  0.7818608E-02  0.1035259E+00
         -2   -1    0    0    0  501 -0.00000000000E+00  0.00000000000E+00  0.56888951588E+03  0.56888951589E+03  0.25500000000E-02 0.  1.
          2   -1    0    0  501    0  0.00000000000E+00 -0.00000000000E+00 -0.79797125459E+03  0.79797125459E+03  0.25500000000E-02 0. -1.
    8880022    1    1    2    0    0  0.60016663854E+02 -0.39260959524E+03 -0.64435802628E+03  0.77222614127E+03  0.15294330000E+03 0.  0.
    8880022    1    1    2    0    0 -0.60016663854E+02  0.39260959524E+03  0.41527628758E+03  0.59463462921E+03  0.15294330000E+03 0.  0.
<mgrwt>
<rscale>  0 0.42560069E+03</rscale>
<asrwt>0</asrwt>
<pdfrwt beam="1">  1        2 0.12276481E+00 0.42560069E+03</pdfrwt>
<pdfrwt beam="2">  1       -2 0.87521464E-01 0.42560069E+03</pdfrwt>
<totfact> 0.40916373E+01</totfact>
</mgrwt>
</event>
<event>
 4    1  0.4880711E-008  0.7283294E+03  0.7818608E-02  0.9669975E-01
          2   -1    0    0  501    0  0.00000000000E+00  0.00000000000E+00  0.15506920304E+04  0.15506920304E+04  0.25500000000E-02 0. -1.
         -2   -1    0    0    0  501 -0.00000000000E+00 -0.00000000000E+00 -0.46579341738E+03  0.46579341739E+03  0.25500000000E-02 0.  1.
    8880022    1    1    2    0    0  0.43240164051E+03 -0.56577458699E+03  0.22844157574E+02  0.72868756717E+03  0.15294330000E+03 0.  0.
    8880022    1    1    2    0    0 -0.43240164051E+03  0.56577458699E+03  0.10620544555E+04  0.12877978807E+04  0.15294330000E+03 0.  0.
<mgrwt>
<rscale>  0 0.72832940E+03</rscale>
<asrwt>0</asrwt>
<pdfrwt beam="1">  1        2 0.23856800E+00 0.72832940E+03</pdfrwt>
<pdfrwt beam="2">  1       -2 0.71660526E-01 0.72832940E+03</pdfrwt>
<totfact> 0.21565128E+01</totfact>
</mgrwt>
</event>
<event>
 4    1  0.4880711E-008  0.4840012E+03  0.7818608E-02  0.1018041E+00
         -2   -1    0    0    0  501 -0.00000000000E+00  0.00000000000E+00  0.33737207332E+03  0.33737207333E+03  0.25500000000E-02 0.  1.
          2   -1    0    0  501    0  0.00000000000E+00 -0.00000000000E+00 -0.11599610358E+04  0.11599610358E+04  0.25500000000E-02 0. -1.
    8880022    1    1    2    0    0 -0.38871221617E+03  0.24447561132E+03 -0.88561772047E+03  0.10092452186E+04  0.15294330000E+03 0.  0.
    8880022    1    1    2    0    0  0.38871221617E+03 -0.24447561132E+03  0.63028757953E+02  0.48808789053E+03  0.15294330000E+03 0.  0.
<mgrwt>
<rscale>  0 0.48400120E+03</rscale>
<asrwt>0</asrwt>
<pdfrwt beam="1">  1        2 0.17845554E+00 0.48400120E+03</pdfrwt>
<pdfrwt beam="2">  1       -2 0.51903397E-01 0.48400120E+03</pdfrwt>
<totfact> 0.73352617E+01</totfact>
</mgrwt>
</event>
<event>
 4    1  0.4880711E-008  0.3312273E+03  0.7818608E-02  0.1070595E+00
          2   -1    0    0  501    0  0.00000000000E+00  0.00000000000E+00  0.20387392108E+04  0.20387392108E+04  0.25500000000E-02 0. -1.
         -2   -1    0    0    0  501 -0.00000000000E+00 -0.00000000000E+00 -0.64153226957E+03  0.64153226957E+03  0.25500000000E-02 0.  1.
    8880022    1    1    2    0    0  0.29245399239E+03  0.28116914948E+02 -0.58409430665E+03  0.67147428144E+03  0.15294330000E+03 0.  0.
    8880022    1    1    2    0    0 -0.29245399239E+03 -0.28116914948E+02  0.19813012479E+04  0.20087971989E+04  0.15294330000E+03 0.  0.
<mgrwt>
<rscale>  0 0.33122734E+03</rscale>
<asrwt>0</asrwt>
<pdfrwt beam="1">  1        2 0.31365219E+00 0.33122734E+03</pdfrwt>
<pdfrwt beam="2">  1       -2 0.98697272E-01 0.33122734E+03</pdfrwt>
<totfact> 0.62241650E+00</totfact>
</mgrwt>
</event>
<event>
 4    1  0.4880711E-008  0.1913160E+04  0.7818608E-02  0.8648334E-01
         -2   -1    0    0    0  501 -0.00000000000E+00  0.00000000000E+00  0.20742642608E+04  0.20742642608E+04  0.25500000000E-02 0.  1.
          2   -1    0    0  501    0  0.00000000000E+00 -0.00000000000E+00 -0.21817266909E+04  0.21817266909E+04  0.25500000000E-02 0. -1.
    8880022    1    1    2    0    0  0.18622467876E+04 -0.41088269257E+03 -0.98424203378E+03  0.21514905807E+04  0.15294330000E+03 0.  0.
    8880022    1    1    2    0    0 -0.18622467876E+04  0.41088269257E+03  0.87677960364E+03  0.21045003709E+04  0.15294330000E+03 0.  0.
<mgrwt>
<rscale>  0 0.19131595E+04</rscale>
<asrwt>0</asrwt>
<pdfrwt beam="1">  1        2 0.33565026E+00 0.19131595E+04</pdfrwt>
<pdfrwt beam="2">  1       -2 0.31911758E+00 0.19131595E+04</pdfrwt>
<totfact> 0.11481390E-01</totfact>
</mgrwt>
</event>
<event>
 4    1  0.4880711E-008  0.7542327E+03  0.7818608E-02  0.9628733E-01
          2   -1    0    0  501    0  0.00000000000E+00  0.00000000000E+00  0.18086971846E+04  0.18086971846E+04  0.25500000000E-02 0. -1.
         -2   -1    0    0    0  501 -0.00000000000E+00 -0.00000000000E+00 -0.88759425286E+03  0.88759425286E+03  0.25500000000E-02 0.  1.
    8880022    1    1    2    0    0  0.68226445265E+03 -0.28282587610E+03 -0.62271673004E+03  0.97808130461E+03  0.15294330000E+03 0.  0.
    8880022    1    1    2    0    0 -0.68226445265E+03  0.28282587610E+03  0.15438196618E+04  0.17182101329E+04  0.15294330000E+03 0.  0.
<mgrwt>
<rscale>  0 0.75423266E+03</rscale>
<asrwt>0</asrwt>
<pdfrwt beam="1">  1        2 0.27826110E+00 0.75423266E+03</pdfrwt>
<pdfrwt beam="2">  1       -2 0.13655296E+00 0.75423266E+03</pdfrwt>
<totfact> 0.33729163E+00</totfact>
</mgrwt>
</event>
<event>
 4    1  0.4880711E-008  0.1927282E+04  0.7818608E-02  0.8641394E-01
         -2   -1    0    0    0  501 -0.00000000000E+00  0.00000000000E+00  0.15980044606E+04  0.15980044606E+04  0.25500000000E-02 0.  1.
          2   -1    0    0  501    0  0.00000000000E+00 -0.00000000000E+00 -0.32669604844E+04  0.32669604844E+04  0.25500000000E-02 0. -1.
    8880022    1    1    2    0    0  0.71207941319E+03 -0.17843673359E+04 -0.21410410854E+04  0.28807069380E+04  0.15294330000E+03 0.  0.
    8880022    1    1    2    0    0 -0.71207941319E+03  0.17843673359E+04  0.47208506160E+03  0.19842580071E+04  0.15294330000E+03 0.  0.
<mgrwt>
<rscale>  0 0.19272819E+04</rscale>
<asrwt>0</asrwt>
<pdfrwt beam="1">  1        2 0.50260930E+00 0.19272819E+04</pdfrwt>
<pdfrwt beam="2">  1       -2 0.24584684E+00 0.19272819E+04</pdfrwt>
<totfact> 0.71491172E-02</totfact>
</mgrwt>
</event>
<event>
 4    1  0.4880711E-008  0.6608597E+03  0.7818608E-02  0.9786613E-01
         -2   -1    0    0    0  501 -0.00000000000E+00  0.00000000000E+00  0.10664513896E+04  0.10664513896E+04  0.25500000000E-02 0.  1.
          2   -1    0    0  501    0  0.00000000000E+00 -0.00000000000E+00 -0.79834166580E+03  0.79834166580E+03  0.25500000000E-02 0. -1.
    8880022    1    1    2    0    0  0.60234694877E+03 -0.22477095770E+03 -0.51664433110E+03  0.83884256448E+03  0.15294330000E+03 0.  0.
    8880022    1    1    2    0    0 -0.60234694877E+03  0.22477095770E+03  0.78475405488E+03  0.10259504909E+04  0.15294330000E+03 0.  0.
<mgrwt>
<rscale>  0 0.66085965E+03</rscale>
<asrwt>0</asrwt>
<pdfrwt beam="1">  1        2 0.12282180E+00 0.66085965E+03</pdfrwt>
<pdfrwt beam="2">  1       -2 0.16406944E+00 0.66085965E+03</pdfrwt>
<totfact> 0.83567080E+00</totfact>
</mgrwt>
</event>
<event>
 4    1  0.4880711E-008  0.7797687E+03  0.7818608E-02  0.9589772E-01
         -2   -1    0    0    0  501 -0.00000000000E+00  0.00000000000E+00  0.37039899376E+03  0.37039899377E+03  0.25500000000E-02 0.  1.
          2   -1    0    0  501    0  0.00000000000E+00 -0.00000000000E+00 -0.19277474335E+04  0.19277474335E+04  0.25500000000E-02 0. -1.
    8880022    1    1    2    0    0 -0.77972912510E+02  0.76063639810E+03 -0.33594967235E+03  0.84905909133E+03  0.15294330000E+03 0.  0.
    8880022    1    1    2    0    0  0.77972912510E+02 -0.76063639810E+03 -0.12213987674E+04  0.14490873360E+04  0.15294330000E+03 0.  0.
<mgrwt>
<rscale>  0 0.77976866E+03</rscale>
<asrwt>0</asrwt>
<pdfrwt beam="1">  1        2 0.29657652E+00 0.77976866E+03</pdfrwt>
<pdfrwt beam="2">  1       -2 0.56984462E-01 0.77976866E+03</pdfrwt>
<totfact> 0.21754923E+01</totfact>
</mgrwt>
</event>
<event>
 4    1  0.4880711E-008  0.5410641E+03  0.7818608E-02  0.1003584E+00
          2   -1    0    0  501    0  0.00000000000E+00  0.00000000000E+00  0.74292960812E+03  0.74292960813E+03  0.25500000000E-02 0. -1.
         -2   -1    0    0    0  501 -0.00000000000E+00 -0.00000000000E+00 -0.50739522184E+03  0.50739522184E+03  0.25500000000E-02 0.  1.
    8880022    1    1    2    0    0 -0.33378532099E+03  0.39742426124E+03  0.41324444727E+03  0.68082399352E+03  0.15294330000E+03 0. -1.
    8880022    1    1    2    0    0  0.33378532099E+03 -0.39742426124E+03 -0.17771006099E+03  0.56950083645E+03  0.15294330000E+03 0.  0.
<mgrwt>
<rscale>  0 0.54106408E+03</rscale>
<asrwt>0</asrwt>
<pdfrwt beam="1">  1        2 0.11429686E+00 0.54106408E+03</pdfrwt>
<pdfrwt beam="2">  1       -2 0.78060803E-01 0.54106408E+03</pdfrwt>
<totfact> 0.57206838E+01</totfact>
</mgrwt>
</event>
<event>
 4    1  0.4880711E-008  0.4274840E+03  0.7818608E-02  0.1034658E+00
          2   -1    0    0  501    0  0.00000000000E+00  0.00000000000E+00  0.17177436670E+04  0.17177436670E+04  0.25500000000E-02 0. -1.
         -2   -1    0    0    0  501 -0.00000000000E+00 -0.00000000000E+00 -0.12963067161E+03  0.12963067163E+03  0.25500000000E-02 0.  1.
    8880022    1    1    2    0    0  0.60633991902E+02  0.39455599792E+03  0.11852033574E+04  0.12599403033E+04  0.15294330000E+03 0. -1.
    8880022    1    1    2    0    0 -0.60633991902E+02 -0.39455599792E+03  0.40290963800E+03  0.58743403535E+03  0.15294330000E+03 0.  0.
<mgrwt>
<rscale>  0 0.42748400E+03</rscale>
<asrwt>0</asrwt>
<pdfrwt beam="1">  1        2 0.26426826E+00 0.42748400E+03</pdfrwt>
<pdfrwt beam="2">  1       -2 0.19943180E-01 0.42748400E+03</pdfrwt>
<totfact> 0.21649342E+02</totfact>
</mgrwt>
</event>
<event>
 4    1  0.4880711E-008  0.1075439E+04  0.7818608E-02  0.9229467E-01
          2   -1    0    0  501    0  0.00000000000E+00  0.00000000000E+00  0.30878778128E+04  0.30878778128E+04  0.25500000000E-02 0. -1.
         -2   -1    0    0    0  501 -0.00000000000E+00 -0.00000000000E+00 -0.19167029554E+04  0.19167029554E+04  0.25500000000E-02 0.  1.
    8880022    1    1    2    0    0  0.39893329592E+03  0.98692972138E+03  0.28301090584E+04  0.30275546213E+04  0.15294330000E+03 0.  0.
    8880022    1    1    2    0    0 -0.39893329592E+03 -0.98692972138E+03 -0.16589342010E+04  0.19770261469E+04  0.15294330000E+03 0.  0.
<mgrwt>
<rscale>  0 0.10754393E+04</rscale>
<asrwt>0</asrwt>
<pdfrwt beam="1">  1        2 0.47505812E+00 0.10754393E+04</pdfrwt>
<pdfrwt beam="2">  1       -2 0.29487738E+00 0.10754393E+04</pdfrwt>
<totfact> 0.53077099E-02</totfact>
</mgrwt>
</event>
<event>
 4    1  0.4880711E-008  0.7493601E+03  0.7818608E-02  0.9636355E-01
          2   -1    0    0  501    0  0.00000000000E+00  0.00000000000E+00  0.18322973429E+04  0.18322973429E+04  0.25500000000E-02 0. -1.
         -2   -1    0    0    0  501 -0.00000000000E+00 -0.00000000000E+00 -0.44757200782E+03  0.44757200783E+03  0.25500000000E-02 0.  1.
    8880022    1    1    2    0    0  0.67962299807E+03  0.27615480875E+03  0.13324189131E+04  0.15286859426E+04  0.15294330000E+03 0.  0.
    8880022    1    1    2    0    0 -0.67962299807E+03 -0.27615480875E+03  0.52306421945E+02  0.75118340816E+03  0.15294330000E+03 0.  0.
<mgrwt>
<rscale>  0 0.74936009E+03</rscale>
<asrwt>0</asrwt>
<pdfrwt beam="1">  1        2 0.28189190E+00 0.74936009E+03</pdfrwt>
<pdfrwt beam="2">  1       -2 0.68857231E-01 0.74936009E+03</pdfrwt>
<totfact> 0.16447844E+01</totfact>
</mgrwt>
</event>
<event>
 4    1  0.4880711E-008  0.1746262E+03  0.7818608E-02  0.1173108E+00
          2   -1    0    0  501    0  0.00000000000E+00  0.00000000000E+00  0.21546425442E+04  0.21546425442E+04  0.25500000000E-02 0. -1.
         -2   -1    0    0    0  501 -0.00000000000E+00 -0.00000000000E+00 -0.25798870392E+02  0.25798870518E+02  0.25500000000E-02 0.  1.
    8880022    1    1    2    0    0 -0.31930457868E+02 -0.77994154853E+02  0.33192934319E+03  0.37506184052E+03  0.15294330000E+03 0.  0.
    8880022    1    1    2    0    0  0.31930457868E+02  0.77994154853E+02  0.17969143306E+04  0.18053795742E+04  0.15294330000E+03 0. -1.
<mgrwt>
<rscale>  0 0.17462616E+03</rscale>
<asrwt>0</asrwt>
<pdfrwt beam="1">  1        2 0.33148354E+00 0.17462616E+03</pdfrwt>
<pdfrwt beam="2">  1       -2 0.39690561E-02 0.17462616E+03</pdfrwt>
<totfact> 0.17272300E+03</totfact>
</mgrwt>
</event>
<event>
 4    1  0.4880711E-008  0.1260099E+04  0.7818608E-02  0.9061820E-01
         -2   -1    0    0    0  501 -0.00000000000E+00  0.00000000000E+00  0.55744843895E+03  0.55744843895E+03  0.25500000000E-02 0.  1.
          2   -1    0    0  501    0  0.00000000000E+00 -0.00000000000E+00 -0.42921310200E+04  0.42921310200E+04  0.25500000000E-02 0. -1.
    8880022    1    1    2    0    0 -0.85606640383E+03  0.91192502309E+03 -0.32736393643E+04  0.35077860933E+04  0.15294330000E+03 0.  0.
    8880022    1    1    2    0    0  0.85606640383E+03 -0.91192502309E+03 -0.46104321675E+03  0.13417933657E+04  0.15294330000E+03 0.  0.
<mgrwt>
<rscale>  0 0.12600986E+04</rscale>
<asrwt>0</asrwt>
<pdfrwt beam="1">  1        2 0.66032783E+00 0.12600986E+04</pdfrwt>
<pdfrwt beam="2">  1       -2 0.85761301E-01 0.12600986E+04</pdfrwt>
<totfact> 0.23089001E-01</totfact>
</mgrwt>
</event>
<event>
 4    1  0.4880711E-008  0.5239653E+03  0.7818608E-02  0.1007706E+00
          2   -1    0    0  501    0  0.00000000000E+00  0.00000000000E+00  0.72840220380E+03  0.72840220380E+03  0.25500000000E-02 0. -1.
         -2   -1    0    0    0  501 -0.00000000000E+00 -0.00000000000E+00 -0.85413323692E+03  0.85413323692E+03  0.25500000000E-02 0.  1.
    8880022    1    1    2    0    0  0.21580115749E+03  0.45230278870E+03 -0.65432223833E+03  0.83825843081E+03  0.15294330000E+03 0.  0.
    8880022    1    1    2    0    0 -0.21580115749E+03 -0.45230278870E+03  0.52859120521E+03  0.74427700991E+03  0.15294330000E+03 0.  0.
<mgrwt>
<rscale>  0 0.52396527E+03</rscale>
<asrwt>0</asrwt>
<pdfrwt beam="1">  1        2 0.11206188E+00 0.52396527E+03</pdfrwt>
<pdfrwt beam="2">  1       -2 0.13140511E+00 0.52396527E+03</pdfrwt>
<totfact> 0.17145634E+01</totfact>
</mgrwt>
</event>
<event>
 4    1  0.4880711E-008  0.1915843E+03  0.7818608E-02  0.1157040E+00
          2   -1    0    0  501    0  0.00000000000E+00  0.00000000000E+00  0.20133237461E+03  0.20133237462E+03  0.25500000000E-02 0. -1.
         -2   -1    0    0    0  501 -0.00000000000E+00 -0.00000000000E+00 -0.21584097379E+03  0.21584097381E+03  0.25500000000E-02 0.  1.
    8880022    1    1    2    0    0 -0.85121644761E+02 -0.77892239270E+02  0.74961289934E+02  0.20572735197E+03  0.15294330000E+03 0.  0.
    8880022    1    1    2    0    0  0.85121644761E+02  0.77892239270E+02 -0.89469889118E+02  0.21144599646E+03  0.15294330000E+03 0.  1.
<mgrwt>
<rscale>  0 0.19158431E+03</rscale>
<asrwt>0</asrwt>
<pdfrwt beam="1">  1        2 0.30974211E-01 0.19158431E+03</pdfrwt>
<pdfrwt beam="2">  1       -2 0.33206304E-01 0.19158431E+03</pdfrwt>
<totfact> 0.14213128E+03</totfact>
</mgrwt>
</event>
<event>
 4    1  0.4880711E-008  0.3000698E+03  0.7818608E-02  0.1085206E+00
         -2   -1    0    0    0  501 -0.00000000000E+00  0.00000000000E+00  0.23046602537E+03  0.23046602539E+03  0.25500000000E-02 0.  1.
          2   -1    0    0  501    0  0.00000000000E+00 -0.00000000000E+00 -0.69294117340E+03  0.69294117340E+03  0.25500000000E-02 0. -1.
    8880022    1    1    2    0    0  0.19975417179E+03  0.16354967498E+03  0.73689245491E+02  0.30898540944E+03  0.15294330000E+03 0.  0.
    8880022    1    1    2    0    0 -0.19975417179E+03 -0.16354967498E+03 -0.53616439352E+03  0.61442178934E+03  0.15294330000E+03 0.  0.
<mgrwt>
<rscale>  0 0.30006979E+03</rscale>
<asrwt>0</asrwt>
<pdfrwt beam="1">  1        2 0.10660633E+00 0.30006979E+03</pdfrwt>
<pdfrwt beam="2">  1       -2 0.35456312E-01 0.30006979E+03</pdfrwt>
<totfact> 0.32006250E+02</totfact>
</mgrwt>
</event>
<event>
 4    1  0.4880711E-008  0.4191477E+03  0.7818608E-02  0.1037344E+00
          2   -1    0    0  501    0  0.00000000000E+00  0.00000000000E+00  0.69507918792E+03  0.69507918793E+03  0.25500000000E-02 0. -1.
         -2   -1    0    0    0  501 -0.00000000000E+00 -0.00000000000E+00 -0.34323050001E+03  0.34323050002E+03  0.25500000000E-02 0.  1.
    8880022    1    1    2    0    0 -0.99525431892E+02 -0.37734313067E+03 -0.90619866306E+02  0.42883185871E+03  0.15294330000E+03 0.  0.
    8880022    1    1    2    0    0  0.99525431892E+02  0.37734313067E+03  0.44246855422E+03  0.60947782925E+03  0.15294330000E+03 0.  0.
<mgrwt>
<rscale>  0 0.41914771E+03</rscale>
<asrwt>0</asrwt>
<pdfrwt beam="1">  1        2 0.10693526E+00 0.41914771E+03</pdfrwt>
<pdfrwt beam="2">  1       -2 0.52804693E-01 0.41914771E+03</pdfrwt>
<totfact> 0.14471828E+02</totfact>
</mgrwt>
</event>
<event>
 4    1  0.4880711E-008  0.5580888E+03  0.7818608E-02  0.9996388E-01
          2   -1    0    0  501    0  0.00000000000E+00  0.00000000000E+00  0.21463627856E+04  0.21463627856E+04  0.25500000000E-02 0. -1.
         -2   -1    0    0    0  501 -0.00000000000E+00 -0.00000000000E+00 -0.33712221167E+03  0.33712221168E+03  0.25500000000E-02 0.  1.
    8880022    1    1    2    0    0 -0.43665389343E+03  0.31209751816E+03 -0.32509950017E+02  0.55903491247E+03  0.15294330000E+03 0.  0.
    8880022    1    1    2    0    0  0.43665389343E+03 -0.31209751816E+03  0.18417505240E+04  0.19244500848E+04  0.15294330000E+03 0.  0.
<mgrwt>
<rscale>  0 0.55808882E+03</rscale>
<asrwt>0</asrwt>
<pdfrwt beam="1">  1        2 0.33020967E+00 0.55808882E+03</pdfrwt>
<pdfrwt beam="2">  1       -2 0.51864954E-01 0.55808882E+03</pdfrwt>
<totfact> 0.20806074E+01</totfact>
</mgrwt>
</event>
<event>
 4    1  0.4880711E-008  0.1207262E+04  0.7818608E-02  0.9106523E-01
          2   -1    0    0  501    0  0.00000000000E+00  0.00000000000E+00  0.24298791809E+04  0.24298791809E+04  0.25500000000E-02 0. -1.
         -2   -1    0    0    0  501 -0.00000000000E+00 -0.00000000000E+00 -0.17348689748E+04  0.17348689749E+04  0.25500000000E-02 0.  1.
    8880022    1    1    2    0    0  0.11765774967E+04  0.22306091754E+03  0.20318588816E+04  0.23634578369E+04  0.15294330000E+03 0.  0.
    8880022    1    1    2    0    0 -0.11765774967E+04 -0.22306091754E+03 -0.13368486755E+04  0.18012903189E+04  0.15294330000E+03 0.  0.
<mgrwt>
<rscale>  0 0.12072624E+04</rscale>
<asrwt>0</asrwt>
<pdfrwt beam="1">  1        2 0.37382757E+00 0.12072624E+04</pdfrwt>
<pdfrwt beam="2">  1       -2 0.26690292E+00 0.12072624E+04</pdfrwt>
<totfact> 0.18894558E-01</totfact>
</mgrwt>
</event>
<event>
 4    1  0.4880711E-008  0.2692588E+03  0.7818608E-02  0.1101705E+00
          2   -1    0    0  501    0  0.00000000000E+00  0.00000000000E+00  0.14438535571E+04  0.14438535571E+04  0.25500000000E-02 0. -1.
         -2   -1    0    0    0  501 -0.00000000000E+00 -0.00000000000E+00 -0.10948663466E+03  0.10948663469E+03  0.25500000000E-02 0.  1.
    8880022    1    1    2    0    0  0.71954327649E+02 -0.20959781780E+03  0.95722530825E+02  0.28576760911E+03  0.15294330000E+03 0.  1.
    8880022    1    1    2    0    0 -0.71954327649E+02  0.20959781780E+03  0.12386443917E+04  0.12675725827E+04  0.15294330000E+03 0.  0.
<mgrwt>
<rscale>  0 0.26925884E+03</rscale>
<asrwt>0</asrwt>
<pdfrwt beam="1">  1        2 0.22213130E+00 0.26925884E+03</pdfrwt>
<pdfrwt beam="2">  1       -2 0.16844099E-01 0.26925884E+03</pdfrwt>
<totfact> 0.41460210E+02</totfact>
</mgrwt>
</event>
<event>
 4    1  0.4880711E-008  0.6206474E+03  0.7818608E-02  0.9863472E-01
          2   -1    0    0  501    0  0.00000000000E+00  0.00000000000E+00  0.26269644320E+04  0.26269644320E+04  0.25500000000E-02 0. -1.
         -2   -1    0    0    0  501 -0.00000000000E+00 -0.00000000000E+00 -0.37413033459E+03  0.37413033460E+03  0.25500000000E-02 0.  1.
    8880022    1    1    2    0    0  0.24405921129E+03  0.54976959741E+03  0.22965228763E+04  0.23789116173E+04  0.15294330000E+03 0.  0.
    8880022    1    1    2    0    0 -0.24405921129E+03 -0.54976959741E+03 -0.43688778825E+02  0.62218314929E+03  0.15294330000E+03 0.  0.
<mgrwt>
<rscale>  0 0.62064737E+03</rscale>
<asrwt>0</asrwt>
<pdfrwt beam="1">  1        2 0.40414838E+00 0.62064737E+03</pdfrwt>
<pdfrwt beam="2">  1       -2 0.57558513E-01 0.62064737E+03</pdfrwt>
<totfact> 0.89482309E+00</totfact>
</mgrwt>
</event>
<event>
 4    1  0.4880711E-008  0.6607107E+03  0.7818608E-02  0.9786886E-01
          2   -1    0    0  501    0  0.00000000000E+00  0.00000000000E+00  0.90383276434E+03  0.90383276435E+03  0.25500000000E-02 0. -1.
         -2   -1    0    0    0  501 -0.00000000000E+00 -0.00000000000E+00 -0.54626286169E+03  0.54626286170E+03  0.25500000000E-02 0.  1.
    8880022    1    1    2    0    0  0.55465615070E+03  0.32481297062E+03 -0.67982742246E+02  0.66419892928E+03  0.15294330000E+03 0.  0.
    8880022    1    1    2    0    0 -0.55465615070E+03 -0.32481297062E+03  0.42555264490E+03  0.78589669677E+03  0.15294330000E+03 0.  0.
<mgrwt>
<rscale>  0 0.66071065E+03</rscale>
<asrwt>0</asrwt>
<pdfrwt beam="1">  1        2 0.13905119E+00 0.66071065E+03</pdfrwt>
<pdfrwt beam="2">  1       -2 0.84040442E-01 0.66071065E+03</pdfrwt>
<totfact> 0.36888176E+01</totfact>
</mgrwt>
</event>
<event>
 4    1  0.4880711E-008  0.8769664E+03  0.7818608E-02  0.9454842E-01
          2   -1    0    0  501    0  0.00000000000E+00  0.00000000000E+00  0.92852448308E+03  0.92852448308E+03  0.25500000000E-02 0. -1.
         -2   -1    0    0    0  501 -0.00000000000E+00 -0.00000000000E+00 -0.12534274303E+04  0.12534274303E+04  0.25500000000E-02 0.  1.
    8880022    1    1    2    0    0  0.30512437894E+03  0.80782268726E+03 -0.79784075728E+03  0.11855884225E+04  0.15294330000E+03 0.  0.
    8880022    1    1    2    0    0 -0.30512437894E+03 -0.80782268726E+03  0.47293781006E+03  0.99636349084E+03  0.15294330000E+03 0.  0.
<mgrwt>
<rscale>  0 0.87696638E+03</rscale>
<asrwt>0</asrwt>
<pdfrwt beam="1">  1        2 0.14284992E+00 0.87696638E+03</pdfrwt>
<pdfrwt beam="2">  1       -2 0.19283499E+00 0.87696638E+03</pdfrwt>
<totfact> 0.41857769E+00</totfact>
</mgrwt>
</event>
<event>
 4    1  0.4901039E-008  0.1162800E+04  0.7818608E-02  0.9146056E-01
          2   -1    0    0  501    0  0.00000000000E+00  0.00000000000E+00  0.17815136958E+04  0.17815136958E+04  0.25500000000E-02 0. -1.
         -2   -1    0    0    0  501 -0.00000000000E+00 -0.00000000000E+00 -0.13446264980E+04  0.13446264980E+04  0.25500000000E-02 0.  1.
    8880022    1    1    2    0    0  0.49833009278E+03 -0.10394124626E+04 -0.81313360730E+03  0.14189041776E+04  0.15294330000E+03 0.  0.
    8880022    1    1    2    0    0 -0.49833009278E+03  0.10394124626E+04  0.12500208051E+04  0.17072360162E+04  0.15294330000E+03 0.  0.
<mgrwt>
<rscale>  0 0.11627996E+04</rscale>
<asrwt>0</asrwt>
<pdfrwt beam="1">  1        2 0.27407903E+00 0.11627996E+04</pdfrwt>
<pdfrwt beam="2">  1       -2 0.20686562E+00 0.11627996E+04</pdfrwt>
<totfact> 0.10333234E+00</totfact>
</mgrwt>
</event>
<event>
 4    1  0.4880711E-008  0.9471108E+03  0.7818608E-02  0.9368534E-01
         -2   -1    0    0    0  501 -0.00000000000E+00  0.00000000000E+00  0.35853145604E+03  0.35853145605E+03  0.25500000000E-02 0.  1.
          2   -1    0    0  501    0  0.00000000000E+00 -0.00000000000E+00 -0.33087428262E+04  0.33087428262E+04  0.25500000000E-02 0. -1.
    8880022    1    1    2    0    0  0.65394032815E+03 -0.66782432964E+03 -0.23805662437E+04  0.25620528062E+04  0.15294330000E+03 0.  0.
    8880022    1    1    2    0    0 -0.65394032815E+03  0.66782432964E+03 -0.56964512647E+03  0.11052214761E+04  0.15294330000E+03 0.  0.
<mgrwt>
<rscale>  0 0.94711084E+03</rscale>
<asrwt>0</asrwt>
<pdfrwt beam="1">  1        2 0.50903734E+00 0.94711084E+03</pdfrwt>
<pdfrwt beam="2">  1       -2 0.55158688E-01 0.94711084E+03</pdfrwt>
<totfact> 0.35317220E+00</totfact>
</mgrwt>
</event>
<event>
 4    1  0.4880711E-008  0.8450668E+03  0.7818608E-02  0.9496982E-01
         -2   -1    0    0    0  501 -0.00000000000E+00  0.00000000000E+00  0.30216974120E+03  0.30216974121E+03  0.25500000000E-02 0.  1.
          2   -1    0    0  501    0  0.00000000000E+00 -0.00000000000E+00 -0.28003941290E+04  0.28003941290E+04  0.25500000000E-02 0. -1.
    8880022    1    1    2    0    0  0.77945219098E+03 -0.28844487166E+03 -0.63628835646E+03  0.10578282883E+04  0.15294330000E+03 0.  0.
    8880022    1    1    2    0    0 -0.77945219098E+03  0.28844487166E+03 -0.18619360314E+04  0.20447355819E+04  0.15294330000E+03 0.  0.
<mgrwt>
<rscale>  0 0.84506675E+03</rscale>
<asrwt>0</asrwt>
<pdfrwt beam="1">  1        2 0.43082985E+00 0.84506675E+03</pdfrwt>
<pdfrwt beam="2">  1       -2 0.46487654E-01 0.84506675E+03</pdfrwt>
<totfact> 0.10551367E+01</totfact>
</mgrwt>
</event>
<event>
 4    1  0.4880711E-008  0.3757997E+03  0.7818608E-02  0.1052497E+00
          2   -1    0    0  501    0  0.00000000000E+00  0.00000000000E+00  0.28292849940E+04  0.28292849940E+04  0.25500000000E-02 0. -1.
         -2   -1    0    0    0  501 -0.00000000000E+00 -0.00000000000E+00 -0.93610314664E+02  0.93610314699E+02  0.25500000000E-02 0.  1.
    8880022    1    1    2    0    0  0.33243214614E+03 -0.85572157267E+02  0.36936507670E+03  0.52693067740E+03  0.15294330000E+03 0.  0.
    8880022    1    1    2    0    0 -0.33243214614E+03  0.85572157267E+02  0.23663096026E+04  0.23959646313E+04  0.15294330000E+03 0. -1.
<mgrwt>
<rscale>  0 0.37579965E+03</rscale>
<asrwt>0</asrwt>
<pdfrwt beam="1">  1        2 0.43527467E+00 0.37579965E+03</pdfrwt>
<pdfrwt beam="2">  1       -2 0.14401585E-01 0.37579965E+03</pdfrwt>
<totfact> 0.93420980E+01</totfact>
</mgrwt>
</event>
<event>
 4    1  0.4880711E-008  0.2182419E+03  0.7818608E-02  0.1135201E+00
         -2   -1    0    0    0  501 -0.00000000000E+00  0.00000000000E+00  0.69033707733E+03  0.69033707733E+03  0.25500000000E-02 0.  1.
          2   -1    0    0  501    0  0.00000000000E+00 -0.00000000000E+00 -0.60377429747E+03  0.60377429747E+03  0.25500000000E-02 0. -1.
    8880022    1    1    2    0    0  0.71412895016E+02  0.13834042691E+03 -0.56568287066E+03  0.60632222330E+03  0.15294330000E+03 0.  0.
    8880022    1    1    2    0    0 -0.71412895016E+02 -0.13834042691E+03  0.65224565052E+03  0.68778915151E+03  0.15294330000E+03 0.  0.
<mgrwt>
<rscale>  0 0.21824190E+03</rscale>
<asrwt>0</asrwt>
<pdfrwt beam="1">  1        2 0.92888353E-01 0.21824190E+03</pdfrwt>
<pdfrwt beam="2">  1       -2 0.10620570E+00 0.21824190E+03</pdfrwt>
<totfact> 0.38259282E+01</totfact>
</mgrwt>
</event>
<event>
 4    1  0.4880711E-008  0.1016326E+04  0.7818608E-02  0.9290818E-01
          2   -1    0    0  501    0  0.00000000000E+00  0.00000000000E+00  0.91586642633E+03  0.91586642633E+03  0.25500000000E-02 0. -1.
         -2   -1    0    0    0  501 -0.00000000000E+00 -0.00000000000E+00 -0.21153924595E+04  0.21153924595E+04  0.25500000000E-02 0.  1.
    8880022    1    1    2    0    0 -0.26769727356E+03  0.96843392643E+03  0.43582156650E+03  0.11058291871E+04  0.15294330000E+03 0.  0.
    8880022    1    1    2    0    0  0.26769727356E+03 -0.96843392643E+03 -0.16353475997E+04  0.19254296988E+04  0.15294330000E+03 0.  0.
<mgrwt>
<rscale>  0 0.10163256E+04</rscale>
<asrwt>0</asrwt>
<pdfrwt beam="1">  1        2 0.14090253E+00 0.10163256E+04</pdfrwt>
<pdfrwt beam="2">  1       -2 0.32544499E+00 0.10163256E+04</pdfrwt>
<totfact> 0.63734049E-01</totfact>
</mgrwt>
</event>
<event>
 4    1  0.4880711E-008  0.7316912E+03  0.7818608E-02  0.9664520E-01
         -2   -1    0    0    0  501 -0.00000000000E+00  0.00000000000E+00  0.19785510569E+03  0.19785510571E+03  0.25500000000E-02 0.  1.
          2   -1    0    0  501    0  0.00000000000E+00 -0.00000000000E+00 -0.35715984628E+04  0.35715984628E+04  0.25500000000E-02 0. -1.
    8880022    1    1    2    0    0 -0.66020424555E+03 -0.27588173638E+03 -0.26147811521E+04  0.27152260504E+04  0.15294330000E+03 0.  0.
    8880022    1    1    2    0    0  0.66020424555E+03  0.27588173638E+03 -0.75896220497E+03  0.10542275181E+04  0.15294330000E+03 0.  0.
<mgrwt>
<rscale>  0 0.73169121E+03</rscale>
<asrwt>0</asrwt>
<pdfrwt beam="1">  1        2 0.54947664E+00 0.73169121E+03</pdfrwt>
<pdfrwt beam="2">  1       -2 0.30439250E-01 0.73169121E+03</pdfrwt>
<totfact> 0.78523417E+00</totfact>
</mgrwt>
</event>
<event>
 4    1  0.4880711E-008  0.7353299E+03  0.7818608E-02  0.9658651E-01
          2   -1    0    0  501    0  0.00000000000E+00  0.00000000000E+00  0.16817977462E+04  0.16817977462E+04  0.25500000000E-02 0. -1.
         -2   -1    0    0    0  501 -0.00000000000E+00 -0.00000000000E+00 -0.41344757582E+03  0.41344757582E+03  0.25500000000E-02 0.  1.
    8880022    1    1    2    0    0 -0.29354076755E+03  0.65662177701E+03  0.11281989448E+04  0.13466784517E+04  0.15294330000E+03 0.  0.
    8880022    1    1    2    0    0  0.29354076755E+03 -0.65662177701E+03  0.14015122558E+03  0.74856687030E+03  0.15294330000E+03 0.  0.
<mgrwt>
<rscale>  0 0.73532985E+03</rscale>
<asrwt>0</asrwt>
<pdfrwt beam="1">  1        2 0.25873811E+00 0.73532985E+03</pdfrwt>
<pdfrwt beam="2">  1       -2 0.63607320E-01 0.73532985E+03</pdfrwt>
<totfact> 0.23623795E+01</totfact>
</mgrwt>
</event>
<event>
 4    1  0.4880711E-008  0.1122079E+04  0.7818608E-02  0.9183936E-01
          2   -1    0    0  501    0  0.00000000000E+00  0.00000000000E+00  0.20792476739E+04  0.20792476739E+04  0.25500000000E-02 0. -1.
         -2   -1    0    0    0  501 -0.00000000000E+00 -0.00000000000E+00 -0.10440940551E+04  0.10440940551E+04  0.25500000000E-02 0.  1.
    8880022    1    1    2    0    0  0.57605086493E+03  0.95070183339E+03  0.15296991850E+04  0.18971135508E+04  0.15294330000E+03 0.  0.
    8880022    1    1    2    0    0 -0.57605086493E+03 -0.95070183339E+03 -0.49454556622E+03  0.12262281782E+04  0.15294330000E+03 0.  0.
<mgrwt>
<rscale>  0 0.11220785E+04</rscale>
<asrwt>0</asrwt>
<pdfrwt beam="1">  1        2 0.31988425E+00 0.11220785E+04</pdfrwt>
<pdfrwt beam="2">  1       -2 0.16062986E+00 0.11220785E+04</pdfrwt>
<totfact> 0.14775074E+00</totfact>
</mgrwt>
</event>
<event>
 4    1  0.4880711E-008  0.7927984E+03  0.7818608E-02  0.9570500E-01
          2   -1    0    0  501    0  0.00000000000E+00  0.00000000000E+00  0.78117178562E+03  0.78117178563E+03  0.25500000000E-02 0. -1.
         -2   -1    0    0    0  501 -0.00000000000E+00 -0.00000000000E+00 -0.11664311126E+04  0.11664311126E+04  0.25500000000E-02 0.  1.
    8880022    1    1    2    0    0 -0.69963666341E+03  0.34006800435E+03  0.34973944082E+03  0.86651430332E+03  0.15294330000E+03 0.  0.
    8880022    1    1    2    0    0  0.69963666341E+03 -0.34006800435E+03 -0.73499876777E+03  0.10810885949E+04  0.15294330000E+03 0.  0.
<mgrwt>
<rscale>  0 0.79279844E+03</rscale>
<asrwt>0</asrwt>
<pdfrwt beam="1">  1        2 0.12018027E+00 0.79279844E+03</pdfrwt>
<pdfrwt beam="2">  1       -2 0.17945094E+00 0.79279844E+03</pdfrwt>
<totfact> 0.65918301E+00</totfact>
</mgrwt>
</event>
<event>
 4    1  0.4880711E-008  0.5227246E+03  0.7818608E-02  0.1008012E+00
          2   -1    0    0  501    0  0.00000000000E+00  0.00000000000E+00  0.37637703710E+03  0.37637703711E+03  0.25500000000E-02 0. -1.
         -2   -1    0    0    0  501 -0.00000000000E+00 -0.00000000000E+00 -0.13580010584E+04  0.13580010584E+04  0.25500000000E-02 0.  1.
    8880022    1    1    2    0    0  0.49907325493E+03 -0.27843007458E+02 -0.10824153290E+04  0.12020249349E+04  0.15294330000E+03 0.  0.
    8880022    1    1    2    0    0 -0.49907325493E+03  0.27843007458E+02  0.10079130766E+03  0.53235316057E+03  0.15294330000E+03 0.  0.
<mgrwt>
<rscale>  0 0.52272459E+03</rscale>
<asrwt>0</asrwt>
<pdfrwt beam="1">  1        2 0.57904160E-01 0.52272459E+03</pdfrwt>
<pdfrwt beam="2">  1       -2 0.20892324E+00 0.52272459E+03</pdfrwt>
<totfact> 0.10391726E+01</totfact>
</mgrwt>
</event>
<event>
 4    1  0.4880711E-008  0.8979668E+03  0.7818608E-02  0.9428127E-01
          2   -1    0    0  501    0  0.00000000000E+00  0.00000000000E+00  0.24684482190E+04  0.24684482190E+04  0.25500000000E-02 0. -1.
         -2   -1    0    0    0  501 -0.00000000000E+00 -0.00000000000E+00 -0.50045258535E+03  0.50045258536E+03  0.25500000000E-02 0.  1.
    8880022    1    1    2    0    0 -0.72584952416E+02 -0.88186406083E+03  0.18587786532E+04  0.20643164805E+04  0.15294330000E+03 0.  0.
    8880022    1    1    2    0    0  0.72584952416E+02  0.88186406083E+03  0.10921698043E+03  0.90458432383E+03  0.15294330000E+03 0.  0.
<mgrwt>
<rscale>  0 0.89796684E+03</rscale>
<asrwt>0</asrwt>
<pdfrwt beam="1">  1        2 0.37976126E+00 0.89796684E+03</pdfrwt>
<pdfrwt beam="2">  1       -2 0.76992706E-01 0.89796684E+03</pdfrwt>
<totfact> 0.56010518E+00</totfact>
</mgrwt>
</event>
<event>
 4    1  0.4880711E-008  0.6492273E+03  0.7818608E-02  0.9808230E-01
         -2   -1    0    0    0  501 -0.00000000000E+00  0.00000000000E+00  0.24804188208E+03  0.24804188210E+03  0.25500000000E-02 0.  1.
          2   -1    0    0  501    0  0.00000000000E+00 -0.00000000000E+00 -0.29180164525E+04  0.29180164525E+04  0.25500000000E-02 0. -1.
    8880022    1    1    2    0    0 -0.13205123410E+03  0.61698206637E+03 -0.31193583207E+03  0.72027773462E+03  0.15294330000E+03 0.  0.
    8880022    1    1    2    0    0  0.13205123410E+03 -0.61698206637E+03 -0.23580387383E+04  0.24457806000E+04  0.15294330000E+03 0.  0.
<mgrwt>
<rscale>  0 0.64922727E+03</rscale>
<asrwt>0</asrwt>
<pdfrwt beam="1">  1        2 0.44892558E+00 0.64922727E+03</pdfrwt>
<pdfrwt beam="2">  1       -2 0.38160292E-01 0.64922727E+03</pdfrwt>
<totfact> 0.13701160E+01</totfact>
</mgrwt>
</event>
<event>
 4    1  0.4880711E-008  0.2248952E+03  0.7818608E-02  0.1130285E+00
         -2   -1    0    0    0  501 -0.00000000000E+00  0.00000000000E+00  0.94991509533E+02  0.94991509567E+02  0.25500000000E-02 0.  1.
          2   -1    0    0  501    0  0.00000000000E+00 -0.00000000000E+00 -0.13263721154E+04  0.13263721154E+04  0.25500000000E-02 0. -1.
    8880022    1    1    2    0    0 -0.24410918685E+02 -0.16306534635E+03 -0.11655255068E+04  0.11870246670E+04  0.15294330000E+03 0.  0.
    8880022    1    1    2    0    0  0.24410918685E+02  0.16306534635E+03 -0.65855099102E+02  0.23433895797E+03  0.15294330000E+03 0.  0.
<mgrwt>
<rscale>  0 0.22489520E+03</rscale>
<asrwt>0</asrwt>
<pdfrwt beam="1">  1        2 0.20405724E+00 0.22489520E+03</pdfrwt>
<pdfrwt beam="2">  1       -2 0.14614079E-01 0.22489520E+03</pdfrwt>
<totfact> 0.61198463E+02</totfact>
</mgrwt>
</event>
<event>
 4    1  0.4880711E-008  0.7851157E+03  0.7818608E-02  0.9581815E-01
         -2   -1    0    0    0  501 -0.00000000000E+00  0.00000000000E+00  0.21309859214E+03  0.21309859215E+03  0.25500000000E-02 0.  1.
          2   -1    0    0  501    0  0.00000000000E+00 -0.00000000000E+00 -0.36805015887E+04  0.36805015887E+04  0.25500000000E-02 0. -1.
    8880022    1    1    2    0    0 -0.10152549522E+03 -0.76335286501E+03 -0.83294618811E+03  0.11446423144E+04  0.15294330000E+03 0.  0.
    8880022    1    1    2    0    0  0.10152549522E+03  0.76335286501E+03 -0.26344568085E+04  0.27489578664E+04  0.15294330000E+03 0.  0.
<mgrwt>
<rscale>  0 0.78511571E+03</rscale>
<asrwt>0</asrwt>
<pdfrwt beam="1">  1        2 0.56623097E+00 0.78511571E+03</pdfrwt>
<pdfrwt beam="2">  1       -2 0.32784402E-01 0.78511571E+03</pdfrwt>
<totfact> 0.56653114E+00</totfact>
</mgrwt>
</event>
<event>
 4    1  0.4880711E-008  0.8675322E+03  0.7818608E-02  0.9467103E-01
          2   -1    0    0  501    0  0.00000000000E+00  0.00000000000E+00  0.84565264999E+03  0.84565264999E+03  0.25500000000E-02 0. -1.
         -2   -1    0    0    0  501 -0.00000000000E+00 -0.00000000000E+00 -0.16570717960E+04  0.16570717960E+04  0.25500000000E-02 0.  1.
    8880022    1    1    2    0    0  0.29551535497E+03  0.80118103977E+03 -0.12571155316E+04  0.15274002410E+04  0.15294330000E+03 0.  0.
    8880022    1    1    2    0    0 -0.29551535497E+03 -0.80118103977E+03  0.44569638564E+03  0.97532420491E+03  0.15294330000E+03 0.  0.
<mgrwt>
<rscale>  0 0.86753215E+03</rscale>
<asrwt>0</asrwt>
<pdfrwt beam="1">  1        2 0.13010041E+00 0.86753215E+03</pdfrwt>
<pdfrwt beam="2">  1       -2 0.25493412E+00 0.86753215E+03</pdfrwt>
<totfact> 0.19444107E+00</totfact>
</mgrwt>
</event>
<event>
 4    1  0.4880711E-008  0.4218932E+03  0.7818608E-02  0.1036452E+00
         -2   -1    0    0    0  501 -0.00000000000E+00  0.00000000000E+00  0.36941037156E+03  0.36941037157E+03  0.25500000000E-02 0.  1.
          2   -1    0    0  501    0  0.00000000000E+00 -0.00000000000E+00 -0.53220490903E+03  0.53220490903E+03  0.25500000000E-02 0. -1.
    8880022    1    1    2    0    0  0.34011394965E+03  0.19729345766E+03  0.57293936324E+02  0.42576572823E+03  0.15294330000E+03 0.  0.
    8880022    1    1    2    0    0 -0.34011394965E+03 -0.19729345766E+03 -0.22008847379E+03  0.47584955237E+03  0.15294330000E+03 0.  0.
<mgrwt>
<rscale>  0 0.42189319E+03</rscale>
<asrwt>0</asrwt>
<pdfrwt beam="1">  1        2 0.81877678E-01 0.42189319E+03</pdfrwt>
<pdfrwt beam="2">  1       -2 0.56832365E-01 0.42189319E+03</pdfrwt>
<totfact> 0.17099518E+02</totfact>
</mgrwt>
</event>
<event>
 4    1  0.4880711E-008  0.3382385E+03  0.7818608E-02  0.1067549E+00
          2   -1    0    0  501    0  0.00000000000E+00  0.00000000000E+00  0.79245033905E+03  0.79245033906E+03  0.25500000000E-02 0. -1.
         -2   -1    0    0    0  501 -0.00000000000E+00 -0.00000000000E+00 -0.37470774368E+03  0.37470774369E+03  0.25500000000E-02 0.  1.
    8880022    1    1    2    0    0 -0.29165765917E+03  0.77132771154E+02  0.66641943958E+03  0.74734207496E+03  0.15294330000E+03 0.  0.
    8880022    1    1    2    0    0  0.29165765917E+03 -0.77132771154E+02 -0.24867684420E+03  0.41981600779E+03  0.15294330000E+03 0.  0.
<mgrwt>
<rscale>  0 0.33823854E+03</rscale>
<asrwt>0</asrwt>
<pdfrwt beam="1">  1        2 0.12191544E+00 0.33823854E+03</pdfrwt>
<pdfrwt beam="2">  1       -2 0.57647345E-01 0.33823854E+03</pdfrwt>
<totfact> 0.10340588E+02</totfact>
</mgrwt>
</event>
<event>
 4    1  0.5316473E-008  0.1005956E+04  0.7818608E-02  0.9302036E-01
          2   -1    0    0  501    0  0.00000000000E+00  0.00000000000E+00  0.14470384344E+04  0.14470384344E+04  0.25500000000E-02 0. -1.
         -2   -1    0    0    0  501 -0.00000000000E+00 -0.00000000000E+00 -0.11211845377E+04  0.11211845377E+04  0.25500000000E-02 0.  1.
    8880022    1    1    2    0    0  0.33343029194E+02 -0.99370236344E+03 -0.62475148538E+03  0.11841715316E+04  0.15294330000E+03 0.  0.
    8880022    1    1    2    0    0 -0.33343029194E+02  0.99370236344E+03  0.95060538201E+03  0.13840514405E+04  0.15294330000E+03 0.  0.
<mgrwt>
<rscale>  0 0.10059562E+04</rscale>
<asrwt>0</asrwt>
<pdfrwt beam="1">  1        2 0.22262130E+00 0.10059562E+04</pdfrwt>
<pdfrwt beam="2">  1       -2 0.17248993E+00 0.10059562E+04</pdfrwt>
<totfact> 0.27602569E+00</totfact>
</mgrwt>
</event>
<event>
 4    1  0.4880711E-008  0.9520414E+03  0.7818608E-02  0.9362768E-01
         -2   -1    0    0    0  501 -0.00000000000E+00  0.00000000000E+00  0.93221149723E+03  0.93221149724E+03  0.25500000000E-02 0.  1.
          2   -1    0    0  501    0  0.00000000000E+00 -0.00000000000E+00 -0.10323794087E+04  0.10323794087E+04  0.25500000000E-02 0. -1.
    8880022    1    1    2    0    0  0.68161582162E+03 -0.64683149540E+03  0.18689533272E+03  0.97021267263E+03  0.15294330000E+03 0.  0.
    8880022    1    1    2    0    0 -0.68161582162E+03  0.64683149540E+03 -0.28706324420E+03  0.99437823332E+03  0.15294330000E+03 0.  0.
<mgrwt>
<rscale>  0 0.95204137E+03</rscale>
<asrwt>0</asrwt>
<pdfrwt beam="1">  1        2 0.15882760E+00 0.95204137E+03</pdfrwt>
<pdfrwt beam="2">  1       -2 0.14341715E+00 0.95204137E+03</pdfrwt>
<totfact> 0.80671191E+00</totfact>
</mgrwt>
</event>
<event>
 4    1  0.4880711E-008  0.2537663E+03  0.7818608E-02  0.1110947E+00
          2   -1    0    0  501    0  0.00000000000E+00  0.00000000000E+00  0.57934769066E+03  0.57934769067E+03  0.25500000000E-02 0. -1.
         -2   -1    0    0    0  501 -0.00000000000E+00 -0.00000000000E+00 -0.21148185713E+03  0.21148185714E+03  0.25500000000E-02 0.  1.
    8880022    1    1    2    0    0  0.16027283450E+03  0.12376706523E+03 -0.88415719831E+02  0.26872785573E+03  0.15294330000E+03 0.  0.
    8880022    1    1    2    0    0 -0.16027283450E+03 -0.12376706523E+03  0.45628155337E+03  0.52210169208E+03  0.15294330000E+03 0.  0.
<mgrwt>
<rscale>  0 0.25376627E+03</rscale>
<asrwt>0</asrwt>
<pdfrwt beam="1">  1        2 0.89130413E-01 0.25376627E+03</pdfrwt>
<pdfrwt beam="2">  1       -2 0.32535671E-01 0.25376627E+03</pdfrwt>
<totfact> 0.46592313E+02</totfact>
</mgrwt>
</event>
<event>
 4    1  0.4880711E-008  0.3272960E+03  0.7818608E-02  0.1072340E+00
         -2   -1    0    0    0  501 -0.00000000000E+00  0.00000000000E+00  0.13976561964E+04  0.13976561964E+04  0.25500000000E-02 0.  1.
          2   -1    0    0  501    0  0.00000000000E+00 -0.00000000000E+00 -0.50601063088E+03  0.50601063089E+03  0.25500000000E-02 0. -1.
    8880022    1    1    2    0    0 -0.70281103477E+02  0.28069833500E+03 -0.43096607947E+03  0.54116023823E+03  0.15294330000E+03 0.  0.
    8880022    1    1    2    0    0  0.70281103477E+02 -0.28069833500E+03  0.13226116450E+04  0.13625065891E+04  0.15294330000E+03 0.  1.
<mgrwt>
<rscale>  0 0.32729595E+03</rscale>
<asrwt>0</asrwt>
<pdfrwt beam="1">  1        2 0.77847789E-01 0.32729595E+03</pdfrwt>
<pdfrwt beam="2">  1       -2 0.21502403E+00 0.32729595E+03</pdfrwt>
<totfact> 0.71043955E+00</totfact>
</mgrwt>
</event>
<event>
 4    1  0.4880711E-008  0.3479087E+03  0.7818608E-02  0.1063477E+00
         -2   -1    0    0    0  501 -0.00000000000E+00  0.00000000000E+00  0.41239558048E+03  0.41239558049E+03  0.25500000000E-02 0.  1.
          2   -1    0    0  501    0  0.00000000000E+00 -0.00000000000E+00 -0.13900739527E+04  0.13900739527E+04  0.25500000000E-02 0. -1.
    8880022    1    1    2    0    0  0.13285222951E+02 -0.31220556439E+03  0.31161561344E+03  0.46705969120E+03  0.15294330000E+03 0.  0.
    8880022    1    1    2    0    0 -0.13285222951E+02  0.31220556439E+03 -0.12892939856E+04  0.13354098419E+04  0.15294330000E+03 0.  0.
<mgrwt>
<rscale>  0 0.34790870E+03</rscale>
<asrwt>0</asrwt>
<pdfrwt beam="1">  1        2 0.21385753E+00 0.34790870E+03</pdfrwt>
<pdfrwt beam="2">  1       -2 0.63445474E-01 0.34790870E+03</pdfrwt>
<totfact> 0.36659994E+01</totfact>
</mgrwt>
</event>
<event>
 4    1  0.4880711E-008  0.3517187E+03  0.7818608E-02  0.1061912E+00
         -2   -1    0    0    0  501 -0.00000000000E+00  0.00000000000E+00  0.66908397795E+03  0.66908397795E+03  0.25500000000E-02 0.  1.
          2   -1    0    0  501    0  0.00000000000E+00 -0.00000000000E+00 -0.13363520442E+04  0.13363520442E+04  0.25500000000E-02 0. -1.
    8880022    1    1    2    0    0  0.17304165821E+03 -0.26527533341E+03  0.59713822843E+03  0.69302246346E+03  0.15294330000E+03 0.  0.
    8880022    1    1    2    0    0 -0.17304165821E+03  0.26527533341E+03 -0.12644062946E+04  0.13124135587E+04  0.15294330000E+03 0.  0.
<mgrwt>
<rscale>  0 0.35171874E+03</rscale>
<asrwt>0</asrwt>
<pdfrwt beam="1">  1        2 0.20559262E+00 0.35171874E+03</pdfrwt>
<pdfrwt beam="2">  1       -2 0.10293600E+00 0.35171874E+03</pdfrwt>
<totfact> 0.13333199E+01</totfact>
</mgrwt>
</event>
<event>
 4    1  0.4880711E-008  0.3696412E+03  0.7818608E-02  0.1054830E+00
          2   -1    0    0  501    0  0.00000000000E+00  0.00000000000E+00  0.94546446474E+03  0.94546446474E+03  0.25500000000E-02 0. -1.
         -2   -1    0    0    0  501 -0.00000000000E+00 -0.00000000000E+00 -0.21898079514E+03  0.21898079515E+03  0.25500000000E-02 0.  1.
    8880022    1    1    2    0    0 -0.64354829461E+02 -0.33030502433E+03  0.23724472895E+02  0.37040175054E+03  0.15294330000E+03 0.  1.
    8880022    1    1    2    0    0  0.64354829461E+02  0.33030502433E+03  0.70275919671E+03  0.79404350935E+03  0.15294330000E+03 0. -1.
<mgrwt>
<rscale>  0 0.36964119E+03</rscale>
<asrwt>0</asrwt>
<pdfrwt beam="1">  1        2 0.14545607E+00 0.36964119E+03</pdfrwt>
<pdfrwt beam="2">  1       -2 0.33689354E-01 0.36964119E+03</pdfrwt>
<totfact> 0.23377585E+02</totfact>
</mgrwt>
</event>
<event>
 4    1  0.4880711E-008  0.8276043E+03  0.7818608E-02  0.9520899E-01
          2   -1    0    0  501    0  0.00000000000E+00  0.00000000000E+00  0.11332157312E+04  0.11332157312E+04  0.25500000000E-02 0. -1.
         -2   -1    0    0    0  501 -0.00000000000E+00 -0.00000000000E+00 -0.13143595429E+04  0.13143595429E+04  0.25500000000E-02 0.  1.
    8880022    1    1    2    0    0 -0.18224530709E+03  0.79266882187E+03  0.80884736173E+03  0.11572220706E+04  0.15294330000E+03 0.  0.
    8880022    1    1    2    0    0  0.18224530709E+03 -0.79266882187E+03 -0.98999117347E+03  0.12903532035E+04  0.15294330000E+03 0.  0.
<mgrwt>
<rscale>  0 0.82760429E+03</rscale>
<asrwt>0</asrwt>
<pdfrwt beam="1">  1        2 0.17434088E+00 0.82760429E+03</pdfrwt>
<pdfrwt beam="2">  1       -2 0.20220916E+00 0.82760429E+03</pdfrwt>
<totfact> 0.27127789E+00</totfact>
</mgrwt>
</event>
<event>
 4    1  0.4880711E-008  0.1413783E+04  0.7818608E-02  0.8943902E-01
         -2   -1    0    0    0  501 -0.00000000000E+00  0.00000000000E+00  0.10423419336E+04  0.10423419336E+04  0.25500000000E-02 0.  1.
          2   -1    0    0  501    0  0.00000000000E+00 -0.00000000000E+00 -0.42742955206E+04  0.42742955206E+04  0.25500000000E-02 0. -1.
    8880022    1    1    2    0    0  0.95694732588E+03  0.10293894386E+04  0.35793442658E+03  0.14583893539E+04  0.15294330000E+03 0.  0.
    8880022    1    1    2    0    0 -0.95694732588E+03 -0.10293894386E+04 -0.35898880135E+04  0.38582481003E+04  0.15294330000E+03 0.  0.
<mgrwt>
<rscale>  0 0.14137830E+04</rscale>
<asrwt>0</asrwt>
<pdfrwt beam="1">  1        2 0.65758392E+00 0.14137830E+04</pdfrwt>
<pdfrwt beam="2">  1       -2 0.16036030E+00 0.14137830E+04</pdfrwt>
<totfact> 0.48982302E-02</totfact>
</mgrwt>
</event>
<event>
 4    1  0.4880711E-008  0.8074478E+03  0.7818608E-02  0.9549299E-01
         -2   -1    0    0    0  501 -0.00000000000E+00  0.00000000000E+00  0.49281807991E+03  0.49281807992E+03  0.25500000000E-02 0.  1.
          2   -1    0    0  501    0  0.00000000000E+00 -0.00000000000E+00 -0.19258348339E+04  0.19258348340E+04  0.25500000000E-02 0. -1.
    8880022    1    1    2    0    0 -0.78428537616E+03  0.11608914408E+03 -0.13931403559E+04  0.16102210857E+04  0.15294330000E+03 0.  0.
    8880022    1    1    2    0    0  0.78428537616E+03 -0.11608914408E+03 -0.39876398139E+02  0.80843182816E+03  0.15294330000E+03 0.  0.
<mgrwt>
<rscale>  0 0.80744777E+03</rscale>
<asrwt>0</asrwt>
<pdfrwt beam="1">  1        2 0.29628228E+00 0.80744777E+03</pdfrwt>
<pdfrwt beam="2">  1       -2 0.75818167E-01 0.80744777E+03</pdfrwt>
<totfact> 0.11739557E+01</totfact>
</mgrwt>
</event>
<event>
 4    1  0.4880711E-008  0.3247200E+03  0.7818608E-02  0.1073497E+00
         -2   -1    0    0    0  501 -0.00000000000E+00  0.00000000000E+00  0.22349756897E+03  0.22349756898E+03  0.25500000000E-02 0.  1.
          2   -1    0    0  501    0  0.00000000000E+00 -0.00000000000E+00 -0.12105854961E+04  0.12105854961E+04  0.25500000000E-02 0. -1.
    8880022    1    1    2    0    0  0.24815421097E+03  0.14307657552E+03 -0.10537010195E+04  0.11026009751E+04  0.15294330000E+03 0.  0.
    8880022    1    1    2    0    0 -0.24815421097E+03 -0.14307657552E+03  0.66613092334E+02  0.33148208997E+03  0.15294330000E+03 0.  0.
<mgrwt>
<rscale>  0 0.32471999E+03</rscale>
<asrwt>0</asrwt>
<pdfrwt beam="1">  1        2 0.18624392E+00 0.32471999E+03</pdfrwt>
<pdfrwt beam="2">  1       -2 0.34384242E-01 0.32471999E+03</pdfrwt>
<totfact> 0.15672845E+02</totfact>
</mgrwt>
</event>
<event>
 4    1  0.4880711E-008  0.5498879E+03  0.7818608E-02  0.1001520E+00
          2   -1    0    0  501    0  0.00000000000E+00  0.00000000000E+00  0.23244511556E+04  0.23244511556E+04  0.25500000000E-02 0. -1.
         -2   -1    0    0    0  501 -0.00000000000E+00 -0.00000000000E+00 -0.19309788504E+03  0.19309788506E+03  0.25500000000E-02 0.  1.
    8880022    1    1    2    0    0 -0.37899912327E+03 -0.36789224672E+03  0.34660331144E+03  0.65000811468E+03  0.15294330000E+03 0.  0.
    8880022    1    1    2    0    0  0.37899912327E+03  0.36789224672E+03  0.17847499591E+04  0.18675409260E+04  0.15294330000E+03 0.  0.
<mgrwt>
<rscale>  0 0.54988789E+03</rscale>
<asrwt>0</asrwt>
<pdfrwt beam="1">  1        2 0.35760789E+00 0.54988789E+03</pdfrwt>
<pdfrwt beam="2">  1       -2 0.29707365E-01 0.54988789E+03</pdfrwt>
<totfact> 0.48996141E+01</totfact>
</mgrwt>
</event>
<event>
 4    1  0.4880711E-008  0.5294390E+03  0.7818608E-02  0.1006368E+00
          2   -1    0    0  501    0  0.00000000000E+00  0.00000000000E+00  0.13808285568E+04  0.13808285568E+04  0.25500000000E-02 0. -1.
         -2   -1    0    0    0  501 -0.00000000000E+00 -0.00000000000E+00 -0.40785012768E+03  0.40785012769E+03  0.25500000000E-02 0.  1.
    8880022    1    1    2    0    0  0.50487216885E+03  0.44922986716E+02 -0.14733980780E+03  0.54955859887E+03  0.15294330000E+03 0.  0.
    8880022    1    1    2    0    0 -0.50487216885E+03 -0.44922986716E+02  0.11203182369E+04  0.12391200856E+04  0.15294330000E+03 0.  0.
<mgrwt>
<rscale>  0 0.52943898E+03</rscale>
<asrwt>0</asrwt>
<pdfrwt beam="1">  1        2 0.21243516E+00 0.52943898E+03</pdfrwt>
<pdfrwt beam="2">  1       -2 0.62746174E-01 0.52943898E+03</pdfrwt>
<totfact> 0.36699197E+01</totfact>
</mgrwt>
</event>
<event>
 4    1  0.4880711E-008  0.4664696E+03  0.7818608E-02  0.1022921E+00
          2   -1    0    0  501    0  0.00000000000E+00  0.00000000000E+00  0.76776084134E+03  0.76776084135E+03  0.25500000000E-02 0. -1.
         -2   -1    0    0    0  501 -0.00000000000E+00 -0.00000000000E+00 -0.10213990243E+04  0.10213990243E+04  0.25500000000E-02 0.  1.
    8880022    1    1    2    0    0 -0.38437599621E+03  0.21553958158E+03  0.63358653576E+03  0.78678190689E+03  0.15294330000E+03 0.  0.
    8880022    1    1    2    0    0  0.38437599621E+03 -0.21553958158E+03 -0.88722471871E+03  0.10023779588E+04  0.15294330000E+03 0.  0.
<mgrwt>
<rscale>  0 0.46646958E+03</rscale>
<asrwt>0</asrwt>
<pdfrwt beam="1">  1        2 0.11811705E+00 0.46646958E+03</pdfrwt>
<pdfrwt beam="2">  1       -2 0.15713831E+00 0.46646958E+03</pdfrwt>
<totfact> 0.10182940E+01</totfact>
</mgrwt>
</event>
<event>
 4    1  0.4880711E-008  0.1804464E+04  0.7818608E-02  0.8703929E-01
          2   -1    0    0  501    0  0.00000000000E+00  0.00000000000E+00  0.34356059985E+04  0.34356059985E+04  0.25500000000E-02 0. -1.
         -2   -1    0    0    0  501 -0.00000000000E+00 -0.00000000000E+00 -0.13732781327E+04  0.13732781327E+04  0.25500000000E-02 0.  1.
    8880022    1    1    2    0    0  0.11902096659E+04  0.13476270297E+04 -0.30727985207E+03  0.18304398981E+04  0.15294330000E+03 0.  0.
    8880022    1    1    2    0    0 -0.11902096659E+04 -0.13476270297E+04  0.23696077179E+04  0.29784442331E+04  0.15294330000E+03 0.  0.
<mgrwt>
<rscale>  0 0.18044637E+04</rscale>
<asrwt>0</asrwt>
<pdfrwt beam="1">  1        2 0.52855476E+00 0.18044637E+04</pdfrwt>
<pdfrwt beam="2">  1       -2 0.21127356E+00 0.18044637E+04</pdfrwt>
<totfact> 0.92270872E-02</totfact>
</mgrwt>
</event>
<event>
 4    1  0.4880711E-008  0.2156236E+03  0.7818608E-02  0.1137189E+00
         -2   -1    0    0    0  501 -0.00000000000E+00  0.00000000000E+00  0.42596436254E+03  0.42596436255E+03  0.25500000000E-02 0.  1.
          2   -1    0    0  501    0  0.00000000000E+00 -0.00000000000E+00 -0.14472941180E+04  0.14472941180E+04  0.25500000000E-02 0. -1.
    8880022    1    1    2    0    0 -0.56062616367E+02 -0.14127587488E+03 -0.14112835275E+04  0.14276605821E+04  0.15294330000E+03 0.  0.
    8880022    1    1    2    0    0  0.56062616367E+02  0.14127587488E+03  0.38995377201E+03  0.44559789844E+03  0.15294330000E+03 0.  1.
<mgrwt>
<rscale>  0 0.21562361E+03</rscale>
<asrwt>0</asrwt>
<pdfrwt beam="1">  1        2 0.22266063E+00 0.21562361E+03</pdfrwt>
<pdfrwt beam="2">  1       -2 0.65532979E-01 0.21562361E+03</pdfrwt>
<totfact> 0.33187258E+01</totfact>
</mgrwt>
</event>
<event>
 4    1  0.4880711E-008  0.4471260E+03  0.7818608E-02  0.1028583E+00
         -2   -1    0    0    0  501 -0.00000000000E+00  0.00000000000E+00  0.26336749190E+03  0.26336749191E+03  0.25500000000E-02 0.  1.
          2   -1    0    0  501    0  0.00000000000E+00 -0.00000000000E+00 -0.26496203765E+04  0.26496203765E+04  0.25500000000E-02 0. -1.
    8880022    1    1    2    0    0 -0.21635849040E+03  0.36016528917E+03  0.37164385669E+02  0.44866789106E+03  0.15294330000E+03 0.  0.
    8880022    1    1    2    0    0  0.21635849040E+03 -0.36016528917E+03 -0.24234172703E+04  0.24643199773E+04  0.15294330000E+03 0.  0.
<mgrwt>
<rscale>  0 0.44712603E+03</rscale>
<asrwt>0</asrwt>
<pdfrwt beam="1">  1        2 0.40763389E+00 0.44712603E+03</pdfrwt>
<pdfrwt beam="2">  1       -2 0.40518077E-01 0.44712603E+03</pdfrwt>
<totfact> 0.18348106E+01</totfact>
</mgrwt>
</event>
<event>
 4    1  0.4880711E-008  0.1411794E+04  0.7818608E-02  0.8945325E-01
          2   -1    0    0  501    0  0.00000000000E+00  0.00000000000E+00  0.22533443705E+04  0.22533443705E+04  0.25500000000E-02 0. -1.
         -2   -1    0    0    0  501 -0.00000000000E+00 -0.00000000000E+00 -0.11055382405E+04  0.11055382405E+04  0.25500000000E-02 0.  1.
    8880022    1    1    2    0    0  0.12796988395E+04 -0.57631792426E+03 -0.17698769578E+03  0.14228449554E+04  0.15294330000E+03 0.  0.
    8880022    1    1    2    0    0 -0.12796988395E+04  0.57631792426E+03  0.13247938258E+04  0.19360376555E+04  0.15294330000E+03 0.  0.
<mgrwt>
<rscale>  0 0.14117943E+04</rscale>
<asrwt>0</asrwt>
<pdfrwt beam="1">  1        2 0.34666836E+00 0.14117943E+04</pdfrwt>
<pdfrwt beam="2">  1       -2 0.17008281E+00 0.14117943E+04</pdfrwt>
<totfact> 0.97471185E-01</totfact>
</mgrwt>
</event>
<event>
 4    1  0.4880711E-008  0.3861181E+03  0.7818608E-02  0.1048695E+00
          2   -1    0    0  501    0  0.00000000000E+00  0.00000000000E+00  0.50839117237E+03  0.50839117237E+03  0.25500000000E-02 0. -1.
         -2   -1    0    0    0  501 -0.00000000000E+00 -0.00000000000E+00 -0.35404119398E+03  0.35404119399E+03  0.25500000000E-02 0.  1.
    8880022    1    1    2    0    0 -0.30392813123E+03  0.18254650807E+03  0.25585587742E+03  0.46319479659E+03  0.15294330000E+03 0. -1.
    8880022    1    1    2    0    0  0.30392813123E+03 -0.18254650807E+03 -0.10150589903E+03  0.39923756977E+03  0.15294330000E+03 0.  0.
<mgrwt>
<rscale>  0 0.38611810E+03</rscale>
<asrwt>0</asrwt>
<pdfrwt beam="1">  1        2 0.78214026E-01 0.38611810E+03</pdfrwt>
<pdfrwt beam="2">  1       -2 0.54467876E-01 0.38611810E+03</pdfrwt>
<totfact> 0.19722608E+02</totfact>
</mgrwt>
</event>
<event>
 4    1  0.4880711E-008  0.4559377E+03  0.7818608E-02  0.1025966E+00
         -2   -1    0    0    0  501 -0.00000000000E+00  0.00000000000E+00  0.13599668012E+03  0.13599668014E+03  0.25500000000E-02 0.  1.
          2   -1    0    0  501    0  0.00000000000E+00 -0.00000000000E+00 -0.16940300949E+04  0.16940300949E+04  0.25500000000E-02 0. -1.
    8880022    1    1    2    0    0 -0.22297825199E+03  0.36710796603E+03 -0.49304345281E+03  0.67154378781E+03  0.15294330000E+03 0.  0.
    8880022    1    1    2    0    0  0.22297825199E+03 -0.36710796603E+03 -0.10649899620E+04  0.11584829872E+04  0.15294330000E+03 0.  0.
<mgrwt>
<rscale>  0 0.45593773E+03</rscale>
<asrwt>0</asrwt>
<pdfrwt beam="1">  1        2 0.26062000E+00 0.45593773E+03</pdfrwt>
<pdfrwt beam="2">  1       -2 0.20922567E-01 0.45593773E+03</pdfrwt>
<totfact> 0.20431974E+02</totfact>
</mgrwt>
</event>
<event>
 4    1  0.4880711E-008  0.1074579E+04  0.7818608E-02  0.9230329E-01
          2   -1    0    0  501    0  0.00000000000E+00  0.00000000000E+00  0.10554852482E+04  0.10554852482E+04  0.25500000000E-02 0. -1.
         -2   -1    0    0    0  501 -0.00000000000E+00 -0.00000000000E+00 -0.14829193031E+04  0.14829193031E+04  0.25500000000E-02 0.  1.
    8880022    1    1    2    0    0  0.10540391618E+04  0.14258355848E+03  0.43625035188E+03  0.11597562883E+04  0.15294330000E+03 0.  0.
    8880022    1    1    2    0    0 -0.10540391618E+04 -0.14258355848E+03 -0.86368440680E+03  0.13786482631E+04  0.15294330000E+03 0.  0.
<mgrwt>
<rscale>  0 0.10745791E+04</rscale>
<asrwt>0</asrwt>
<pdfrwt beam="1">  1        2 0.16238235E+00 0.10745791E+04</pdfrwt>
<pdfrwt beam="2">  1       -2 0.22814143E+00 0.10745791E+04</pdfrwt>
<totfact> 0.20103405E+00</totfact>
</mgrwt>
</event>
<event>
 4    1  0.4880711E-008  0.7094280E+03  0.7818608E-02  0.9701243E-01
          2   -1    0    0  501    0  0.00000000000E+00  0.00000000000E+00  0.97314675934E+03  0.97314675935E+03  0.25500000000E-02 0. -1.
         -2   -1    0    0    0  501 -0.00000000000E+00 -0.00000000000E+00 -0.73558005367E+03  0.73558005368E+03  0.25500000000E-02 0.  1.
    8880022    1    1    2    0    0 -0.54863018563E+03 -0.42296737462E+03 -0.34675774793E+03  0.78963856880E+03  0.15294330000E+03 0.  0.
    8880022    1    1    2    0    0  0.54863018563E+03  0.42296737462E+03  0.58432445360E+03  0.91908824422E+03  0.15294330000E+03 0.  0.
<mgrwt>
<rscale>  0 0.70942803E+03</rscale>
<asrwt>0</asrwt>
<pdfrwt beam="1">  1        2 0.14971489E+00 0.70942803E+03</pdfrwt>
<pdfrwt beam="2">  1       -2 0.11316616E+00 0.70942803E+03</pdfrwt>
<totfact> 0.16415479E+01</totfact>
</mgrwt>
</event>
<event>
 4    1  0.4880711E-008  0.4555504E+03  0.7818608E-02  0.1026080E+00
          2   -1    0    0  501    0  0.00000000000E+00  0.00000000000E+00  0.33374624803E+04  0.33374624803E+04  0.25500000000E-02 0. -1.
         -2   -1    0    0    0  501 -0.00000000000E+00 -0.00000000000E+00 -0.36147409327E+03  0.36147409328E+03  0.25500000000E-02 0.  1.
    8880022    1    1    2    0    0 -0.25192438227E+03  0.34737384980E+03 -0.19489988190E+03  0.49549177883E+03  0.15294330000E+03 0.  1.
    8880022    1    1    2    0    0  0.25192438227E+03 -0.34737384980E+03  0.31708882689E+04  0.32034447947E+04  0.15294330000E+03 0.  0.
<mgrwt>
<rscale>  0 0.45555037E+03</rscale>
<asrwt>0</asrwt>
<pdfrwt beam="1">  1        2 0.51345574E+00 0.45555037E+03</pdfrwt>
<pdfrwt beam="2">  1       -2 0.55611402E-01 0.45555037E+03</pdfrwt>
<totfact> 0.37334351E+00</totfact>
</mgrwt>
</event>
<event>
 4    1  0.4880711E-008  0.3660226E+03  0.7818608E-02  0.1056224E+00
          2   -1    0    0  501    0  0.00000000000E+00  0.00000000000E+00  0.13024938167E+04  0.13024938167E+04  0.25500000000E-02 0. -1.
         -2   -1    0    0    0  501 -0.00000000000E+00 -0.00000000000E+00 -0.15402502300E+03  0.15402502302E+03  0.25500000000E-02 0.  1.
    8880022    1    1    2    0    0  0.32670530976E+03  0.62004071365E+02  0.15449129995E+03  0.39729092498E+03  0.15294330000E+03 0.  1.
    8880022    1    1    2    0    0 -0.32670530976E+03 -0.62004071365E+02  0.99397749372E+03  0.10592279147E+04  0.15294330000E+03 0.  0.
<mgrwt>
<rscale>  0 0.36602256E+03</rscale>
<asrwt>0</asrwt>
<pdfrwt beam="1">  1        2 0.20038366E+00 0.36602256E+03</pdfrwt>
<pdfrwt beam="2">  1       -2 0.23696158E-01 0.36602256E+03</pdfrwt>
<totfact> 0.27191584E+02</totfact>
</mgrwt>
</event>
<event>
 4    1  0.4880711E-008  0.4190251E+03  0.7818608E-02  0.1037384E+00
          2   -1    0    0  501    0  0.00000000000E+00  0.00000000000E+00  0.33112166339E+03  0.33112166340E+03  0.25500000000E-02 0. -1.
         -2   -1    0    0    0  501 -0.00000000000E+00 -0.00000000000E+00 -0.55755909624E+03  0.55755909625E+03  0.25500000000E-02 0.  1.
    8880022    1    1    2    0    0  0.35816519523E+03 -0.15462232819E+03 -0.21153141089E+03  0.46939062865E+03  0.15294330000E+03 0.  0.
    8880022    1    1    2    0    0 -0.35816519523E+03  0.15462232819E+03 -0.14906021962E+02  0.41929013100E+03  0.15294330000E+03 0.  0.
<mgrwt>
<rscale>  0 0.41902509E+03</rscale>
<asrwt>0</asrwt>
<pdfrwt beam="1">  1        2 0.50941795E-01 0.41902509E+03</pdfrwt>
<pdfrwt beam="2">  1       -2 0.85778322E-01 0.41902509E+03</pdfrwt>
<totfact> 0.11928886E+02</totfact>
</mgrwt>
</event>
<event>
 4    1  0.4880711E-008  0.7392973E+03  0.7818608E-02  0.9652292E-01
         -2   -1    0    0    0  501 -0.00000000000E+00  0.00000000000E+00  0.12306882458E+03  0.12306882461E+03  0.25500000000E-02 0.  1.
          2   -1    0    0  501    0  0.00000000000E+00 -0.00000000000E+00 -0.49492431647E+04  0.49492431647E+04  0.25500000000E-02 0. -1.
    8880022    1    1    2    0    0  0.64784666505E+03  0.32165755101E+03 -0.32257325624E+04  0.33093671750E+04  0.15294330000E+03 0.  0.
    8880022    1    1    2    0    0 -0.64784666505E+03 -0.32165755101E+03 -0.16004417777E+04  0.17629448143E+04  0.15294330000E+03 0.  0.
<mgrwt>
<rscale>  0 0.73929732E+03</rscale>
<asrwt>0</asrwt>
<pdfrwt beam="1">  1        2 0.76142187E+00 0.73929732E+03</pdfrwt>
<pdfrwt beam="2">  1       -2 0.18933669E-01 0.73929732E+03</pdfrwt>
<totfact> 0.10924706E+00</totfact>
</mgrwt>
</event>
<event>
 4    1  0.4880711E-008  0.4920985E+03  0.7818608E-02  0.1015862E+00
         -2   -1    0    0    0  501 -0.00000000000E+00  0.00000000000E+00  0.48293792605E+03  0.48293792605E+03  0.25500000000E-02 0.  1.
          2   -1    0    0  501    0  0.00000000000E+00 -0.00000000000E+00 -0.15910521320E+04  0.15910521320E+04  0.25500000000E-02 0. -1.
    8880022    1    1    2    0    0  0.33342348571E+03 -0.32802144256E+03 -0.14122242007E+04  0.14955059792E+04  0.15294330000E+03 0. -1.
    8880022    1    1    2    0    0 -0.33342348571E+03  0.32802144256E+03  0.30410999476E+03  0.57848407889E+03  0.15294330000E+03 0.  0.
<mgrwt>
<rscale>  0 0.49209851E+03</rscale>
<asrwt>0</asrwt>
<pdfrwt beam="1">  1        2 0.24477725E+00 0.49209851E+03</pdfrwt>
<pdfrwt beam="2">  1       -2 0.74298143E-01 0.49209851E+03</pdfrwt>
<totfact> 0.19641362E+01</totfact>
</mgrwt>
</event>
