<event>
 4    2  0.3944631E+000  0.1816685E+03  0.7546771E-02  0.1166198E+00
         21   -1    0    0  501  502  0.00000000000E+00  0.00000000000E+00  0.10429766493E+04  0.10429766493E+04  0.00000000000E+00 0.  1.
         21   -1    0    0  502  503 -0.00000000000E+00 -0.00000000000E+00 -0.32680696574E+02  0.32680696574E+02  0.00000000000E+00 0.  1.
          6    1    1    2  501    0  0.45216188602E+02  0.32092766601E+02  0.60096115925E+03  0.62781985020E+03  0.17300000000E+03 0.  1.
         -6    1    1    2    0  503 -0.45216188602E+02 -0.32092766601E+02  0.40933479346E+03  0.44783749566E+03  0.17300000000E+03 0.  1.
<mgrwt>
<rscale>  2 0.18166852E+03</rscale>
<asrwt>0</asrwt>
<pdfrwt beam="1">  1       21 0.16045792E+00 0.18166852E+03</pdfrwt>
<pdfrwt beam="2">  1       21 0.50278003E-02 0.18166852E+03</pdfrwt>
<totfact> 0.66952419E+04</totfact>
</mgrwt>
</event>
<event>
 4    2  0.3944631E+000  0.2356047E+03  0.7546771E-02  0.1122756E+00
         21   -1    0    0  503  502  0.00000000000E+00  0.00000000000E+00  0.23263065182E+03  0.23263065182E+03  0.00000000000E+00 0.  1.
         21   -1    0    0  501  503 -0.00000000000E+00 -0.00000000000E+00 -0.39381441941E+03  0.39381441941E+03  0.00000000000E+00 0.  1.
          6    1    1    2  501    0 -0.13627196381E+03 -0.83728938616E+02 -0.27722185353E+03  0.36381525443E+03  0.17300000000E+03 0.  1.
         -6    1    1    2    0  502  0.13627196381E+03  0.83728938616E+02  0.11603808593E+03  0.26262981680E+03  0.17300000000E+03 0.  1.
<mgrwt>
<rscale>  2 0.23560472E+03</rscale>
<asrwt>0</asrwt>
<pdfrwt beam="1">  1       21 0.35789331E-01 0.23560472E+03</pdfrwt>
<pdfrwt beam="2">  1       21 0.60586834E-01 0.23560472E+03</pdfrwt>
<totfact> 0.18639186E+04</totfact>
</mgrwt>
</event>
<event>
 4    2  0.3944631E+000  0.2453046E+03  0.7546771E-02  0.1116309E+00
         21   -1    0    0  501  502  0.00000000000E+00  0.00000000000E+00  0.13582072661E+03  0.13582072661E+03  0.00000000000E+00 0. -1.
         21   -1    0    0  502  503 -0.00000000000E+00 -0.00000000000E+00 -0.45438429786E+03  0.45438429786E+03  0.00000000000E+00 0.  1.
          6    1    1    2  501    0 -0.15600154754E+03 -0.76869235797E+02 -0.11265869323E+03  0.26993766578E+03  0.17300000000E+03 0. -1.
         -6    1    1    2    0  503  0.15600154754E+03  0.76869235797E+02 -0.20590487803E+03  0.32026735869E+03  0.17300000000E+03 0.  1.
<mgrwt>
<rscale>  2 0.24530463E+03</rscale>
<asrwt>0</asrwt>
<pdfrwt beam="1">  1       21 0.20895496E-01 0.24530463E+03</pdfrwt>
<pdfrwt beam="2">  1       21 0.69905277E-01 0.24530463E+03</pdfrwt>
<totfact> 0.38528915E+04</totfact>
</mgrwt>
</event>
<event>
 4    2  0.3944631E+000  0.3291190E+03  0.7546771E-02  0.1071527E+00
         21   -1    0    0  503  502  0.00000000000E+00  0.00000000000E+00  0.30224272981E+03  0.30224272981E+03  0.00000000000E+00 0.  1.
         21   -1    0    0  501  503 -0.00000000000E+00 -0.00000000000E+00 -0.79526029431E+03  0.79526029431E+03  0.00000000000E+00 0.  1.
          6    1    1    2  501    0  0.17191196229E+03 -0.22099004290E+03 -0.65323270960E+03  0.73145901781E+03  0.17300000000E+03 0.  1.
         -6    1    1    2    0  502 -0.17191196229E+03  0.22099004290E+03  0.16021514509E+03  0.36604400631E+03  0.17300000000E+03 0.  1.
<mgrwt>
<rscale>  2 0.32911901E+03</rscale>
<asrwt>0</asrwt>
<pdfrwt beam="1">  1       21 0.46498883E-01 0.32911901E+03</pdfrwt>
<pdfrwt beam="2">  1       21 0.12234773E+00 0.32911901E+03</pdfrwt>
<totfact> 0.20243336E+03</totfact>
</mgrwt>
</event>
<event>
 4    2  0.3944631E+000  0.1807619E+03  0.7546771E-02  0.1167068E+00
         21   -1    0    0  501  502  0.00000000000E+00  0.00000000000E+00  0.29115119138E+03  0.29115119138E+03  0.00000000000E+00 0.  1.
         21   -1    0    0  502  503 -0.00000000000E+00 -0.00000000000E+00 -0.12595687720E+03  0.12595687720E+03  0.00000000000E+00 0.  1.
          6    1    1    2  501    0 -0.45905316755E+02 -0.25269538115E+02  0.15145455374E+03  0.23582478562E+03  0.17300000000E+03 0.  1.
         -6    1    1    2    0  503  0.45905316755E+02  0.25269538115E+02  0.13739760437E+02  0.18128328296E+03  0.17300000000E+03 0.  1.
<mgrwt>
<rscale>  2 0.18076185E+03</rscale>
<asrwt>0</asrwt>
<pdfrwt beam="1">  1       21 0.44792491E-01 0.18076185E+03</pdfrwt>
<pdfrwt beam="2">  1       21 0.19377981E-01 0.18076185E+03</pdfrwt>
<totfact> 0.11762430E+05</totfact>
</mgrwt>
</event>
<event>
 4    2  0.3944631E+000  0.1761175E+03  0.7546771E-02  0.1171614E+00
         21   -1    0    0  503  502  0.00000000000E+00  0.00000000000E+00  0.37553500980E+02  0.37553500980E+02  0.00000000000E+00 0.  1.
         21   -1    0    0  501  503 -0.00000000000E+00 -0.00000000000E+00 -0.83164429670E+03  0.83164429670E+03  0.00000000000E+00 0.  1.
          6    1    1    2  501    0 -0.30170249116E+02 -0.13346851989E+02 -0.36108946678E+03  0.40174990405E+03  0.17300000000E+03 0.  1.
         -6    1    1    2    0  502  0.30170249116E+02  0.13346851989E+02 -0.43300132894E+03  0.46744789363E+03  0.17300000000E+03 0.  1.
<mgrwt>
<rscale>  2 0.17611752E+03</rscale>
<asrwt>0</asrwt>
<pdfrwt beam="1">  1       21 0.57774617E-02 0.17611752E+03</pdfrwt>
<pdfrwt beam="2">  1       21 0.12794528E+00 0.17611752E+03</pdfrwt>
<totfact> 0.95354677E+04</totfact>
</mgrwt>
</event>
<event>
 4    2  0.3944631E+000  0.2582845E+03  0.7546771E-02  0.1108178E+00
         21   -1    0    0  501  502  0.00000000000E+00  0.00000000000E+00  0.43006485819E+03  0.43006485819E+03  0.00000000000E+00 0.  1.
         21   -1    0    0  502  503 -0.00000000000E+00 -0.00000000000E+00 -0.19971836217E+03  0.19971836217E+03  0.00000000000E+00 0. -1.
          6    1    1    2  501    0  0.13511326741E+03 -0.13611124525E+03  0.26397928256E+03  0.36931819307E+03  0.17300000000E+03 0.  1.
         -6    1    1    2    0  503 -0.13511326741E+03  0.13611124525E+03 -0.33632786541E+02  0.26046502730E+03  0.17300000000E+03 0. -1.
<mgrwt>
<rscale>  2 0.25828447E+03</rscale>
<asrwt>0</asrwt>
<pdfrwt beam="1">  1       21 0.66163824E-01 0.25828447E+03</pdfrwt>
<pdfrwt beam="2">  1       21 0.30725902E-01 0.25828447E+03</pdfrwt>
<totfact> 0.20589337E+04</totfact>
</mgrwt>
</event>
<event>
 4    2  0.3944631E+000  0.1749587E+03  0.7546771E-02  0.1172773E+00
         21   -1    0    0  503  502  0.00000000000E+00  0.00000000000E+00  0.17960477909E+02  0.17960477909E+02  0.00000000000E+00 0. -1.
         21   -1    0    0  501  503 -0.00000000000E+00 -0.00000000000E+00 -0.19578214126E+04  0.19578214126E+04  0.00000000000E+00 0. -1.
          6    1    1    2  501    0  0.55445143732E+01  0.25510882268E+02 -0.13254027491E+04  0.13369005177E+04  0.17300000000E+03 0. -1.
         -6    1    1    2    0  502 -0.55445143732E+01 -0.25510882268E+02 -0.61445818557E+03  0.63888137285E+03  0.17300000000E+03 0. -1.
<mgrwt>
<rscale>  2 0.17495870E+03</rscale>
<asrwt>0</asrwt>
<pdfrwt beam="1">  1       21 0.27631496E-02 0.17495870E+03</pdfrwt>
<pdfrwt beam="2">  1       21 0.30120338E+00 0.17495870E+03</pdfrwt>
<totfact> 0.24793503E+04</totfact>
</mgrwt>
</event>
<event>
 4    2  0.3944631E+000  0.1952804E+03  0.7546771E-02  0.1153783E+00
         21   -1    0    0  501  502  0.00000000000E+00  0.00000000000E+00  0.70123226910E+02  0.70123226910E+02  0.00000000000E+00 0.  1.
         21   -1    0    0  502  503 -0.00000000000E+00 -0.00000000000E+00 -0.54440124233E+03  0.54440124233E+03  0.00000000000E+00 0. -1.
          6    1    1    2  501    0  0.64630841468E+02  0.63468715163E+02 -0.24717762322E+03  0.31500984253E+03  0.17300000000E+03 0.  1.
         -6    1    1    2    0  503 -0.64630841468E+02 -0.63468715163E+02 -0.22710039220E+03  0.29951462671E+03  0.17300000000E+03 0.  1.
<mgrwt>
<rscale>  2 0.19528037E+03</rscale>
<asrwt>0</asrwt>
<pdfrwt beam="1">  1       21 0.10788189E-01 0.19528037E+03</pdfrwt>
<pdfrwt beam="2">  1       21 0.83754038E-01 0.19528037E+03</pdfrwt>
<totfact> 0.87826208E+04</totfact>
</mgrwt>
</event>
<event>
 4    2  0.3944631E+000  0.1761520E+03  0.7546771E-02  0.1171580E+00
         21   -1    0    0  503  502  0.00000000000E+00  0.00000000000E+00  0.62887851883E+03  0.62887851883E+03  0.00000000000E+00 0. -1.
         21   -1    0    0  501  503 -0.00000000000E+00 -0.00000000000E+00 -0.58707356811E+02  0.58707356811E+02  0.00000000000E+00 0.  1.
          6    1    1    2  501    0 -0.23099696030E+02  0.23810241342E+02  0.14776520500E+03  0.22992189838E+03  0.17300000000E+03 0.  1.
         -6    1    1    2    0  502  0.23099696030E+02 -0.23810241342E+02  0.42240595703E+03  0.45766397726E+03  0.17300000000E+03 0. -1.
<mgrwt>
<rscale>  2 0.17615199E+03</rscale>
<asrwt>0</asrwt>
<pdfrwt beam="1">  1       21 0.96750537E-01 0.17615199E+03</pdfrwt>
<pdfrwt beam="2">  1       21 0.90319015E-02 0.17615199E+03</pdfrwt>
<totfact> 0.86769772E+04</totfact>
</mgrwt>
</event>
<event>
 4    2  0.3944631E+000  0.2096048E+03  0.7546771E-02  0.1141879E+00
         21   -1    0    0  501  502  0.00000000000E+00  0.00000000000E+00  0.30570068029E+03  0.30570068029E+03  0.00000000000E+00 0.  1.
         21   -1    0    0  502  503 -0.00000000000E+00 -0.00000000000E+00 -0.14599896969E+03  0.14599896969E+03  0.00000000000E+00 0.  1.
          6    1    1    2  501    0  0.28938010984E+02 -0.11475091941E+03  0.10809073745E+03  0.23583424160E+03  0.17300000000E+03 0.  1.
         -6    1    1    2    0  503 -0.28938010984E+02  0.11475091941E+03  0.51610973145E+02  0.21586540838E+03  0.17300000000E+03 0.  1.
<mgrwt>
<rscale>  2 0.20960482E+03</rscale>
<asrwt>0</asrwt>
<pdfrwt beam="1">  1       21 0.47030874E-01 0.20960482E+03</pdfrwt>
<pdfrwt beam="2">  1       21 0.22461380E-01 0.20960482E+03</pdfrwt>
<totfact> 0.79731403E+04</totfact>
</mgrwt>
</event>
<event>
 4    2  0.3944631E+000  0.2176242E+03  0.7546771E-02  0.1135667E+00
         21   -1    0    0  503  502  0.00000000000E+00  0.00000000000E+00  0.16409149926E+03  0.16409149926E+03  0.00000000000E+00 0.  1.
         21   -1    0    0  501  503 -0.00000000000E+00 -0.00000000000E+00 -0.35059416041E+03  0.35059416041E+03  0.00000000000E+00 0. -1.
          6    1    1    2  501    0 -0.10503491946E+03 -0.79993537495E+02 -0.20144716384E+03  0.29654891699E+03  0.17300000000E+03 0. -1.
         -6    1    1    2    0  502  0.10503491946E+03  0.79993537495E+02  0.14944502688E+02  0.21813674268E+03  0.17300000000E+03 0.  1.
<mgrwt>
<rscale>  2 0.21762422E+03</rscale>
<asrwt>0</asrwt>
<pdfrwt beam="1">  1       21 0.25244846E-01 0.21762422E+03</pdfrwt>
<pdfrwt beam="2">  1       21 0.53937563E-01 0.21762422E+03</pdfrwt>
<totfact> 0.47745426E+04</totfact>
</mgrwt>
</event>
<event>
 4    2  0.3944631E+000  0.1814654E+03  0.7546771E-02  0.1166392E+00
         21   -1    0    0  503  502  0.00000000000E+00  0.00000000000E+00  0.23538992421E+03  0.23538992421E+03  0.00000000000E+00 0. -1.
         21   -1    0    0  501  503 -0.00000000000E+00 -0.00000000000E+00 -0.22129780153E+03  0.22129780153E+03  0.00000000000E+00 0. -1.
          6    1    1    2  501    0  0.21675245408E+02  0.50307710775E+02 -0.13144528557E+03  0.22407040216E+03  0.17300000000E+03 0. -1.
         -6    1    1    2    0  502 -0.21675245408E+02 -0.50307710775E+02  0.14553740825E+03  0.23261732357E+03  0.17300000000E+03 0. -1.
<mgrwt>
<rscale>  2 0.18146537E+03</rscale>
<asrwt>0</asrwt>
<pdfrwt beam="1">  1       21 0.36213834E-01 0.18146537E+03</pdfrwt>
<pdfrwt beam="2">  1       21 0.34045816E-01 0.18146537E+03</pdfrwt>
<totfact> 0.61426778E+04</totfact>
</mgrwt>
</event>
<event>
 4    2  0.3944631E+000  0.1859842E+03  0.7546771E-02  0.1162134E+00
         21   -1    0    0  501  502  0.00000000000E+00  0.00000000000E+00  0.86012214945E+03  0.86012214945E+03  0.00000000000E+00 0. -1.
         21   -1    0    0  502  503 -0.00000000000E+00 -0.00000000000E+00 -0.43531663195E+02  0.43531663195E+02  0.00000000000E+00 0. -1.
          6    1    1    2  501    0 -0.29362808406E+02  0.61635457614E+02  0.53300427965E+03  0.56452074034E+03  0.17300000000E+03 0. -1.
         -6    1    1    2    0  503  0.29362808406E+02 -0.61635457614E+02  0.28358620661E+03  0.33913307231E+03  0.17300000000E+03 0. -1.
<mgrwt>
<rscale>  2 0.18598415E+03</rscale>
<asrwt>0</asrwt>
<pdfrwt beam="1">  1       21 0.13232647E+00 0.18598415E+03</pdfrwt>
<pdfrwt beam="2">  1       21 0.66971796E-02 0.18598415E+03</pdfrwt>
<totfact> 0.67696554E+04</totfact>
</mgrwt>
</event>
<event>
 4    2  0.3944631E+000  0.2304713E+03  0.7546771E-02  0.1126308E+00
         21   -1    0    0  501  502  0.00000000000E+00  0.00000000000E+00  0.45401688905E+03  0.45401688905E+03  0.00000000000E+00 0. -1.
         21   -1    0    0  502  503 -0.00000000000E+00 -0.00000000000E+00 -0.19654521022E+03  0.19654521022E+03  0.00000000000E+00 0. -1.
          6    1    1    2  501    0  0.59542077931E+02  0.14015268780E+03  0.33567954929E+03  0.40718275351E+03  0.17300000000E+03 0. -1.
         -6    1    1    2    0  503 -0.59542077931E+02 -0.14015268780E+03 -0.78207870458E+02  0.24337934576E+03  0.17300000000E+03 0. -1.
<mgrwt>
<rscale>  2 0.23047133E+03</rscale>
<asrwt>0</asrwt>
<pdfrwt beam="1">  1       21 0.69848752E-01 0.23047133E+03</pdfrwt>
<pdfrwt beam="2">  1       21 0.30237725E-01 0.23047133E+03</pdfrwt>
<totfact> 0.19113275E+04</totfact>
</mgrwt>
</event>
<event>
 4    2  0.3944631E+000  0.1769423E+03  0.7546771E-02  0.1170796E+00
         21   -1    0    0  503  502  0.00000000000E+00  0.00000000000E+00  0.15292137947E+03  0.15292137947E+03  0.00000000000E+00 0. -1.
         21   -1    0    0  501  503 -0.00000000000E+00 -0.00000000000E+00 -0.20473786261E+03  0.20473786261E+03  0.00000000000E+00 0. -1.
          6    1    1    2  501    0 -0.16398589457E+02  0.33326794292E+02 -0.26368538128E+02  0.17889630728E+03  0.17300000000E+03 0. -1.
         -6    1    1    2    0  502  0.16398589457E+02 -0.33326794292E+02 -0.25447945007E+02  0.17876293480E+03  0.17300000000E+03 0. -1.
<mgrwt>
<rscale>  2 0.17694233E+03</rscale>
<asrwt>0</asrwt>
<pdfrwt beam="1">  1       21 0.23526366E-01 0.17694233E+03</pdfrwt>
<pdfrwt beam="2">  1       21 0.31498133E-01 0.17694233E+03</pdfrwt>
<totfact> 0.16553291E+05</totfact>
</mgrwt>
</event>
<event>
 4    2  0.3944631E+000  0.2012593E+03  0.7546771E-02  0.1148681E+00
         21   -1    0    0  501  502  0.00000000000E+00  0.00000000000E+00  0.21769544652E+03  0.21769544652E+03  0.00000000000E+00 0.  1.
         21   -1    0    0  502  503 -0.00000000000E+00 -0.00000000000E+00 -0.44653690238E+03  0.44653690238E+03  0.00000000000E+00 0.  1.
          6    1    1    2  501    0  0.10283658403E+03  0.97113152514E+00  0.13923375667E+03  0.24472708291E+03  0.17300000000E+03 0.  1.
         -6    1    1    2    0  503 -0.10283658403E+03 -0.97113152514E+00 -0.36807521254E+03  0.41950526599E+03  0.17300000000E+03 0.  1.
<mgrwt>
<rscale>  2 0.20125930E+03</rscale>
<asrwt>0</asrwt>
<pdfrwt beam="1">  1       21 0.33491608E-01 0.20125930E+03</pdfrwt>
<pdfrwt beam="2">  1       21 0.68697984E-01 0.20125930E+03</pdfrwt>
<totfact> 0.16491625E+04</totfact>
</mgrwt>
</event>
<event>
 4    2  0.3944631E+000  0.2184612E+03  0.7546771E-02  0.1135035E+00
         21   -1    0    0  501  502  0.00000000000E+00  0.00000000000E+00  0.98757474550E+02  0.98757474550E+02  0.00000000000E+00 0. -1.
         21   -1    0    0  502  503 -0.00000000000E+00 -0.00000000000E+00 -0.87246754536E+03  0.87246754536E+03  0.00000000000E+00 0. -1.
          6    1    1    2  501    0 -0.47519787642E+02 -0.12465223801E+03 -0.62510092533E+02  0.22722856847E+03  0.17300000000E+03 0. -1.
         -6    1    1    2    0  503  0.47519787642E+02  0.12465223801E+03 -0.71119997828E+03  0.74399645145E+03  0.17300000000E+03 0. -1.
<mgrwt>
<rscale>  2 0.21846123E+03</rscale>
<asrwt>0</asrwt>
<pdfrwt beam="1">  1       21 0.15193458E-01 0.21846123E+03</pdfrwt>
<pdfrwt beam="2">  1       21 0.13422578E+00 0.21846123E+03</pdfrwt>
<totfact> 0.15015425E+04</totfact>
</mgrwt>
</event>
<event>
 4    2  0.3944631E+000  0.1934982E+03  0.7546771E-02  0.1155344E+00
         21   -1    0    0  501  502  0.00000000000E+00  0.00000000000E+00  0.28641427979E+02  0.28641427979E+02  0.00000000000E+00 0. -1.
         21   -1    0    0  502  503 -0.00000000000E+00 -0.00000000000E+00 -0.16087826677E+04  0.16087826677E+04  0.00000000000E+00 0. -1.
          6    1    1    2  501    0  0.66550790397E+02 -0.55529611688E+02 -0.43562574365E+03  0.47666690048E+03  0.17300000000E+03 0. -1.
         -6    1    1    2    0  503 -0.66550790397E+02  0.55529611688E+02 -0.11445154961E+04  0.11607571952E+04  0.17300000000E+03 0. -1.
<mgrwt>
<rscale>  2 0.19349818E+03</rscale>
<asrwt>0</asrwt>
<pdfrwt beam="1">  1       21 0.44063729E-02 0.19349818E+03</pdfrwt>
<pdfrwt beam="2">  1       21 0.24750506E+00 0.19349818E+03</pdfrwt>
<totfact> 0.22891145E+04</totfact>
</mgrwt>
</event>
<event>
 4    2  0.3944631E+000  0.2119379E+03  0.7546771E-02  0.1140041E+00
         21   -1    0    0  503  502  0.00000000000E+00  0.00000000000E+00  0.25587983141E+03  0.25587983141E+03  0.00000000000E+00 0. -1.
         21   -1    0    0  501  503 -0.00000000000E+00 -0.00000000000E+00 -0.36036650224E+03  0.36036650224E+03  0.00000000000E+00 0. -1.
          6    1    1    2  501    0  0.83208159817E+02  0.89805679165E+02 -0.27290755362E+03  0.34553753876E+03  0.17300000000E+03 0. -1.
         -6    1    1    2    0  502 -0.83208159817E+02 -0.89805679165E+02  0.16842088279E+03  0.27070879489E+03  0.17300000000E+03 0. -1.
<mgrwt>
<rscale>  2 0.21193786E+03</rscale>
<asrwt>0</asrwt>
<pdfrwt beam="1">  1       21 0.39366128E-01 0.21193786E+03</pdfrwt>
<pdfrwt beam="2">  1       21 0.55441000E-01 0.21193786E+03</pdfrwt>
<totfact> 0.18859398E+04</totfact>
</mgrwt>
</event>
<event>
 4    2  0.3944631E+000  0.2729053E+03  0.7546771E-02  0.1099628E+00
         21   -1    0    0  503  502  0.00000000000E+00  0.00000000000E+00  0.29262354721E+03  0.29262354721E+03  0.00000000000E+00 0. -1.
         21   -1    0    0  501  503 -0.00000000000E+00 -0.00000000000E+00 -0.26457974590E+03  0.26457974590E+03  0.00000000000E+00 0. -1.
          6    1    1    2  501    0  0.17913135718E+03 -0.11162547571E+03  0.68358376155E+02  0.28133637792E+03  0.17300000000E+03 0. -1.
         -6    1    1    2    0  502 -0.17913135718E+03  0.11162547571E+03 -0.40314574839E+02  0.27586691519E+03  0.17300000000E+03 0. -1.
<mgrwt>
<rscale>  2 0.27290528E+03</rscale>
<asrwt>0</asrwt>
<pdfrwt beam="1">  1       21 0.45019007E-01 0.27290528E+03</pdfrwt>
<pdfrwt beam="2">  1       21 0.40704576E-01 0.27290528E+03</pdfrwt>
<totfact> 0.26467447E+04</totfact>
</mgrwt>
</event>
<event>
 4    2  0.3944631E+000  0.2142444E+03  0.7546771E-02  0.1138248E+00
         21   -1    0    0  501  502  0.00000000000E+00  0.00000000000E+00  0.13538372814E+03  0.13538372814E+03  0.00000000000E+00 0. -1.
         21   -1    0    0  502  503 -0.00000000000E+00 -0.00000000000E+00 -0.33925884694E+03  0.33925884694E+03  0.00000000000E+00 0. -1.
          6    1    1    2  501    0 -0.42566879988E+01 -0.12630738633E+03 -0.10794718265E+03  0.23990262499E+03  0.17300000000E+03 0. -1.
         -6    1    1    2    0  503  0.42566879988E+01  0.12630738633E+03 -0.95927936147E+02  0.23473995009E+03  0.17300000000E+03 0. -1.
<mgrwt>
<rscale>  2 0.21424443E+03</rscale>
<asrwt>0</asrwt>
<pdfrwt beam="1">  1       21 0.20828266E-01 0.21424443E+03</pdfrwt>
<pdfrwt beam="2">  1       21 0.52193668E-01 0.21424443E+03</pdfrwt>
<totfact> 0.73824392E+04</totfact>
</mgrwt>
</event>
<event>
 4    2  0.3944631E+000  0.1913691E+03  0.7546771E-02  0.1157232E+00
         21   -1    0    0  501  502  0.00000000000E+00  0.00000000000E+00  0.37553519539E+02  0.37553519539E+02  0.00000000000E+00 0.  1.
         21   -1    0    0  502  503 -0.00000000000E+00 -0.00000000000E+00 -0.10330871711E+04  0.10330871711E+04  0.00000000000E+00 0.  1.
          6    1    1    2  501    0 -0.40229606480E+02  0.71237052464E+02 -0.37104781915E+03  0.41749086574E+03  0.17300000000E+03 0.  1.
         -6    1    1    2    0  503  0.40229606480E+02 -0.71237052464E+02 -0.62448583240E+03  0.65314982489E+03  0.17300000000E+03 0.  1.
<mgrwt>
<rscale>  2 0.19136912E+03</rscale>
<asrwt>0</asrwt>
<pdfrwt beam="1">  1       21 0.57774644E-02 0.19136912E+03</pdfrwt>
<pdfrwt beam="2">  1       21 0.15893649E+00 0.19136912E+03</pdfrwt>
<totfact> 0.53942125E+04</totfact>
</mgrwt>
</event>
<event>
 4    2  0.3944631E+000  0.1852422E+03  0.7546771E-02  0.1162824E+00
         21   -1    0    0  503  502  0.00000000000E+00  0.00000000000E+00  0.20059493734E+03  0.20059493734E+03  0.00000000000E+00 0.  1.
         21   -1    0    0  501  503 -0.00000000000E+00 -0.00000000000E+00 -0.22536248958E+03  0.22536248958E+03  0.00000000000E+00 0. -1.
          6    1    1    2  501    0 -0.87600108740E+01  0.65642463128E+02 -0.11692493167E+03  0.21905732218E+03  0.17300000000E+03 0. -1.
         -6    1    1    2    0  502  0.87600108740E+01 -0.65642463128E+02  0.92157379430E+02  0.20690010474E+03  0.17300000000E+03 0.  1.
<mgrwt>
<rscale>  2 0.18524219E+03</rscale>
<asrwt>0</asrwt>
<pdfrwt beam="1">  1       21 0.30860760E-01 0.18524219E+03</pdfrwt>
<pdfrwt beam="2">  1       21 0.34671152E-01 0.18524219E+03</pdfrwt>
<totfact> 0.81093515E+04</totfact>
</mgrwt>
</event>
<event>
 4    2  0.3944631E+000  0.1730544E+03  0.7546771E-02  0.1174700E+00
         21   -1    0    0  501  502  0.00000000000E+00  0.00000000000E+00  0.34909675338E+03  0.34909675338E+03  0.00000000000E+00 0.  1.
         21   -1    0    0  502  503 -0.00000000000E+00 -0.00000000000E+00 -0.90260530858E+02  0.90260530858E+02  0.00000000000E+00 0.  1.
          6    1    1    2  501    0 -0.42109113370E+01  0.10472424043E+01  0.17832644193E+03  0.24849174711E+03  0.17300000000E+03 0.  1.
         -6    1    1    2    0  503  0.42109113370E+01 -0.10472424043E+01  0.80509780589E+02  0.19086553712E+03  0.17300000000E+03 0.  1.
<mgrwt>
<rscale>  2 0.17305441E+03</rscale>
<asrwt>0</asrwt>
<pdfrwt beam="1">  1       21 0.53707192E-01 0.17305441E+03</pdfrwt>
<pdfrwt beam="2">  1       21 0.13886236E-01 0.17305441E+03</pdfrwt>
<totfact> 0.14897379E+05</totfact>
</mgrwt>
</event>
<event>
 4    2  0.3944631E+000  0.1823347E+03  0.7546771E-02  0.1165562E+00
         21   -1    0    0  501  502  0.00000000000E+00  0.00000000000E+00  0.31382393998E+03  0.31382393998E+03  0.00000000000E+00 0.  1.
         21   -1    0    0  502  503 -0.00000000000E+00 -0.00000000000E+00 -0.10701445176E+03  0.10701445176E+03  0.00000000000E+00 0.  1.
          6    1    1    2  501    0 -0.11396163953E+02 -0.56454218647E+02  0.82303118650E+02  0.20004938064E+03  0.17300000000E+03 0. -1.
         -6    1    1    2    0  503  0.11396163953E+02  0.56454218647E+02  0.12450636957E+03  0.22078901109E+03  0.17300000000E+03 0. -1.
<mgrwt>
<rscale>  2 0.18233472E+03</rscale>
<asrwt>0</asrwt>
<pdfrwt beam="1">  1       21 0.48280606E-01 0.18233472E+03</pdfrwt>
<pdfrwt beam="2">  1       21 0.16463762E-01 0.18233472E+03</pdfrwt>
<totfact> 0.13607447E+05</totfact>
</mgrwt>
</event>
<event>
 4    2  0.3944631E+000  0.1810470E+03  0.7546771E-02  0.1166794E+00
         21   -1    0    0  501  502  0.00000000000E+00  0.00000000000E+00  0.24336064469E+03  0.24336064469E+03  0.00000000000E+00 0. -1.
         21   -1    0    0  502  503 -0.00000000000E+00 -0.00000000000E+00 -0.23100726156E+03  0.23100726156E+03  0.00000000000E+00 0.  1.
          6    1    1    2  501    0  0.52242719377E+02  0.10941563097E+02  0.15933009113E+03  0.24117233977E+03  0.17300000000E+03 0. -1.
         -6    1    1    2    0  503 -0.52242719377E+02 -0.10941563097E+02 -0.14697670800E+03  0.23319556648E+03  0.17300000000E+03 0.  1.
<mgrwt>
<rscale>  2 0.18104701E+03</rscale>
<asrwt>0</asrwt>
<pdfrwt beam="1">  1       21 0.37440099E-01 0.18104701E+03</pdfrwt>
<pdfrwt beam="2">  1       21 0.35539578E-01 0.18104701E+03</pdfrwt>
<totfact> 0.52804063E+04</totfact>
</mgrwt>
</event>
<event>
 4    2  0.3944631E+000  0.1796652E+03  0.7546771E-02  0.1168127E+00
         21   -1    0    0  503  502  0.00000000000E+00  0.00000000000E+00  0.22435470263E+04  0.22435470263E+04  0.00000000000E+00 0. -1.
         21   -1    0    0  501  503 -0.00000000000E+00 -0.00000000000E+00 -0.14387937358E+02  0.14387937358E+02  0.00000000000E+00 0. -1.
          6    1    1    2  501    0  0.12189761555E+02 -0.46925586886E+02  0.11105409221E+04  0.11249803290E+04  0.17300000000E+03 0. -1.
         -6    1    1    2    0  502 -0.12189761555E+02  0.46925586886E+02  0.11186181668E+04  0.11329546346E+04  0.17300000000E+03 0. -1.
<mgrwt>
<rscale>  2 0.17966525E+03</rscale>
<asrwt>0</asrwt>
<pdfrwt beam="1">  1       21 0.34516080E+00 0.17966525E+03</pdfrwt>
<pdfrwt beam="2">  1       21 0.22135306E-02 0.17966525E+03</pdfrwt>
<totfact> 0.19771730E+04</totfact>
</mgrwt>
</event>
<event>
 4    2  0.3944631E+000  0.1840358E+03  0.7546771E-02  0.1163953E+00
         21   -1    0    0  503  502  0.00000000000E+00  0.00000000000E+00  0.49423299875E+02  0.49423299875E+02  0.00000000000E+00 0. -1.
         21   -1    0    0  501  503 -0.00000000000E+00 -0.00000000000E+00 -0.68657221942E+03  0.68657221942E+03  0.00000000000E+00 0. -1.
          6    1    1    2  501    0  0.19228798953E+02 -0.59753022752E+02 -0.30265591408E+03  0.35421712658E+03  0.17300000000E+03 0. -1.
         -6    1    1    2    0  502 -0.19228798953E+02  0.59753022752E+02 -0.33449300547E+03  0.38177839271E+03  0.17300000000E+03 0. -1.
<mgrwt>
<rscale>  2 0.18403579E+03</rscale>
<asrwt>0</asrwt>
<pdfrwt beam="1">  1       21 0.76035848E-02 0.18403579E+03</pdfrwt>
<pdfrwt beam="2">  1       21 0.10562649E+00 0.18403579E+03</pdfrwt>
<totfact> 0.94756933E+04</totfact>
</mgrwt>
</event>
<event>
 4    2  0.3944631E+000  0.1755259E+03  0.7546771E-02  0.1172205E+00
         21   -1    0    0  501  502  0.00000000000E+00  0.00000000000E+00  0.72740696540E+02  0.72740696540E+02  0.00000000000E+00 0.  1.
         21   -1    0    0  502  503 -0.00000000000E+00 -0.00000000000E+00 -0.43340833407E+03  0.43340833407E+03  0.00000000000E+00 0.  1.
          6    1    1    2  501    0 -0.38405466619E+01 -0.29420939042E+02 -0.14216614729E+03  0.22587730051E+03  0.17300000000E+03 0. -1.
         -6    1    1    2    0  503  0.38405466619E+01  0.29420939042E+02 -0.21850149024E+03  0.28027173010E+03  0.17300000000E+03 0. -1.
<mgrwt>
<rscale>  2 0.17552590E+03</rscale>
<asrwt>0</asrwt>
<pdfrwt beam="1">  1       21 0.11190876E-01 0.17552590E+03</pdfrwt>
<pdfrwt beam="2">  1       21 0.66678206E-01 0.17552590E+03</pdfrwt>
<totfact> 0.13784843E+05</totfact>
</mgrwt>
</event>
<event>
 4    2  0.3944631E+000  0.1739403E+03  0.7546771E-02  0.1173800E+00
         21   -1    0    0  503  502  0.00000000000E+00  0.00000000000E+00  0.23057019271E+04  0.23057019271E+04  0.00000000000E+00 0. -1.
         21   -1    0    0  501  503 -0.00000000000E+00 -0.00000000000E+00 -0.13261189571E+02  0.13261189571E+02  0.00000000000E+00 0. -1.
          6    1    1    2  501    0 -0.68322117749E+01  0.16719722758E+02  0.12650449031E+04  0.12769470761E+04  0.17300000000E+03 0. -1.
         -6    1    1    2    0  502  0.68322117749E+01 -0.16719722758E+02  0.10273958344E+04  0.10420160406E+04  0.17300000000E+03 0. -1.
<mgrwt>
<rscale>  2 0.17394030E+03</rscale>
<asrwt>0</asrwt>
<pdfrwt beam="1">  1       21 0.35472305E+00 0.17394030E+03</pdfrwt>
<pdfrwt beam="2">  1       21 0.20401848E-02 0.17394030E+03</pdfrwt>
<totfact> 0.19977923E+04</totfact>
</mgrwt>
</event>
<event>
 4    2  0.3944631E+000  0.2102969E+03  0.7546771E-02  0.1141331E+00
         21   -1    0    0  501  502  0.00000000000E+00  0.00000000000E+00  0.28599820371E+03  0.28599820371E+03  0.00000000000E+00 0. -1.
         21   -1    0    0  502  503 -0.00000000000E+00 -0.00000000000E+00 -0.15550998487E+03  0.15550998487E+03  0.00000000000E+00 0. -1.
          6    1    1    2  501    0  0.10079718594E+03 -0.64309379599E+02  0.81821573245E+02  0.22565358151E+03  0.17300000000E+03 0.  1.
         -6    1    1    2    0  503 -0.10079718594E+03  0.64309379599E+02  0.48666645595E+02  0.21585460707E+03  0.17300000000E+03 0.  1.
<mgrwt>
<rscale>  2 0.21029686E+03</rscale>
<asrwt>0</asrwt>
<pdfrwt beam="1">  1       21 0.43999724E-01 0.21029686E+03</pdfrwt>
<pdfrwt beam="2">  1       21 0.23924613E-01 0.21029686E+03</pdfrwt>
<totfact> 0.81116045E+04</totfact>
</mgrwt>
</event>
<event>
 4    2  0.3944631E+000  0.3083163E+03  0.7546771E-02  0.1081156E+00
         21   -1    0    0  501  502  0.00000000000E+00  0.00000000000E+00  0.92351453412E+03  0.92351453412E+03  0.00000000000E+00 0. -1.
         21   -1    0    0  502  503 -0.00000000000E+00 -0.00000000000E+00 -0.15905350435E+03  0.15905350435E+03  0.00000000000E+00 0.  1.
          6    1    1    2  501    0  0.57463257480E+02 -0.24865216792E+03  0.70375894009E+03  0.76833298272E+03  0.17300000000E+03 0. -1.
         -6    1    1    2    0  503 -0.57463257480E+02  0.24865216792E+03  0.60702089678E+02  0.31423505575E+03  0.17300000000E+03 0.  1.
<mgrwt>
<rscale>  2 0.30831628E+03</rscale>
<asrwt>0</asrwt>
<pdfrwt beam="1">  1       21 0.14207916E+00 0.30831628E+03</pdfrwt>
<pdfrwt beam="2">  1       21 0.24469771E-01 0.30831628E+03</pdfrwt>
<totfact> 0.50333103E+03</totfact>
</mgrwt>
</event>
<event>
 4    2  0.3944631E+000  0.2033503E+03  0.7546771E-02  0.1146943E+00
         21   -1    0    0  501  502  0.00000000000E+00  0.00000000000E+00  0.84085825609E+03  0.84085825609E+03  0.00000000000E+00 0.  1.
         21   -1    0    0  502  503 -0.00000000000E+00 -0.00000000000E+00 -0.80381520925E+02  0.80381520925E+02  0.00000000000E+00 0. -1.
          6    1    1    2  501    0  0.10650277563E+03  0.89159449552E+01  0.66723025562E+03  0.69752960461E+03  0.17300000000E+03 0.  1.
         -6    1    1    2    0  503 -0.10650277563E+03 -0.89159449552E+01  0.93246479546E+02  0.22371017241E+03  0.17300000000E+03 0.  1.
<mgrwt>
<rscale>  2 0.20335028E+03</rscale>
<asrwt>0</asrwt>
<pdfrwt beam="1">  1       21 0.12936280E+00 0.20335028E+03</pdfrwt>
<pdfrwt beam="2">  1       21 0.12366388E-01 0.20335028E+03</pdfrwt>
<totfact> 0.24172625E+04</totfact>
</mgrwt>
</event>
<event>
 4    2  0.3944631E+000  0.2008695E+03  0.7546771E-02  0.1149007E+00
         21   -1    0    0  501  502  0.00000000000E+00  0.00000000000E+00  0.94984301615E+03  0.94984301615E+03  0.00000000000E+00 0. -1.
         21   -1    0    0  502  503 -0.00000000000E+00 -0.00000000000E+00 -0.11860824372E+03  0.11860824372E+03  0.00000000000E+00 0. -1.
          6    1    1    2  501    0  0.73266070092E+02  0.71074871420E+02  0.84361615609E+03  0.86720053804E+03  0.17300000000E+03 0. -1.
         -6    1    1    2    0  503 -0.73266070092E+02 -0.71074871420E+02 -0.12381383652E+02  0.20125072183E+03  0.17300000000E+03 0. -1.
<mgrwt>
<rscale>  2 0.20086950E+03</rscale>
<asrwt>0</asrwt>
<pdfrwt beam="1">  1       21 0.14612969E+00 0.20086950E+03</pdfrwt>
<pdfrwt beam="2">  1       21 0.18247423E-01 0.20086950E+03</pdfrwt>
<totfact> 0.87081114E+03</totfact>
</mgrwt>
</event>
<event>
 4    2  0.3944631E+000  0.1770710E+03  0.7546771E-02  0.1170668E+00
         21   -1    0    0  503  502  0.00000000000E+00  0.00000000000E+00  0.70636579406E+02  0.70636579406E+02  0.00000000000E+00 0. -1.
         21   -1    0    0  501  503 -0.00000000000E+00 -0.00000000000E+00 -0.44406864103E+03  0.44406864103E+03  0.00000000000E+00 0. -1.
          6    1    1    2  501    0  0.31286676962E+02  0.21125118975E+02 -0.19202782150E+03  0.26120645290E+03  0.17300000000E+03 0.  1.
         -6    1    1    2    0  502 -0.31286676962E+02 -0.21125118975E+02 -0.18140424013E+03  0.25349876754E+03  0.17300000000E+03 0.  1.
<mgrwt>
<rscale>  2 0.17707097E+03</rscale>
<asrwt>0</asrwt>
<pdfrwt beam="1">  1       21 0.10867166E-01 0.17707097E+03</pdfrwt>
<pdfrwt beam="2">  1       21 0.68318253E-01 0.17707097E+03</pdfrwt>
<totfact> 0.13763279E+05</totfact>
</mgrwt>
</event>
<event>
 4    2  0.3944631E+000  0.1780362E+03  0.7546771E-02  0.1169717E+00
         21   -1    0    0  503  502  0.00000000000E+00  0.00000000000E+00  0.79149064970E+02  0.79149064970E+02  0.00000000000E+00 0. -1.
         21   -1    0    0  501  503 -0.00000000000E+00 -0.00000000000E+00 -0.44171141431E+03  0.44171141431E+03  0.00000000000E+00 0. -1.
          6    1    1    2  501    0  0.25425196217E+01 -0.41969359318E+02 -0.26085761696E+03  0.31582208259E+03  0.17300000000E+03 0. -1.
         -6    1    1    2    0  502 -0.25425196217E+01  0.41969359318E+02 -0.10170473238E+03  0.20503839669E+03  0.17300000000E+03 0. -1.
<mgrwt>
<rscale>  2 0.17803621E+03</rscale>
<asrwt>0</asrwt>
<pdfrwt beam="1">  1       21 0.12176779E-01 0.17803621E+03</pdfrwt>
<pdfrwt beam="2">  1       21 0.67955603E-01 0.17803621E+03</pdfrwt>
<totfact> 0.11367287E+05</totfact>
</mgrwt>
</event>
<event>
 4    2  0.3944631E+000  0.1745630E+03  0.7546771E-02  0.1173171E+00
         21   -1    0    0  503  502  0.00000000000E+00  0.00000000000E+00  0.20946746474E+03  0.20946746474E+03  0.00000000000E+00 0. -1.
         21   -1    0    0  501  503 -0.00000000000E+00 -0.00000000000E+00 -0.16568489399E+03  0.16568489399E+03  0.00000000000E+00 0. -1.
          6    1    1    2  501    0 -0.13894593352E+02 -0.18713588518E+02 -0.43620485572E+02  0.17993055572E+03  0.17300000000E+03 0.  1.
         -6    1    1    2    0  502  0.13894593352E+02  0.18713588518E+02  0.87403056319E+02  0.19522180302E+03  0.17300000000E+03 0.  1.
<mgrwt>
<rscale>  2 0.17456305E+03</rscale>
<asrwt>0</asrwt>
<pdfrwt beam="1">  1       21 0.32225764E-01 0.17456305E+03</pdfrwt>
<pdfrwt beam="2">  1       21 0.25489984E-01 0.17456305E+03</pdfrwt>
<totfact> 0.13602983E+05</totfact>
</mgrwt>
</event>
<event>
 4    2  0.3944631E+000  0.2063362E+03  0.7546771E-02  0.1144501E+00
         21   -1    0    0  501  502  0.00000000000E+00  0.00000000000E+00  0.17495653266E+04  0.17495653266E+04  0.00000000000E+00 0.  1.
         21   -1    0    0  502  503 -0.00000000000E+00 -0.00000000000E+00 -0.46708854812E+02  0.46708854812E+02  0.00000000000E+00 0. -1.
          6    1    1    2  501    0  0.78750895553E+02  0.80274088220E+02  0.14730399585E+04  0.14874210406E+04  0.17300000000E+03 0.  1.
         -6    1    1    2    0  503 -0.78750895553E+02 -0.80274088220E+02  0.22981651331E+03  0.30885314080E+03  0.17300000000E+03 0. -1.
<mgrwt>
<rscale>  2 0.20633621E+03</rscale>
<asrwt>0</asrwt>
<pdfrwt beam="1">  1       21 0.26916385E+00 0.20633621E+03</pdfrwt>
<pdfrwt beam="2">  1       21 0.71859790E-02 0.20633621E+03</pdfrwt>
<totfact> 0.73289008E+03</totfact>
</mgrwt>
</event>
<event>
 4    2  0.3944631E+000  0.2092314E+03  0.7546771E-02  0.1142176E+00
         21   -1    0    0  503  502  0.00000000000E+00  0.00000000000E+00  0.50824022823E+03  0.50824022823E+03  0.00000000000E+00 0. -1.
         21   -1    0    0  501  503 -0.00000000000E+00 -0.00000000000E+00 -0.38813716212E+03  0.38813716212E+03  0.00000000000E+00 0.  1.
          6    1    1    2  501    0  0.11370947354E+03  0.30313641593E+02 -0.33529016102E+03  0.39521798202E+03  0.17300000000E+03 0.  1.
         -6    1    1    2    0  502 -0.11370947354E+03 -0.30313641593E+02  0.45539322712E+03  0.50115940832E+03  0.17300000000E+03 0. -1.
<mgrwt>
<rscale>  2 0.20923136E+03</rscale>
<asrwt>0</asrwt>
<pdfrwt beam="1">  1       21 0.78190804E-01 0.20923136E+03</pdfrwt>
<pdfrwt beam="2">  1       21 0.59713410E-01 0.20923136E+03</pdfrwt>
<totfact> 0.37408461E+03</totfact>
</mgrwt>
</event>
<event>
 4    2  0.3944631E+000  0.2027601E+03  0.7546771E-02  0.1147431E+00
         21   -1    0    0  501  502  0.00000000000E+00  0.00000000000E+00  0.55466488303E+03  0.55466488303E+03  0.00000000000E+00 0. -1.
         21   -1    0    0  502  503 -0.00000000000E+00 -0.00000000000E+00 -0.83022577058E+02  0.83022577058E+02  0.00000000000E+00 0. -1.
          6    1    1    2  501    0  0.53241505066E+02 -0.91367475965E+02  0.13141129638E+03  0.24162078210E+03  0.17300000000E+03 0. -1.
         -6    1    1    2    0  503 -0.53241505066E+02  0.91367475965E+02  0.34023100959E+03  0.39606667799E+03  0.17300000000E+03 0. -1.
<mgrwt>
<rscale>  2 0.20276014E+03</rscale>
<asrwt>0</asrwt>
<pdfrwt beam="1">  1       21 0.85333057E-01 0.20276014E+03</pdfrwt>
<pdfrwt beam="2">  1       21 0.12772704E-01 0.20276014E+03</pdfrwt>
<totfact> 0.62011680E+04</totfact>
</mgrwt>
</event>
<event>
 4    2  0.3944631E+000  0.1758313E+03  0.7546771E-02  0.1171900E+00
         21   -1    0    0  503  502  0.00000000000E+00  0.00000000000E+00  0.44211460374E+03  0.44211460374E+03  0.00000000000E+00 0. -1.
         21   -1    0    0  501  503 -0.00000000000E+00 -0.00000000000E+00 -0.26121812339E+03  0.26121812339E+03  0.00000000000E+00 0. -1.
          6    1    1    2  501    0 -0.31262150798E+02  0.32104309841E+01 -0.21048788496E+03  0.27426589043E+03  0.17300000000E+03 0. -1.
         -6    1    1    2    0  502  0.31262150798E+02 -0.32104309841E+01  0.39138436531E+03  0.42906683669E+03  0.17300000000E+03 0. -1.
<mgrwt>
<rscale>  2 0.17583125E+03</rscale>
<asrwt>0</asrwt>
<pdfrwt beam="1">  1       21 0.68017631E-01 0.17583125E+03</pdfrwt>
<pdfrwt beam="2">  1       21 0.40187404E-01 0.17583125E+03</pdfrwt>
<totfact> 0.11912115E+04</totfact>
</mgrwt>
</event>
<event>
 4    2  0.3944631E+000  0.2265362E+03  0.7546771E-02  0.1129102E+00
         21   -1    0    0  501  502  0.00000000000E+00  0.00000000000E+00  0.90931049719E+02  0.90931049719E+02  0.00000000000E+00 0. -1.
         21   -1    0    0  502  503 -0.00000000000E+00 -0.00000000000E+00 -0.56793777267E+03  0.56793777267E+03  0.00000000000E+00 0.  1.
          6    1    1    2  501    0 -0.14179933813E+03  0.35813143553E+02 -0.26461892943E+03  0.34834151541E+03  0.17300000000E+03 0. -1.
         -6    1    1    2    0  503  0.14179933813E+03 -0.35813143553E+02 -0.21238779352E+03  0.31052730698E+03  0.17300000000E+03 0. -1.
<mgrwt>
<rscale>  2 0.22653616E+03</rscale>
<asrwt>0</asrwt>
<pdfrwt beam="1">  1       21 0.13989393E-01 0.22653616E+03</pdfrwt>
<pdfrwt beam="2">  1       21 0.87375040E-01 0.22653616E+03</pdfrwt>
<totfact> 0.49267955E+04</totfact>
</mgrwt>
</event>
<event>
 4    2  0.3944631E+000  0.1782894E+03  0.7546771E-02  0.1169469E+00
         21   -1    0    0  501  502  0.00000000000E+00  0.00000000000E+00  0.29807178328E+04  0.29807178328E+04  0.00000000000E+00 0. -1.
         21   -1    0    0  502  503 -0.00000000000E+00 -0.00000000000E+00 -0.15199944796E+02  0.15199944796E+02  0.00000000000E+00 0. -1.
          6    1    1    2  501    0  0.42482592997E+02  0.73022854479E+01  0.23010375931E+04  0.23079343793E+04  0.17300000000E+03 0. -1.
         -6    1    1    2    0  503 -0.42482592997E+02 -0.73022854479E+01  0.66448029492E+03  0.68798339836E+03  0.17300000000E+03 0. -1.
<mgrwt>
<rscale>  2 0.17828935E+03</rscale>
<asrwt>0</asrwt>
<pdfrwt beam="1">  1       21 0.45857151E+00 0.17828935E+03</pdfrwt>
<pdfrwt beam="2">  1       21 0.23384554E-02 0.17828935E+03</pdfrwt>
<totfact> 0.35560629E+03</totfact>
</mgrwt>
</event>
<event>
 4    2  0.3944631E+000  0.2058015E+03  0.7546771E-02  0.1144935E+00
         21   -1    0    0  501  502  0.00000000000E+00  0.00000000000E+00  0.16107757508E+03  0.16107757508E+03  0.00000000000E+00 0. -1.
         21   -1    0    0  502  503 -0.00000000000E+00 -0.00000000000E+00 -0.59216496533E+03  0.59216496533E+03  0.00000000000E+00 0. -1.
          6    1    1    2  501    0 -0.91595156740E+02  0.63526101317E+02  0.65276165296E+02  0.21590557205E+03  0.17300000000E+03 0. -1.
         -6    1    1    2    0  503  0.91595156740E+02 -0.63526101317E+02 -0.49636355555E+03  0.53733696836E+03  0.17300000000E+03 0. -1.
<mgrwt>
<rscale>  2 0.20580145E+03</rscale>
<asrwt>0</asrwt>
<pdfrwt beam="1">  1       21 0.24781165E-01 0.20580145E+03</pdfrwt>
<pdfrwt beam="2">  1       21 0.91102304E-01 0.20580145E+03</pdfrwt>
<totfact> 0.15599623E+04</totfact>
</mgrwt>
</event>
<event>
 4    2  0.3944631E+000  0.2522397E+03  0.7546771E-02  0.1111898E+00
         21   -1    0    0  503  502  0.00000000000E+00  0.00000000000E+00  0.16080767427E+04  0.16080767427E+04  0.00000000000E+00 0.  1.
         21   -1    0    0  501  503 -0.00000000000E+00 -0.00000000000E+00 -0.40368492510E+02  0.40368492510E+02  0.00000000000E+00 0. -1.
          6    1    1    2  501    0 -0.17058941050E+03 -0.67787221229E+02  0.90007815352E+03  0.93475426545E+03  0.17300000000E+03 0.  1.
         -6    1    1    2    0  502  0.17058941050E+03  0.67787221229E+02  0.66763009665E+03  0.71369096974E+03  0.17300000000E+03 0. -1.
<mgrwt>
<rscale>  2 0.25223968E+03</rscale>
<asrwt>0</asrwt>
<pdfrwt beam="1">  1       21 0.24739637E+00 0.25223968E+03</pdfrwt>
<pdfrwt beam="2">  1       21 0.62105386E-02 0.25223968E+03</pdfrwt>
<totfact> 0.12191355E+04</totfact>
</mgrwt>
</event>
<event>
 4    2  0.3944631E+000  0.2352836E+03  0.7546771E-02  0.1122975E+00
         21   -1    0    0  503  502  0.00000000000E+00  0.00000000000E+00  0.36500938942E+03  0.36500938942E+03  0.00000000000E+00 0.  1.
         21   -1    0    0  501  503 -0.00000000000E+00 -0.00000000000E+00 -0.16995192991E+03  0.16995192991E+03  0.00000000000E+00 0. -1.
          6    1    1    2  501    0 -0.23722512351E+02 -0.15769157047E+03  0.18527415038E+03  0.29947437251E+03  0.17300000000E+03 0.  1.
         -6    1    1    2    0  502  0.23722512351E+02  0.15769157047E+03  0.97833091273E+01  0.23548694683E+03  0.17300000000E+03 0. -1.
<mgrwt>
<rscale>  2 0.23528364E+03</rscale>
<asrwt>0</asrwt>
<pdfrwt beam="1">  1       21 0.56155290E-01 0.23528364E+03</pdfrwt>
<pdfrwt beam="2">  1       21 0.26146451E-01 0.23528364E+03</pdfrwt>
<totfact> 0.40645044E+04</totfact>
</mgrwt>
</event>
<event>
 4    2  0.3944631E+000  0.2277685E+03  0.7546771E-02  0.1128220E+00
         21   -1    0    0  503  502  0.00000000000E+00  0.00000000000E+00  0.74466620928E+03  0.74466620928E+03  0.00000000000E+00 0. -1.
         21   -1    0    0  501  503 -0.00000000000E+00 -0.00000000000E+00 -0.71262026882E+02  0.71262026882E+02  0.00000000000E+00 0.  1.
          6    1    1    2  501    0  0.75215214811E+02 -0.12764075474E+03  0.27566301375E+03  0.35758717533E+03  0.17300000000E+03 0. -1.
         -6    1    1    2    0  502 -0.75215214811E+02  0.12764075474E+03  0.39774116864E+03  0.45834106083E+03  0.17300000000E+03 0. -1.
<mgrwt>
<rscale>  2 0.22776850E+03</rscale>
<asrwt>0</asrwt>
<pdfrwt beam="1">  1       21 0.11456403E+00 0.22776850E+03</pdfrwt>
<pdfrwt beam="2">  1       21 0.10963389E-01 0.22776850E+03</pdfrwt>
<totfact> 0.40044387E+04</totfact>
</mgrwt>
</event>
<event>
 4    2  0.3944631E+000  0.2068972E+03  0.7546771E-02  0.1144047E+00
         21   -1    0    0  503  502  0.00000000000E+00  0.00000000000E+00  0.15409008923E+03  0.15409008923E+03  0.00000000000E+00 0. -1.
         21   -1    0    0  501  503 -0.00000000000E+00 -0.00000000000E+00 -0.33099986954E+03  0.33099986954E+03  0.00000000000E+00 0. -1.
          6    1    1    2  501    0  0.10940389553E+03 -0.30137212062E+02  0.87811760059E+01  0.20708349273E+03  0.17300000000E+03 0. -1.
         -6    1    1    2    0  502 -0.10940389553E+03  0.30137212062E+02 -0.18569095631E+03  0.27800646605E+03  0.17300000000E+03 0. -1.
<mgrwt>
<rscale>  2 0.20689723E+03</rscale>
<asrwt>0</asrwt>
<pdfrwt beam="1">  1       21 0.23706168E-01 0.20689723E+03</pdfrwt>
<pdfrwt beam="2">  1       21 0.50923056E-01 0.20689723E+03</pdfrwt>
<totfact> 0.61063594E+04</totfact>
</mgrwt>
</event>
<event>
 4    2  0.3944631E+000  0.2207690E+03  0.7546771E-02  0.1133311E+00
         21   -1    0    0  503  502  0.00000000000E+00  0.00000000000E+00  0.11549311506E+03  0.11549311506E+03  0.00000000000E+00 0. -1.
         21   -1    0    0  501  503 -0.00000000000E+00 -0.00000000000E+00 -0.10033302812E+04  0.10033302812E+04  0.00000000000E+00 0. -1.
          6    1    1    2  501    0 -0.13190691514E+03  0.37556832248E+02 -0.86973096942E+03  0.89731316110E+03  0.17300000000E+03 0. -1.
         -6    1    1    2    0  502  0.13190691514E+03 -0.37556832248E+02 -0.18106196694E+02  0.22151023513E+03  0.17300000000E+03 0. -1.
<mgrwt>
<rscale>  2 0.22076900E+03</rscale>
<asrwt>0</asrwt>
<pdfrwt beam="1">  1       21 0.17768172E-01 0.22076900E+03</pdfrwt>
<pdfrwt beam="2">  1       21 0.15435850E+00 0.22076900E+03</pdfrwt>
<totfact> 0.77993928E+03</totfact>
</mgrwt>
</event>
<event>
 4    2  0.3944631E+000  0.1785455E+03  0.7546771E-02  0.1169218E+00
         21   -1    0    0  501  502  0.00000000000E+00  0.00000000000E+00  0.46402592796E+03  0.46402592796E+03  0.00000000000E+00 0.  1.
         21   -1    0    0  502  503 -0.00000000000E+00 -0.00000000000E+00 -0.13046204906E+03  0.13046204906E+03  0.00000000000E+00 0.  1.
          6    1    1    2  501    0  0.31606262776E+02 -0.30830673320E+02  0.37130041656E+03  0.41199816214E+03  0.17300000000E+03 0.  1.
         -6    1    1    2    0  503 -0.31606262776E+02  0.30830673320E+02 -0.37736537658E+02  0.18248981489E+03  0.17300000000E+03 0.  1.
<mgrwt>
<rscale>  2 0.17854547E+03</rscale>
<asrwt>0</asrwt>
<pdfrwt beam="1">  1       21 0.71388603E-01 0.17854547E+03</pdfrwt>
<pdfrwt beam="2">  1       21 0.20071085E-01 0.17854547E+03</pdfrwt>
<totfact> 0.40976373E+04</totfact>
</mgrwt>
</event>
<event>
 4    2  0.3944631E+000  0.2318279E+03  0.7546771E-02  0.1125360E+00
         21   -1    0    0  503  502  0.00000000000E+00  0.00000000000E+00  0.11314407659E+03  0.11314407659E+03  0.00000000000E+00 0.  1.
         21   -1    0    0  501  503 -0.00000000000E+00 -0.00000000000E+00 -0.53235990411E+03  0.53235990411E+03  0.00000000000E+00 0.  1.
          6    1    1    2  501    0  0.15278065004E+03  0.21753901398E+02 -0.10367125277E+03  0.25395253081E+03  0.17300000000E+03 0.  1.
         -6    1    1    2    0  502 -0.15278065004E+03 -0.21753901398E+02 -0.31554457476E+03  0.39155144989E+03  0.17300000000E+03 0.  1.
<mgrwt>
<rscale>  2 0.23182787E+03</rscale>
<asrwt>0</asrwt>
<pdfrwt beam="1">  1       21 0.17406781E-01 0.23182787E+03</pdfrwt>
<pdfrwt beam="2">  1       21 0.81901523E-01 0.23182787E+03</pdfrwt>
<totfact> 0.38187399E+04</totfact>
</mgrwt>
</event>
<event>
 4    2  0.3944631E+000  0.1842435E+03  0.7546771E-02  0.1163758E+00
         21   -1    0    0  501  502  0.00000000000E+00  0.00000000000E+00  0.10341300641E+03  0.10341300641E+03  0.00000000000E+00 0. -1.
         21   -1    0    0  502  503 -0.00000000000E+00 -0.00000000000E+00 -0.53381067051E+03  0.53381067051E+03  0.00000000000E+00 0. -1.
          6    1    1    2  501    0  0.62751492106E+02  0.88840170005E+01 -0.17486090737E+02  0.18507144266E+03  0.17300000000E+03 0. -1.
         -6    1    1    2    0  503 -0.62751492106E+02 -0.88840170005E+01 -0.41291157337E+03  0.45215223425E+03  0.17300000000E+03 0. -1.
<mgrwt>
<rscale>  2 0.18424352E+03</rscale>
<asrwt>0</asrwt>
<pdfrwt beam="1">  1       21 0.15909693E-01 0.18424352E+03</pdfrwt>
<pdfrwt beam="2">  1       21 0.82124719E-01 0.18424352E+03</pdfrwt>
<totfact> 0.45851151E+04</totfact>
</mgrwt>
</event>
<event>
 4    2  0.3944631E+000  0.2146792E+03  0.7546771E-02  0.1137913E+00
         21   -1    0    0  503  502  0.00000000000E+00  0.00000000000E+00  0.24276059066E+03  0.24276059066E+03  0.00000000000E+00 0. -1.
         21   -1    0    0  501  503 -0.00000000000E+00 -0.00000000000E+00 -0.21704883846E+03  0.21704883846E+03  0.00000000000E+00 0. -1.
          6    1    1    2  501    0  0.33398238458E+02 -0.12264877147E+03 -0.68534875551E+02  0.22535348376E+03  0.17300000000E+03 0. -1.
         -6    1    1    2    0  502 -0.33398238458E+02  0.12264877147E+03  0.94246627754E+02  0.23445594537E+03  0.17300000000E+03 0. -1.
<mgrwt>
<rscale>  2 0.21467921E+03</rscale>
<asrwt>0</asrwt>
<pdfrwt beam="1">  1       21 0.37347783E-01 0.21467921E+03</pdfrwt>
<pdfrwt beam="2">  1       21 0.33392129E-01 0.21467921E+03</pdfrwt>
<totfact> 0.59119193E+04</totfact>
</mgrwt>
</event>
<event>
 4    2  0.3944631E+000  0.1970139E+03  0.7546771E-02  0.1152283E+00
         21   -1    0    0  501  502  0.00000000000E+00  0.00000000000E+00  0.44731039050E+03  0.44731039050E+03  0.00000000000E+00 0. -1.
         21   -1    0    0  502  503 -0.00000000000E+00 -0.00000000000E+00 -0.11442623888E+03  0.11442623888E+03  0.00000000000E+00 0.  1.
          6    1    1    2  501    0  0.62932971407E+02 -0.70177637788E+02  0.30451643087E+03  0.36269093786E+03  0.17300000000E+03 0. -1.
         -6    1    1    2    0  503 -0.62932971407E+02  0.70177637788E+02  0.28367720753E+02  0.19904569153E+03  0.17300000000E+03 0.  1.
<mgrwt>
<rscale>  2 0.19701386E+03</rscale>
<asrwt>0</asrwt>
<pdfrwt beam="1">  1       21 0.68816982E-01 0.19701386E+03</pdfrwt>
<pdfrwt beam="2">  1       21 0.17604037E-01 0.19701386E+03</pdfrwt>
<totfact> 0.56159383E+04</totfact>
</mgrwt>
</event>
<event>
 4    2  0.3944631E+000  0.1799932E+03  0.7546771E-02  0.1167810E+00
         21   -1    0    0  503  502  0.00000000000E+00  0.00000000000E+00  0.29186564732E+03  0.29186564732E+03  0.00000000000E+00 0. -1.
         21   -1    0    0  501  503 -0.00000000000E+00 -0.00000000000E+00 -0.11577073794E+03  0.11577073794E+03  0.00000000000E+00 0. -1.
          6    1    1    2  501    0 -0.49536092133E+02  0.38398266689E+01  0.46679774269E+02  0.18594776153E+03  0.17300000000E+03 0. -1.
         -6    1    1    2    0  502  0.49536092133E+02 -0.38398266689E+01  0.12941513511E+03  0.22168862372E+03  0.17300000000E+03 0. -1.
<mgrwt>
<rscale>  2 0.17999325E+03</rscale>
<asrwt>0</asrwt>
<pdfrwt beam="1">  1       21 0.44902407E-01 0.17999325E+03</pdfrwt>
<pdfrwt beam="2">  1       21 0.17810883E-01 0.17999325E+03</pdfrwt>
<totfact> 0.13684995E+05</totfact>
</mgrwt>
</event>
<event>
 4    2  0.3944631E+000  0.1945829E+03  0.7546771E-02  0.1154392E+00
         21   -1    0    0  501  502  0.00000000000E+00  0.00000000000E+00  0.36925310277E+03  0.36925310277E+03  0.00000000000E+00 0. -1.
         21   -1    0    0  502  503 -0.00000000000E+00 -0.00000000000E+00 -0.10691945350E+03  0.10691945350E+03  0.00000000000E+00 0. -1.
          6    1    1    2  501    0  0.78354871973E+02 -0.42355897195E+02  0.17936278402E+03  0.26463846334E+03  0.17300000000E+03 0.  1.
         -6    1    1    2    0  503 -0.78354871973E+02  0.42355897195E+02  0.82970865258E+02  0.21153409293E+03  0.17300000000E+03 0.  1.
<mgrwt>
<rscale>  2 0.19458291E+03</rscale>
<asrwt>0</asrwt>
<pdfrwt beam="1">  1       21 0.56808169E-01 0.19458291E+03</pdfrwt>
<pdfrwt beam="2">  1       21 0.16449147E-01 0.19458291E+03</pdfrwt>
<totfact> 0.96453537E+04</totfact>
</mgrwt>
</event>
<event>
 4    2  0.3944631E+000  0.1784445E+03  0.7546771E-02  0.1169317E+00
         21   -1    0    0  503  502  0.00000000000E+00  0.00000000000E+00  0.11451129104E+03  0.11451129104E+03  0.00000000000E+00 0. -1.
         21   -1    0    0  501  503 -0.00000000000E+00 -0.00000000000E+00 -0.27915558405E+03  0.27915558405E+03  0.00000000000E+00 0. -1.
          6    1    1    2  501    0  0.58326993744E+01  0.43352075921E+02 -0.70060790603E+02  0.19170533965E+03  0.17300000000E+03 0. -1.
         -6    1    1    2    0  502 -0.58326993744E+01 -0.43352075921E+02 -0.94583502412E+02  0.20196153544E+03  0.17300000000E+03 0. -1.
<mgrwt>
<rscale>  2 0.17844445E+03</rscale>
<asrwt>0</asrwt>
<pdfrwt beam="1">  1       21 0.17617122E-01 0.17844445E+03</pdfrwt>
<pdfrwt beam="2">  1       21 0.42947013E-01 0.17844445E+03</pdfrwt>
<totfact> 0.15301232E+05</totfact>
</mgrwt>
</event>
<event>
 4    2  0.3944631E+000  0.1825669E+03  0.7546771E-02  0.1165342E+00
         21   -1    0    0  501  502  0.00000000000E+00  0.00000000000E+00  0.59413901515E+03  0.59413901515E+03  0.00000000000E+00 0.  1.
         21   -1    0    0  502  503 -0.00000000000E+00 -0.00000000000E+00 -0.63973530617E+02  0.63973530617E+02  0.00000000000E+00 0.  1.
          6    1    1    2  501    0  0.56528912138E+02 -0.14358423788E+02  0.38052870489E+03  0.42205778927E+03  0.17300000000E+03 0.  1.
         -6    1    1    2    0  503 -0.56528912138E+02  0.14358423788E+02  0.14963677964E+03  0.23605475649E+03  0.17300000000E+03 0.  1.
<mgrwt>
<rscale>  2 0.18256693E+03</rscale>
<asrwt>0</asrwt>
<pdfrwt beam="1">  1       21 0.91405999E-01 0.18256693E+03</pdfrwt>
<pdfrwt beam="2">  1       21 0.98420820E-02 0.18256693E+03</pdfrwt>
<totfact> 0.84945905E+04</totfact>
</mgrwt>
</event>
<event>
 4    2  0.3944631E+000  0.1872491E+03  0.7546771E-02  0.1160966E+00
         21   -1    0    0  501  502  0.00000000000E+00  0.00000000000E+00  0.58111276397E+02  0.58111276397E+02  0.00000000000E+00 0.  1.
         21   -1    0    0  502  503 -0.00000000000E+00 -0.00000000000E+00 -0.62408535109E+03  0.62408535109E+03  0.00000000000E+00 0.  1.
          6    1    1    2  501    0  0.66092896758E+02 -0.27657914884E+02 -0.22083285119E+03  0.28953303684E+03  0.17300000000E+03 0.  1.
         -6    1    1    2    0  503 -0.66092896758E+02  0.27657914884E+02 -0.34514122350E+03  0.39266359064E+03  0.17300000000E+03 0.  1.
<mgrwt>
<rscale>  2 0.18724912E+03</rscale>
<asrwt>0</asrwt>
<pdfrwt beam="1">  1       21 0.89401968E-02 0.18724912E+03</pdfrwt>
<pdfrwt beam="2">  1       21 0.96013126E-01 0.18724912E+03</pdfrwt>
<totfact> 0.89506986E+04</totfact>
</mgrwt>
</event>
<event>
 4    2  0.3944631E+000  0.1901966E+03  0.7546771E-02  0.1158284E+00
         21   -1    0    0  501  502  0.00000000000E+00  0.00000000000E+00  0.10767487812E+04  0.10767487812E+04  0.00000000000E+00 0. -1.
         21   -1    0    0  502  503 -0.00000000000E+00 -0.00000000000E+00 -0.35389490531E+02  0.35389490531E+02  0.00000000000E+00 0. -1.
          6    1    1    2  501    0  0.54552088596E+02  0.57182161113E+02  0.39550685534E+03  0.43886262377E+03  0.17300000000E+03 0. -1.
         -6    1    1    2    0  503 -0.54552088596E+02 -0.57182161113E+02  0.64585243535E+03  0.67327564798E+03  0.17300000000E+03 0. -1.
<mgrwt>
<rscale>  2 0.19019656E+03</rscale>
<asrwt>0</asrwt>
<pdfrwt beam="1">  1       21 0.16565363E+00 0.19019656E+03</pdfrwt>
<pdfrwt beam="2">  1       21 0.54445378E-02 0.19019656E+03</pdfrwt>
<totfact> 0.53391599E+04</totfact>
</mgrwt>
</event>
<event>
 4    2  0.3944631E+000  0.4217007E+03  0.7546771E-02  0.1036514E+00
         21   -1    0    0  503  502  0.00000000000E+00  0.00000000000E+00  0.20896791304E+03  0.20896791304E+03  0.00000000000E+00 0.  1.
         21   -1    0    0  501  503 -0.00000000000E+00 -0.00000000000E+00 -0.86731999105E+03  0.86731999105E+03  0.00000000000E+00 0. -1.
          6    1    1    2  501    0  0.11829179738E+03 -0.36593655709E+03 -0.25535498208E+03  0.49298851915E+03  0.17300000000E+03 0.  1.
         -6    1    1    2    0  502 -0.11829179738E+03  0.36593655709E+03 -0.40299709593E+03  0.58329938494E+03  0.17300000000E+03 0. -1.
<mgrwt>
<rscale>  2 0.42170074E+03</rscale>
<asrwt>0</asrwt>
<pdfrwt beam="1">  1       21 0.32148909E-01 0.42170074E+03</pdfrwt>
<pdfrwt beam="2">  1       21 0.13343385E+00 0.42170074E+03</pdfrwt>
<totfact> 0.33001258E+03</totfact>
</mgrwt>
</event>
<event>
 4    2  0.3944631E+000  0.1798349E+03  0.7546771E-02  0.1167963E+00
         21   -1    0    0  501  502  0.00000000000E+00  0.00000000000E+00  0.82776852772E+03  0.82776852772E+03  0.00000000000E+00 0.  1.
         21   -1    0    0  502  503 -0.00000000000E+00 -0.00000000000E+00 -0.48398909566E+02  0.48398909566E+02  0.00000000000E+00 0.  1.
          6    1    1    2  501    0  0.46591961707E+02 -0.15516703760E+02  0.58202243585E+03  0.60917213891E+03  0.17300000000E+03 0.  1.
         -6    1    1    2    0  503 -0.46591961707E+02  0.15516703760E+02  0.19734718230E+03  0.26699529837E+03  0.17300000000E+03 0.  1.
<mgrwt>
<rscale>  2 0.17983487E+03</rscale>
<asrwt>0</asrwt>
<pdfrwt beam="1">  1       21 0.12734899E+00 0.17983487E+03</pdfrwt>
<pdfrwt beam="2">  1       21 0.74459867E-02 0.17983487E+03</pdfrwt>
<totfact> 0.62285592E+04</totfact>
</mgrwt>
</event>
<event>
 4    2  0.3944631E+000  0.1867779E+03  0.7546771E-02  0.1161400E+00
         21   -1    0    0  501  502  0.00000000000E+00  0.00000000000E+00  0.81967326497E+02  0.81967326497E+02  0.00000000000E+00 0. -1.
         21   -1    0    0  502  503 -0.00000000000E+00 -0.00000000000E+00 -0.42561374960E+03  0.42561374960E+03  0.00000000000E+00 0.  1.
          6    1    1    2  501    0 -0.70175248908E+02 -0.56946554958E+01 -0.17271060037E+03  0.25439132481E+03  0.17300000000E+03 0.  1.
         -6    1    1    2    0  503  0.70175248908E+02  0.56946554958E+01 -0.17093582273E+03  0.25318975128E+03  0.17300000000E+03 0.  1.
<mgrwt>
<rscale>  2 0.18677793E+03</rscale>
<asrwt>0</asrwt>
<pdfrwt beam="1">  1       21 0.12610358E-01 0.18677793E+03</pdfrwt>
<pdfrwt beam="2">  1       21 0.65479037E-01 0.18677793E+03</pdfrwt>
<totfact> 0.11540711E+05</totfact>
</mgrwt>
</event>
<event>
 4    2  0.3944631E+000  0.1766427E+03  0.7546771E-02  0.1171092E+00
         21   -1    0    0  501  502  0.00000000000E+00  0.00000000000E+00  0.47722510876E+02  0.47722510876E+02  0.00000000000E+00 0. -1.
         21   -1    0    0  502  503 -0.00000000000E+00 -0.00000000000E+00 -0.29324432432E+04  0.29324432432E+04  0.00000000000E+00 0. -1.
          6    1    1    2  501    0 -0.35502267392E+02 -0.36396744780E+01 -0.12885930489E+03  0.21864898508E+03  0.17300000000E+03 0. -1.
         -6    1    1    2    0  503  0.35502267392E+02  0.36396744780E+01 -0.27558614275E+04  0.27615167690E+04  0.17300000000E+03 0. -1.
<mgrwt>
<rscale>  2 0.17664274E+03</rscale>
<asrwt>0</asrwt>
<pdfrwt beam="1">  1       21 0.73419239E-02 0.17664274E+03</pdfrwt>
<pdfrwt beam="2">  1       21 0.45114517E+00 0.17664274E+03</pdfrwt>
<totfact> 0.58575443E+02</totfact>
</mgrwt>
</event>
<event>
 4    2  0.3944631E+000  0.1750471E+03  0.7546771E-02  0.1172684E+00
         21   -1    0    0  501  502  0.00000000000E+00  0.00000000000E+00  0.80005258069E+02  0.80005258069E+02  0.00000000000E+00 0. -1.
         21   -1    0    0  502  503 -0.00000000000E+00 -0.00000000000E+00 -0.99707579186E+03  0.99707579186E+03  0.00000000000E+00 0. -1.
          6    1    1    2  501    0  0.25502015401E+02  0.78823153273E+01 -0.35898150053E+02  0.17869012525E+03  0.17300000000E+03 0. -1.
         -6    1    1    2    0  503 -0.25502015401E+02 -0.78823153273E+01 -0.88117238373E+03  0.89839092468E+03  0.17300000000E+03 0. -1.
<mgrwt>
<rscale>  2 0.17504709E+03</rscale>
<asrwt>0</asrwt>
<pdfrwt beam="1">  1       21 0.12308502E-01 0.17504709E+03</pdfrwt>
<pdfrwt beam="2">  1       21 0.15339626E+00 0.17504709E+03</pdfrwt>
<totfact> 0.16000120E+04</totfact>
</mgrwt>
</event>
<event>
 4    2  0.3944631E+000  0.2232119E+03  0.7546771E-02  0.1131511E+00
         21   -1    0    0  503  502  0.00000000000E+00  0.00000000000E+00  0.53491796889E+03  0.53491796889E+03  0.00000000000E+00 0. -1.
         21   -1    0    0  501  503 -0.00000000000E+00 -0.00000000000E+00 -0.30785965792E+03  0.30785965792E+03  0.00000000000E+00 0.  1.
          6    1    1    2  501    0  0.13690715085E+03 -0.33926024538E+02 -0.23838771570E+03  0.32657655472E+03  0.17300000000E+03 0.  1.
         -6    1    1    2    0  502 -0.13690715085E+03  0.33926024538E+02  0.46544602666E+03  0.51620107210E+03  0.17300000000E+03 0. -1.
<mgrwt>
<rscale>  2 0.22321188E+03</rscale>
<asrwt>0</asrwt>
<pdfrwt beam="1">  1       21 0.82295072E-01 0.22321188E+03</pdfrwt>
<pdfrwt beam="2">  1       21 0.47363024E-01 0.22321188E+03</pdfrwt>
<totfact> 0.53774822E+03</totfact>
</mgrwt>
</event>
<event>
 4    2  0.3944631E+000  0.2057129E+03  0.7546771E-02  0.1145007E+00
         21   -1    0    0  503  502  0.00000000000E+00  0.00000000000E+00  0.74051205425E+02  0.74051205425E+02  0.00000000000E+00 0. -1.
         21   -1    0    0  501  503 -0.00000000000E+00 -0.00000000000E+00 -0.17620069666E+04  0.17620069666E+04  0.00000000000E+00 0. -1.
          6    1    1    2  501    0 -0.51207342867E+02 -0.98826233449E+02 -0.15985914836E+04  0.16117731068E+04  0.17300000000E+03 0.  1.
         -6    1    1    2    0  502  0.51207342867E+02  0.98826233449E+02 -0.89364277600E+02  0.22428506525E+03  0.17300000000E+03 0.  1.
<mgrwt>
<rscale>  2 0.20571295E+03</rscale>
<asrwt>0</asrwt>
<pdfrwt beam="1">  1       21 0.11392494E-01 0.20571295E+03</pdfrwt>
<pdfrwt beam="2">  1       21 0.27107797E+00 0.20571295E+03</pdfrwt>
<totfact> 0.31797205E+03</totfact>
</mgrwt>
</event>
<event>
 4    2  0.3944631E+000  0.1873252E+03  0.7546771E-02  0.1160896E+00
         21   -1    0    0  501  502  0.00000000000E+00  0.00000000000E+00  0.40625842648E+03  0.40625842648E+03  0.00000000000E+00 0.  1.
         21   -1    0    0  502  503 -0.00000000000E+00 -0.00000000000E+00 -0.10112333713E+03  0.10112333713E+03  0.00000000000E+00 0. -1.
          6    1    1    2  501    0 -0.10255321717E+02 -0.71109385098E+02  0.24945006898E+03  0.31195521023E+03  0.17300000000E+03 0.  1.
         -6    1    1    2    0  503  0.10255321717E+02  0.71109385098E+02  0.55685020364E+02  0.19542655338E+03  0.17300000000E+03 0. -1.
<mgrwt>
<rscale>  2 0.18732516E+03</rscale>
<asrwt>0</asrwt>
<pdfrwt beam="1">  1       21 0.62501296E-01 0.18732516E+03</pdfrwt>
<pdfrwt beam="2">  1       21 0.15557437E-01 0.18732516E+03</pdfrwt>
<totfact> 0.87279723E+04</totfact>
</mgrwt>
</event>
<event>
 4    2  0.3944631E+000  0.1749032E+03  0.7546771E-02  0.1172829E+00
         21   -1    0    0  501  502  0.00000000000E+00  0.00000000000E+00  0.98820266671E+02  0.98820266671E+02  0.00000000000E+00 0. -1.
         21   -1    0    0  502  503 -0.00000000000E+00 -0.00000000000E+00 -0.31379701980E+03  0.31379701980E+03  0.00000000000E+00 0. -1.
          6    1    1    2  501    0  0.25304635505E+02 -0.46678902077E+01 -0.83524262413E+02  0.19382315700E+03  0.17300000000E+03 0. -1.
         -6    1    1    2    0  503 -0.25304635505E+02  0.46678902077E+01 -0.13145249072E+03  0.21879412948E+03  0.17300000000E+03 0. -1.
<mgrwt>
<rscale>  2 0.17490316E+03</rscale>
<asrwt>0</asrwt>
<pdfrwt beam="1">  1       21 0.15203118E-01 0.17490316E+03</pdfrwt>
<pdfrwt beam="2">  1       21 0.48276464E-01 0.17490316E+03</pdfrwt>
<totfact> 0.15779449E+05</totfact>
</mgrwt>
</event>
<event>
 4    2  0.3944631E+000  0.1762883E+03  0.7546771E-02  0.1171444E+00
         21   -1    0    0  503  502  0.00000000000E+00  0.00000000000E+00  0.17066603624E+03  0.17066603624E+03  0.00000000000E+00 0.  1.
         21   -1    0    0  501  503 -0.00000000000E+00 -0.00000000000E+00 -0.39953540930E+03  0.39953540930E+03  0.00000000000E+00 0.  1.
          6    1    1    2  501    0  0.15264728997E+02 -0.30258004265E+02 -0.32475928407E+03  0.36952151678E+03  0.17300000000E+03 0.  1.
         -6    1    1    2    0  502 -0.15264728997E+02  0.30258004265E+02  0.95889911008E+02  0.20067992876E+03  0.17300000000E+03 0.  1.
<mgrwt>
<rscale>  2 0.17628828E+03</rscale>
<asrwt>0</asrwt>
<pdfrwt beam="1">  1       21 0.26256313E-01 0.17628828E+03</pdfrwt>
<pdfrwt beam="2">  1       21 0.61466986E-01 0.17628828E+03</pdfrwt>
<totfact> 0.34218227E+04</totfact>
</mgrwt>
</event>
<event>
 4    2  0.3944631E+000  0.1827550E+03  0.7546771E-02  0.1165163E+00
         21   -1    0    0  503  502  0.00000000000E+00  0.00000000000E+00  0.17874563383E+03  0.17874563383E+03  0.00000000000E+00 0. -1.
         21   -1    0    0  501  503 -0.00000000000E+00 -0.00000000000E+00 -0.18958603587E+03  0.18958603587E+03  0.00000000000E+00 0. -1.
          6    1    1    2  501    0  0.21117637489E+02  0.54994975021E+02  0.16686303933E+02  0.18351521634E+03  0.17300000000E+03 0. -1.
         -6    1    1    2    0  502 -0.21117637489E+02 -0.54994975021E+02 -0.27526705969E+02  0.18481645336E+03  0.17300000000E+03 0. -1.
<mgrwt>
<rscale>  2 0.18275503E+03</rscale>
<asrwt>0</asrwt>
<pdfrwt beam="1">  1       21 0.27499328E-01 0.18275503E+03</pdfrwt>
<pdfrwt beam="2">  1       21 0.29167082E-01 0.18275503E+03</pdfrwt>
<totfact> 0.14246590E+05</totfact>
</mgrwt>
</event>
<event>
 4    2  0.3944631E+000  0.1779213E+03  0.7546771E-02  0.1169830E+00
         21   -1    0    0  501  502  0.00000000000E+00  0.00000000000E+00  0.59934188701E+02  0.59934188701E+02  0.00000000000E+00 0.  1.
         21   -1    0    0  502  503 -0.00000000000E+00 -0.00000000000E+00 -0.52888594807E+03  0.52888594807E+03  0.00000000000E+00 0.  1.
          6    1    1    2  501    0 -0.39096880136E+02  0.14086488537E+02 -0.24523772538E+03  0.30298108381E+03  0.17300000000E+03 0.  1.
         -6    1    1    2    0  503  0.39096880136E+02 -0.14086488537E+02 -0.22371403399E+03  0.28583905296E+03  0.17300000000E+03 0.  1.
<mgrwt>
<rscale>  2 0.17792132E+03</rscale>
<asrwt>0</asrwt>
<pdfrwt beam="1">  1       21 0.92206442E-02 0.17792132E+03</pdfrwt>
<pdfrwt beam="2">  1       21 0.81367071E-01 0.17792132E+03</pdfrwt>
<totfact> 0.12458357E+05</totfact>
</mgrwt>
</event>
<event>
 4    2  0.3944631E+000  0.2098266E+03  0.7546771E-02  0.1141703E+00
         21   -1    0    0  503  502  0.00000000000E+00  0.00000000000E+00  0.41878973759E+03  0.41878973759E+03  0.00000000000E+00 0. -1.
         21   -1    0    0  501  503 -0.00000000000E+00 -0.00000000000E+00 -0.18189361634E+03  0.18189361634E+03  0.00000000000E+00 0. -1.
          6    1    1    2  501    0  0.69786604802E+02  0.96062723173E+02 -0.76664660650E+02  0.22339357015E+03  0.17300000000E+03 0. -1.
         -6    1    1    2    0  502 -0.69786604802E+02 -0.96062723173E+02  0.31356078191E+03  0.37728978378E+03  0.17300000000E+03 0. -1.
<mgrwt>
<rscale>  2 0.20982664E+03</rscale>
<asrwt>0</asrwt>
<pdfrwt beam="1">  1       21 0.64429190E-01 0.20982664E+03</pdfrwt>
<pdfrwt beam="2">  1       21 0.27983633E-01 0.20982664E+03</pdfrwt>
<totfact> 0.26838608E+04</totfact>
</mgrwt>
</event>
<event>
 4    2  0.3944631E+000  0.2922427E+03  0.7546771E-02  0.1089184E+00
         21   -1    0    0  503  502  0.00000000000E+00  0.00000000000E+00  0.36149182409E+03  0.36149182409E+03  0.00000000000E+00 0. -1.
         21   -1    0    0  501  503 -0.00000000000E+00 -0.00000000000E+00 -0.27116242721E+03  0.27116242721E+03  0.00000000000E+00 0.  1.
          6    1    1    2  501    0  0.18454868469E+03  0.14635088107E+03 -0.68324357895E+02  0.30012333347E+03  0.17300000000E+03 0.  1.
         -6    1    1    2    0  502 -0.18454868469E+03 -0.14635088107E+03  0.15865375477E+03  0.33253091783E+03  0.17300000000E+03 0. -1.
<mgrwt>
<rscale>  2 0.29224270E+03</rscale>
<asrwt>0</asrwt>
<pdfrwt beam="1">  1       21 0.55614127E-01 0.29224270E+03</pdfrwt>
<pdfrwt beam="2">  1       21 0.41717297E-01 0.29224270E+03</pdfrwt>
<totfact> 0.15998202E+04</totfact>
</mgrwt>
</event>
<event>
 4    2  0.3944631E+000  0.1783982E+03  0.7546771E-02  0.1169362E+00
         21   -1    0    0  501  502  0.00000000000E+00  0.00000000000E+00  0.30245804924E+03  0.30245804924E+03  0.00000000000E+00 0. -1.
         21   -1    0    0  502  503 -0.00000000000E+00 -0.00000000000E+00 -0.10563774594E+03  0.10563774594E+03  0.00000000000E+00 0. -1.
          6    1    1    2  501    0 -0.41369003369E+02 -0.13621266971E+02  0.11117563918E+03  0.21020455776E+03  0.17300000000E+03 0. -1.
         -6    1    1    2    0  503  0.41369003369E+02  0.13621266971E+02  0.85644664116E+02  0.19789123741E+03  0.17300000000E+03 0. -1.
<mgrwt>
<rscale>  2 0.17839824E+03</rscale>
<asrwt>0</asrwt>
<pdfrwt beam="1">  1       21 0.46532007E-01 0.17839824E+03</pdfrwt>
<pdfrwt beam="2">  1       21 0.16251961E-01 0.17839824E+03</pdfrwt>
<totfact> 0.15056896E+05</totfact>
</mgrwt>
</event>
<event>
 4    2  0.3944631E+000  0.1797942E+03  0.7546771E-02  0.1168002E+00
         21   -1    0    0  503  502  0.00000000000E+00  0.00000000000E+00  0.15662431384E+03  0.15662431384E+03  0.00000000000E+00 0.  1.
         21   -1    0    0  501  503 -0.00000000000E+00 -0.00000000000E+00 -0.63681310001E+03  0.63681310001E+03  0.00000000000E+00 0.  1.
          6    1    1    2  501    0 -0.41877661858E+02 -0.25361386182E+02 -0.56624912025E+03  0.59410773826E+03  0.17300000000E+03 0.  1.
         -6    1    1    2    0  502  0.41877661858E+02  0.25361386182E+02  0.86060334076E+02  0.19932967560E+03  0.17300000000E+03 0.  1.
<mgrwt>
<rscale>  2 0.17979416E+03</rscale>
<asrwt>0</asrwt>
<pdfrwt beam="1">  1       21 0.24096049E-01 0.17979416E+03</pdfrwt>
<pdfrwt beam="2">  1       21 0.97971245E-01 0.17979416E+03</pdfrwt>
<totfact> 0.14120913E+04</totfact>
</mgrwt>
</event>
<event>
 4    2  0.3944631E+000  0.2140405E+03  0.7546771E-02  0.1138406E+00
         21   -1    0    0  501  502  0.00000000000E+00  0.00000000000E+00  0.15090589989E+03  0.15090589989E+03  0.00000000000E+00 0.  1.
         21   -1    0    0  502  503 -0.00000000000E+00 -0.00000000000E+00 -0.40521120678E+03  0.40521120678E+03  0.00000000000E+00 0. -1.
          6    1    1    2  501    0 -0.18832662329E+02  0.12461814388E+03  0.12095720667E+02  0.21438203613E+03  0.17300000000E+03 0.  1.
         -6    1    1    2    0  503  0.18832662329E+02 -0.12461814388E+03 -0.26640102756E+03  0.34173507054E+03  0.17300000000E+03 0. -1.
<mgrwt>
<rscale>  2 0.21404054E+03</rscale>
<asrwt>0</asrwt>
<pdfrwt beam="1">  1       21 0.23216292E-01 0.21404054E+03</pdfrwt>
<pdfrwt beam="2">  1       21 0.62340186E-01 0.21404054E+03</pdfrwt>
<totfact> 0.41159073E+04</totfact>
</mgrwt>
</event>
<event>
 4    2  0.3944631E+000  0.1882854E+03  0.7546771E-02  0.1160017E+00
         21   -1    0    0  501  502  0.00000000000E+00  0.00000000000E+00  0.30431644804E+02  0.30431644804E+02  0.00000000000E+00 0. -1.
         21   -1    0    0  502  503 -0.00000000000E+00 -0.00000000000E+00 -0.12306874636E+04  0.12306874636E+04  0.00000000000E+00 0. -1.
          6    1    1    2  501    0 -0.47497343321E+02  0.57152216401E+02 -0.74586012331E+03  0.76925853717E+03  0.17300000000E+03 0. -1.
         -6    1    1    2    0  503  0.47497343321E+02 -0.57152216401E+02 -0.45439569552E+03  0.49186057127E+03  0.17300000000E+03 0. -1.
<mgrwt>
<rscale>  2 0.18828535E+03</rscale>
<asrwt>0</asrwt>
<pdfrwt beam="1">  1       21 0.46817912E-02 0.18828535E+03</pdfrwt>
<pdfrwt beam="2">  1       21 0.18933655E+00 0.18828535E+03</pdfrwt>
<totfact> 0.47500179E+04</totfact>
</mgrwt>
</event>
<event>
 4    2  0.3944631E+000  0.2605545E+03  0.7546771E-02  0.1106811E+00
         21   -1    0    0  503  502  0.00000000000E+00  0.00000000000E+00  0.41902466303E+03  0.41902466303E+03  0.00000000000E+00 0.  1.
         21   -1    0    0  501  503 -0.00000000000E+00 -0.00000000000E+00 -0.16708423026E+03  0.16708423026E+03  0.00000000000E+00 0. -1.
          6    1    1    2  501    0 -0.17816126817E+03  0.78855534538E+02  0.17701079674E+03  0.31499437291E+03  0.17300000000E+03 0.  1.
         -6    1    1    2    0  502  0.17816126817E+03 -0.78855534538E+02  0.74929636032E+02  0.27111452038E+03  0.17300000000E+03 0. -1.
<mgrwt>
<rscale>  2 0.26055447E+03</rscale>
<asrwt>0</asrwt>
<pdfrwt beam="1">  1       21 0.64465332E-01 0.26055447E+03</pdfrwt>
<pdfrwt beam="2">  1       21 0.25705266E-01 0.26055447E+03</pdfrwt>
<totfact> 0.30827675E+04</totfact>
</mgrwt>
</event>
<event>
 4    2  0.3944631E+000  0.2047540E+03  0.7546771E-02  0.1145789E+00
         21   -1    0    0  503  502  0.00000000000E+00  0.00000000000E+00  0.26566430710E+03  0.26566430710E+03  0.00000000000E+00 0. -1.
         21   -1    0    0  501  503 -0.00000000000E+00 -0.00000000000E+00 -0.15890821371E+03  0.15890821371E+03  0.00000000000E+00 0.  1.
          6    1    1    2  501    0 -0.39373978355E+01 -0.10945180539E+03  0.71034482604E+02  0.21672586030E+03  0.17300000000E+03 0.  1.
         -6    1    1    2    0  502  0.39373978355E+01  0.10945180539E+03  0.35721610788E+02  0.20784666050E+03  0.17300000000E+03 0.  1.
<mgrwt>
<rscale>  2 0.20475400E+03</rscale>
<asrwt>0</asrwt>
<pdfrwt beam="1">  1       21 0.40871432E-01 0.20475400E+03</pdfrwt>
<pdfrwt beam="2">  1       21 0.24447418E-01 0.20475400E+03</pdfrwt>
<totfact> 0.90690409E+04</totfact>
</mgrwt>
</event>
<event>
 4    2  0.3944631E+000  0.1900433E+03  0.7546771E-02  0.1158422E+00
         21   -1    0    0  503  502  0.00000000000E+00  0.00000000000E+00  0.18078322512E+04  0.18078322512E+04  0.00000000000E+00 0.  1.
         21   -1    0    0  501  503 -0.00000000000E+00 -0.00000000000E+00 -0.20316042789E+02  0.20316042789E+02  0.00000000000E+00 0.  1.
          6    1    1    2  501    0  0.72315897888E+02  0.30949149778E+02  0.77580706437E+03  0.79874466514E+03  0.17300000000E+03 0. -1.
         -6    1    1    2    0  502 -0.72315897888E+02 -0.30949149778E+02  0.10117091441E+04  0.10294036289E+04  0.17300000000E+03 0. -1.
<mgrwt>
<rscale>  2 0.19004326E+03</rscale>
<asrwt>0</asrwt>
<pdfrwt beam="1">  1       21 0.27812791E+00 0.19004326E+03</pdfrwt>
<pdfrwt beam="2">  1       21 0.31255465E-02 0.19004326E+03</pdfrwt>
<totfact> 0.27035577E+04</totfact>
</mgrwt>
</event>
<event>
 4    2  0.3944631E+000  0.2215745E+03  0.7546771E-02  0.1132715E+00
         21   -1    0    0  503  502  0.00000000000E+00  0.00000000000E+00  0.62495059471E+03  0.62495059471E+03  0.00000000000E+00 0.  1.
         21   -1    0    0  501  503 -0.00000000000E+00 -0.00000000000E+00 -0.11812108315E+03  0.11812108315E+03  0.00000000000E+00 0.  1.
          6    1    1    2  501    0 -0.13831603471E+03 -0.59092275079E+01  0.38394800056E+02  0.22487642184E+03  0.17300000000E+03 0.  1.
         -6    1    1    2    0  502  0.13831603471E+03  0.59092275079E+01  0.46843471150E+03  0.51819525602E+03  0.17300000000E+03 0.  1.
<mgrwt>
<rscale>  2 0.22157447E+03</rscale>
<asrwt>0</asrwt>
<pdfrwt beam="1">  1       21 0.96146243E-01 0.22157447E+03</pdfrwt>
<pdfrwt beam="2">  1       21 0.18172475E-01 0.22157447E+03</pdfrwt>
<totfact> 0.24435061E+04</totfact>
</mgrwt>
</event>
<event>
 4    2  0.3944631E+000  0.1990327E+03  0.7546771E-02  0.1150558E+00
         21   -1    0    0  503  502  0.00000000000E+00  0.00000000000E+00  0.10944687011E+04  0.10944687011E+04  0.00000000000E+00 0. -1.
         21   -1    0    0  501  503 -0.00000000000E+00 -0.00000000000E+00 -0.16276767955E+03  0.16276767955E+03  0.00000000000E+00 0. -1.
          6    1    1    2  501    0 -0.52274139438E+02 -0.83381328969E+02 -0.88485710788E+02  0.21781586877E+03  0.17300000000E+03 0. -1.
         -6    1    1    2    0  502  0.52274139438E+02  0.83381328969E+02  0.10201867323E+04  0.10394205118E+04  0.17300000000E+03 0. -1.
<mgrwt>
<rscale>  2 0.19903274E+03</rscale>
<asrwt>0</asrwt>
<pdfrwt beam="1">  1       21 0.16837980E+00 0.19903274E+03</pdfrwt>
<pdfrwt beam="2">  1       21 0.25041182E-01 0.19903274E+03</pdfrwt>
<totfact> 0.32884151E+03</totfact>
</mgrwt>
</event>
<event>
 4    2  0.3944631E+000  0.1826951E+03  0.7546771E-02  0.1165220E+00
         21   -1    0    0  501  502  0.00000000000E+00  0.00000000000E+00  0.73115533332E+03  0.73115533332E+03  0.00000000000E+00 0.  1.
         21   -1    0    0  502  503 -0.00000000000E+00 -0.00000000000E+00 -0.78932174791E+02  0.78932174791E+02  0.00000000000E+00 0.  1.
          6    1    1    2  501    0  0.10173142782E+02 -0.57835985280E+02  0.58912535472E+03  0.61680319195E+03  0.17300000000E+03 0.  1.
         -6    1    1    2    0  503 -0.10173142782E+02  0.57835985280E+02  0.63097803808E+02  0.19328431616E+03  0.17300000000E+03 0.  1.
<mgrwt>
<rscale>  2 0.18269508E+03</rscale>
<asrwt>0</asrwt>
<pdfrwt beam="1">  1       21 0.11248543E+00 0.18269508E+03</pdfrwt>
<pdfrwt beam="2">  1       21 0.12143412E-01 0.18269508E+03</pdfrwt>
<totfact> 0.35736759E+04</totfact>
</mgrwt>
</event>
<event>
 4    2  0.3944631E+000  0.1842293E+03  0.7546771E-02  0.1163772E+00
         21   -1    0    0  503  502  0.00000000000E+00  0.00000000000E+00  0.20650960006E+03  0.20650960006E+03  0.00000000000E+00 0.  1.
         21   -1    0    0  501  503 -0.00000000000E+00 -0.00000000000E+00 -0.17613973864E+03  0.17613973864E+03  0.00000000000E+00 0.  1.
          6    1    1    2  501    0 -0.56186910289E+02 -0.29231371457E+02  0.64677708629E+02  0.19525277964E+03  0.17300000000E+03 0.  1.
         -6    1    1    2    0  502  0.56186910289E+02  0.29231371457E+02 -0.34307847218E+02  0.18739655906E+03  0.17300000000E+03 0.  1.
<mgrwt>
<rscale>  2 0.18422932E+03</rscale>
<asrwt>0</asrwt>
<pdfrwt beam="1">  1       21 0.31770707E-01 0.18422932E+03</pdfrwt>
<pdfrwt beam="2">  1       21 0.27098422E-01 0.18422932E+03</pdfrwt>
<totfact> 0.12398570E+05</totfact>
</mgrwt>
</event>
<event>
 4    2  0.3944631E+000  0.2033980E+03  0.7546771E-02  0.1146903E+00
         21   -1    0    0  503  502  0.00000000000E+00  0.00000000000E+00  0.42279653621E+03  0.42279653621E+03  0.00000000000E+00 0. -1.
         21   -1    0    0  501  503 -0.00000000000E+00 -0.00000000000E+00 -0.11377406924E+03  0.11377406924E+03  0.00000000000E+00 0.  1.
          6    1    1    2  501    0  0.10692354162E+03  0.30139034492E+01  0.54142260290E+02  0.21048066827E+03  0.17300000000E+03 0.  1.
         -6    1    1    2    0  502 -0.10692354162E+03 -0.30139034492E+01  0.25488020669E+03  0.32608993718E+03  0.17300000000E+03 0. -1.
<mgrwt>
<rscale>  2 0.20339795E+03</rscale>
<asrwt>0</asrwt>
<pdfrwt beam="1">  1       21 0.65045620E-01 0.20339795E+03</pdfrwt>
<pdfrwt beam="2">  1       21 0.17503703E-01 0.20339795E+03</pdfrwt>
<totfact> 0.64015133E+04</totfact>
</mgrwt>
</event>
<event>
 4    2  0.3944631E+000  0.1796123E+03  0.7546771E-02  0.1168179E+00
         21   -1    0    0  501  502  0.00000000000E+00  0.00000000000E+00  0.30561642613E+03  0.30561642613E+03  0.00000000000E+00 0.  1.
         21   -1    0    0  502  503 -0.00000000000E+00 -0.00000000000E+00 -0.10866547371E+03  0.10866547371E+03  0.00000000000E+00 0. -1.
          6    1    1    2  501    0 -0.41069322933E+02  0.25394562020E+02  0.13349836917E+03  0.22379094628E+03  0.17300000000E+03 0.  1.
         -6    1    1    2    0  503  0.41069322933E+02 -0.25394562020E+02  0.63452583250E+02  0.19049095356E+03  0.17300000000E+03 0. -1.
<mgrwt>
<rscale>  2 0.17961229E+03</rscale>
<asrwt>0</asrwt>
<pdfrwt beam="1">  1       21 0.47017912E-01 0.17961229E+03</pdfrwt>
<pdfrwt beam="2">  1       21 0.16717765E-01 0.17961229E+03</pdfrwt>
<totfact> 0.13988791E+05</totfact>
</mgrwt>
</event>
<event>
 4    2  0.3944631E+000  0.1779632E+03  0.7546771E-02  0.1169789E+00
         21   -1    0    0  503  502  0.00000000000E+00  0.00000000000E+00  0.40690796754E+02  0.40690796754E+02  0.00000000000E+00 0. -1.
         21   -1    0    0  501  503 -0.00000000000E+00 -0.00000000000E+00 -0.17925931020E+04  0.17925931020E+04  0.00000000000E+00 0. -1.
          6    1    1    2  501    0  0.25544330007E+02 -0.33005658180E+02 -0.15654508570E+04  0.15755339641E+04  0.17300000000E+03 0. -1.
         -6    1    1    2    0  502 -0.25544330007E+02  0.33005658180E+02 -0.18645144819E+03  0.25774993463E+03  0.17300000000E+03 0. -1.
<mgrwt>
<rscale>  2 0.17796316E+03</rscale>
<asrwt>0</asrwt>
<pdfrwt beam="1">  1       21 0.62601223E-02 0.17796316E+03</pdfrwt>
<pdfrwt beam="2">  1       21 0.27578357E+00 0.17796316E+03</pdfrwt>
<totfact> 0.87658983E+03</totfact>
</mgrwt>
</event>
<event>
 4    2  0.3944631E+000  0.3787436E+03  0.7546771E-02  0.1051399E+00
         21   -1    0    0  503  502  0.00000000000E+00  0.00000000000E+00  0.66775702920E+03  0.66775702920E+03  0.00000000000E+00 0.  1.
         21   -1    0    0  501  503 -0.00000000000E+00 -0.00000000000E+00 -0.55710547601E+03  0.55710547601E+03  0.00000000000E+00 0. -1.
          6    1    1    2  501    0 -0.27001414334E+03 -0.20151936756E+03 -0.42472115181E+03  0.56906480290E+03  0.17300000000E+03 0. -1.
         -6    1    1    2    0  502  0.27001414334E+03  0.20151936756E+03  0.53537270500E+03  0.65579770232E+03  0.17300000000E+03 0.  1.
<mgrwt>
<rscale>  2 0.37874357E+03</rscale>
<asrwt>0</asrwt>
<pdfrwt beam="1">  1       21 0.10273185E+00 0.37874357E+03</pdfrwt>
<pdfrwt beam="2">  1       21 0.85708535E-01 0.37874357E+03</pdfrwt>
<totfact> 0.79087568E+02</totfact>
</mgrwt>
</event>
<event>
 4    2  0.3944631E+000  0.3709510E+03  0.7546771E-02  0.1054330E+00
         21   -1    0    0  503  502  0.00000000000E+00  0.00000000000E+00  0.11021475537E+04  0.11021475537E+04  0.00000000000E+00 0. -1.
         21   -1    0    0  501  503 -0.00000000000E+00 -0.00000000000E+00 -0.19939695800E+03  0.19939695800E+03  0.00000000000E+00 0.  1.
          6    1    1    2  501    0 -0.16798894583E+03  0.28187822407E+03  0.84928155799E+03  0.92675983074E+03  0.17300000000E+03 0. -1.
         -6    1    1    2    0  502  0.16798894583E+03 -0.28187822407E+03  0.53469037749E+02  0.37478468101E+03  0.17300000000E+03 0.  1.
<mgrwt>
<rscale>  2 0.37095097E+03</rscale>
<asrwt>0</asrwt>
<pdfrwt beam="1">  1       21 0.16956116E+00 0.37095097E+03</pdfrwt>
<pdfrwt beam="2">  1       21 0.30676456E-01 0.37095097E+03</pdfrwt>
<totfact> 0.19347922E+03</totfact>
</mgrwt>
</event>
<event>
 4    2  0.3944631E+000  0.3119213E+03  0.7546771E-02  0.1079429E+00
         21   -1    0    0  501  502  0.00000000000E+00  0.00000000000E+00  0.19735875642E+03  0.19735875642E+03  0.00000000000E+00 0. -1.
         21   -1    0    0  502  503 -0.00000000000E+00 -0.00000000000E+00 -0.61225531224E+03  0.61225531224E+03  0.00000000000E+00 0.  1.
          6    1    1    2  501    0 -0.93429085846E+02  0.24215059931E+03 -0.28779796973E+02  0.31324620276E+03  0.17300000000E+03 0.  1.
         -6    1    1    2    0  503  0.93429085846E+02 -0.24215059931E+03 -0.38611675885E+03  0.49636786589E+03  0.17300000000E+03 0. -1.
<mgrwt>
<rscale>  2 0.31192132E+03</rscale>
<asrwt>0</asrwt>
<pdfrwt beam="1">  1       21 0.30362886E-01 0.31192132E+03</pdfrwt>
<pdfrwt beam="2">  1       21 0.94193125E-01 0.31192132E+03</pdfrwt>
<totfact> 0.91924522E+03</totfact>
</mgrwt>
</event>
<event>
 4    2  0.3944631E+000  0.1923516E+03  0.7546771E-02  0.1156357E+00
         21   -1    0    0  501  502  0.00000000000E+00  0.00000000000E+00  0.77599172809E+03  0.77599172809E+03  0.00000000000E+00 0. -1.
         21   -1    0    0  502  503 -0.00000000000E+00 -0.00000000000E+00 -0.78552741361E+02  0.78552741361E+02  0.00000000000E+00 0. -1.
          6    1    1    2  501    0  0.57088938294E+02  0.61733349200E+02  0.61658253490E+03  0.64588944535E+03  0.17300000000E+03 0. -1.
         -6    1    1    2    0  503 -0.57088938294E+02 -0.61733349200E+02  0.80856451833E+02  0.20865502410E+03  0.17300000000E+03 0. -1.
<mgrwt>
<rscale>  2 0.19235164E+03</rscale>
<asrwt>0</asrwt>
<pdfrwt beam="1">  1       21 0.11938334E+00 0.19235164E+03</pdfrwt>
<pdfrwt beam="2">  1       21 0.12085038E-01 0.19235164E+03</pdfrwt>
<totfact> 0.31001003E+04</totfact>
</mgrwt>
</event>
<event>
 4    2  0.3944631E+000  0.1770847E+03  0.7546771E-02  0.1170655E+00
         21   -1    0    0  503  502  0.00000000000E+00  0.00000000000E+00  0.27212886326E+03  0.27212886326E+03  0.00000000000E+00 0.  1.
         21   -1    0    0  501  503 -0.00000000000E+00 -0.00000000000E+00 -0.14484811087E+03  0.14484811087E+03  0.00000000000E+00 0. -1.
          6    1    1    2  501    0 -0.34688448413E+01  0.37655583039E+02 -0.30627151749E+02  0.17971365625E+03  0.17300000000E+03 0. -1.
         -6    1    1    2    0  502  0.34688448413E+01 -0.37655583039E+02  0.15790790415E+03  0.23726331788E+03  0.17300000000E+03 0.  1.
<mgrwt>
<rscale>  2 0.17708466E+03</rscale>
<asrwt>0</asrwt>
<pdfrwt beam="1">  1       21 0.41865979E-01 0.17708466E+03</pdfrwt>
<pdfrwt beam="2">  1       21 0.22284325E-01 0.17708466E+03</pdfrwt>
<totfact> 0.10407558E+05</totfact>
</mgrwt>
</event>
<event>
 4    2  0.3944631E+000  0.1746143E+03  0.7546771E-02  0.1173120E+00
         21   -1    0    0  501  502  0.00000000000E+00  0.00000000000E+00  0.95774222264E+03  0.95774222264E+03  0.00000000000E+00 0. -1.
         21   -1    0    0  502  503 -0.00000000000E+00 -0.00000000000E+00 -0.37833672906E+03  0.37833672906E+03  0.00000000000E+00 0. -1.
          6    1    1    2  501    0  0.21777071668E+02  0.93227324832E+01  0.92901833754E+03  0.94528579048E+03  0.17300000000E+03 0. -1.
         -6    1    1    2    0  503 -0.21777071668E+02 -0.93227324832E+01 -0.34961284396E+03  0.39079316122E+03  0.17300000000E+03 0. -1.
<mgrwt>
<rscale>  2 0.17461430E+03</rscale>
<asrwt>0</asrwt>
<pdfrwt beam="1">  1       21 0.14734496E+00 0.17461430E+03</pdfrwt>
<pdfrwt beam="2">  1       21 0.58205651E-01 0.17461430E+03</pdfrwt>
<totfact> 0.88373589E+02</totfact>
</mgrwt>
</event>
<event>
 4    2  0.3944631E+000  0.3632844E+03  0.7546771E-02  0.1057291E+00
         21   -1    0    0  501  502  0.00000000000E+00  0.00000000000E+00  0.20682718019E+03  0.20682718019E+03  0.00000000000E+00 0.  1.
         21   -1    0    0  502  503 -0.00000000000E+00 -0.00000000000E+00 -0.69022744134E+03  0.69022744134E+03  0.00000000000E+00 0. -1.
          6    1    1    2  501    0 -0.31903589889E+03 -0.16207520019E+02 -0.11843427153E+03  0.38210242758E+03  0.17300000000E+03 0. -1.
         -6    1    1    2    0  503  0.31903589889E+03  0.16207520019E+02 -0.36496598962E+03  0.51495219396E+03  0.17300000000E+03 0.  1.
<mgrwt>
<rscale>  2 0.36328445E+03</rscale>
<asrwt>0</asrwt>
<pdfrwt beam="1">  1       21 0.31819566E-01 0.36328445E+03</pdfrwt>
<pdfrwt beam="2">  1       21 0.10618884E+00 0.36328445E+03</pdfrwt>
<totfact> 0.61376481E+03</totfact>
</mgrwt>
</event>
<event>
 4    2  0.3944631E+000  0.1873457E+03  0.7546771E-02  0.1160877E+00
         21   -1    0    0  501  502  0.00000000000E+00  0.00000000000E+00  0.45762928124E+03  0.45762928124E+03  0.00000000000E+00 0. -1.
         21   -1    0    0  502  503 -0.00000000000E+00 -0.00000000000E+00 -0.19583178098E+03  0.19583178098E+03  0.00000000000E+00 0. -1.
          6    1    1    2  501    0  0.46597083583E+02  0.54755149856E+02  0.38573952928E+03  0.42882793645E+03  0.17300000000E+03 0. -1.
         -6    1    1    2    0  503 -0.46597083583E+02 -0.54755149856E+02 -0.12394202902E+03  0.22463312577E+03  0.17300000000E+03 0. -1.
<mgrwt>
<rscale>  2 0.18734571E+03</rscale>
<asrwt>0</asrwt>
<pdfrwt beam="1">  1       21 0.70404505E-01 0.18734571E+03</pdfrwt>
<pdfrwt beam="2">  1       21 0.30127966E-01 0.18734571E+03</pdfrwt>
<totfact> 0.19396234E+04</totfact>
</mgrwt>
</event>
<event>
 4    2  0.3944631E+000  0.1815658E+03  0.7546771E-02  0.1166296E+00
         21   -1    0    0  503  502  0.00000000000E+00  0.00000000000E+00  0.10487141253E+03  0.10487141253E+03  0.00000000000E+00 0. -1.
         21   -1    0    0  501  503 -0.00000000000E+00 -0.00000000000E+00 -0.33366444517E+03  0.33366444517E+03  0.00000000000E+00 0. -1.
          6    1    1    2  501    0  0.17070629866E+02  0.52399713162E+02 -0.16715373232E+03  0.24679243621E+03  0.17300000000E+03 0. -1.
         -6    1    1    2    0  502 -0.17070629866E+02 -0.52399713162E+02 -0.61639300322E+02  0.19174342150E+03  0.17300000000E+03 0. -1.
<mgrwt>
<rscale>  2 0.18156579E+03</rscale>
<asrwt>0</asrwt>
<pdfrwt beam="1">  1       21 0.16134064E-01 0.18156579E+03</pdfrwt>
<pdfrwt beam="2">  1       21 0.51332991E-01 0.18156579E+03</pdfrwt>
<totfact> 0.12433091E+05</totfact>
</mgrwt>
</event>
<event>
 4    2  0.3944631E+000  0.3165749E+03  0.7546771E-02  0.1077237E+00
         21   -1    0    0  503  502  0.00000000000E+00  0.00000000000E+00  0.15827024667E+04  0.15827024667E+04  0.00000000000E+00 0. -1.
         21   -1    0    0  501  503 -0.00000000000E+00 -0.00000000000E+00 -0.63558078422E+02  0.63558078422E+02  0.00000000000E+00 0.  1.
          6    1    1    2  501    0  0.12585962996E+03  0.23334521477E+03  0.70938920585E+03  0.77682216825E+03  0.17300000000E+03 0. -1.
         -6    1    1    2    0  502 -0.12585962996E+03 -0.23334521477E+03  0.80975518245E+03  0.86943837689E+03  0.17300000000E+03 0. -1.
<mgrwt>
<rscale>  2 0.31657485E+03</rscale>
<asrwt>0</asrwt>
<pdfrwt beam="1">  1       21 0.24349266E+00 0.31657485E+03</pdfrwt>
<pdfrwt beam="2">  1       21 0.97781671E-02 0.31657485E+03</pdfrwt>
<totfact> 0.55649307E+03</totfact>
</mgrwt>
</event>
<event>
 4    2  0.3944631E+000  0.2569597E+03  0.7546771E-02  0.1108984E+00
         21   -1    0    0  503  502  0.00000000000E+00  0.00000000000E+00  0.66541751252E+03  0.66541751252E+03  0.00000000000E+00 0. -1.
         21   -1    0    0  501  503 -0.00000000000E+00 -0.00000000000E+00 -0.10985321968E+03  0.10985321968E+03  0.00000000000E+00 0. -1.
          6    1    1    2  501    0  0.13541339715E+03 -0.13327595437E+03  0.15722881274E+03  0.30124602519E+03  0.17300000000E+03 0. -1.
         -6    1    1    2    0  502 -0.13541339715E+03  0.13327595437E+03  0.39833548010E+03  0.47402470700E+03  0.17300000000E+03 0. -1.
<mgrwt>
<rscale>  2 0.25695966E+03</rscale>
<asrwt>0</asrwt>
<pdfrwt beam="1">  1       21 0.10237192E+00 0.25695966E+03</pdfrwt>
<pdfrwt beam="2">  1       21 0.16900496E-01 0.25695966E+03</pdfrwt>
<totfact> 0.23647537E+04</totfact>
</mgrwt>
</event>
<event>
 4    2  0.3944631E+000  0.1841596E+03  0.7546771E-02  0.1163837E+00
         21   -1    0    0  503  502  0.00000000000E+00  0.00000000000E+00  0.63647596780E+03  0.63647596780E+03  0.00000000000E+00 0. -1.
         21   -1    0    0  501  503 -0.00000000000E+00 -0.00000000000E+00 -0.83792840383E+02  0.83792840383E+02  0.00000000000E+00 0. -1.
          6    1    1    2  501    0 -0.46465680695E+00  0.63131226303E+02  0.59038795236E+02  0.19339169316E+03  0.17300000000E+03 0. -1.
         -6    1    1    2    0  502  0.46465680695E+00 -0.63131226303E+02  0.49364433218E+03  0.52687711503E+03  0.17300000000E+03 0. -1.
<mgrwt>
<rscale>  2 0.18415963E+03</rscale>
<asrwt>0</asrwt>
<pdfrwt beam="1">  1       21 0.97919376E-01 0.18415963E+03</pdfrwt>
<pdfrwt beam="2">  1       21 0.12891207E-01 0.18415963E+03</pdfrwt>
<totfact> 0.44717004E+04</totfact>
</mgrwt>
</event>
<event>
 4    2  0.3944631E+000  0.1843569E+03  0.7546771E-02  0.1163652E+00
         21   -1    0    0  501  502  0.00000000000E+00  0.00000000000E+00  0.33318307016E+03  0.33318307016E+03  0.00000000000E+00 0. -1.
         21   -1    0    0  502  503 -0.00000000000E+00 -0.00000000000E+00 -0.11314403130E+03  0.11314403130E+03  0.00000000000E+00 0. -1.
          6    1    1    2  501    0 -0.30019888528E+02 -0.56189726474E+02  0.18003022268E+03  0.25767879258E+03  0.17300000000E+03 0. -1.
         -6    1    1    2    0  503  0.30019888528E+02  0.56189726474E+02  0.40008816174E+02  0.18864830887E+03  0.17300000000E+03 0. -1.
<mgrwt>
<rscale>  2 0.18435693E+03</rscale>
<asrwt>0</asrwt>
<pdfrwt beam="1">  1       21 0.51258933E-01 0.18435693E+03</pdfrwt>
<pdfrwt beam="2">  1       21 0.17406774E-01 0.18435693E+03</pdfrwt>
<totfact> 0.10837669E+05</totfact>
</mgrwt>
</event>
<event>
 4    2  0.3944631E+000  0.3062491E+03  0.7546771E-02  0.1082158E+00
         21   -1    0    0  503  502  0.00000000000E+00  0.00000000000E+00  0.25016228501E+03  0.25016228501E+03  0.00000000000E+00 0. -1.
         21   -1    0    0  501  503 -0.00000000000E+00 -0.00000000000E+00 -0.49461263787E+03  0.49461263787E+03  0.00000000000E+00 0. -1.
          6    1    1    2  501    0  0.12128994556E+03  0.22169413537E+03 -0.30541986076E+03  0.43251570133E+03  0.17300000000E+03 0. -1.
         -6    1    1    2    0  502 -0.12128994556E+03 -0.22169413537E+03  0.60969507900E+02  0.31225922155E+03  0.17300000000E+03 0. -1.
<mgrwt>
<rscale>  2 0.30624915E+03</rscale>
<asrwt>0</asrwt>
<pdfrwt beam="1">  1       21 0.38486506E-01 0.30624915E+03</pdfrwt>
<pdfrwt beam="2">  1       21 0.76094252E-01 0.30624915E+03</pdfrwt>
<totfact> 0.93983430E+03</totfact>
</mgrwt>
</event>
<event>
 4    2  0.3944631E+000  0.1864686E+03  0.7546771E-02  0.1161686E+00
         21   -1    0    0  503  502  0.00000000000E+00  0.00000000000E+00  0.32870361985E+03  0.32870361985E+03  0.00000000000E+00 0.  1.
         21   -1    0    0  501  503 -0.00000000000E+00 -0.00000000000E+00 -0.10652143182E+03  0.10652143182E+03  0.00000000000E+00 0. -1.
          6    1    1    2  501    0  0.63659113326E+02 -0.28090114051E+02  0.92945892071E+02  0.20834940861E+03  0.17300000000E+03 0.  1.
         -6    1    1    2    0  502 -0.63659113326E+02  0.28090114051E+02  0.12923629596E+03  0.22687564305E+03  0.17300000000E+03 0.  1.
<mgrwt>
<rscale>  2 0.18646860E+03</rscale>
<asrwt>0</asrwt>
<pdfrwt beam="1">  1       21 0.50569787E-01 0.18646860E+03</pdfrwt>
<pdfrwt beam="2">  1       21 0.16387913E-01 0.18646860E+03</pdfrwt>
<totfact> 0.12445395E+05</totfact>
</mgrwt>
</event>
<event>
 4    2  0.3944631E+000  0.4143771E+03  0.7546771E-02  0.1038912E+00
         21   -1    0    0  503  502  0.00000000000E+00  0.00000000000E+00  0.55463713617E+03  0.55463713617E+03  0.00000000000E+00 0.  1.
         21   -1    0    0  501  503 -0.00000000000E+00 -0.00000000000E+00 -0.45585466667E+03  0.45585466667E+03  0.00000000000E+00 0. -1.
          6    1    1    2  501    0 -0.32200001067E+03 -0.19518045983E+03 -0.23680494944E+03  0.47726827136E+03  0.17300000000E+03 0. -1.
         -6    1    1    2    0  502  0.32200001067E+03  0.19518045983E+03  0.33558741894E+03  0.53322353148E+03  0.17300000000E+03 0.  1.
<mgrwt>
<rscale>  2 0.41437715E+03</rscale>
<asrwt>0</asrwt>
<pdfrwt beam="1">  1       21 0.85328789E-01 0.41437715E+03</pdfrwt>
<pdfrwt beam="2">  1       21 0.70131488E-01 0.41437715E+03</pdfrwt>
<totfact> 0.19164757E+03</totfact>
</mgrwt>
</event>
<event>
 4    2  0.3944631E+000  0.2150138E+03  0.7546771E-02  0.1137656E+00
         21   -1    0    0  503  502  0.00000000000E+00  0.00000000000E+00  0.45581690830E+02  0.45581690830E+02  0.00000000000E+00 0. -1.
         21   -1    0    0  501  503 -0.00000000000E+00 -0.00000000000E+00 -0.10274863388E+04  0.10274863388E+04  0.00000000000E+00 0. -1.
          6    1    1    2  501    0 -0.34423128488E+02  0.12295110451E+03 -0.55186428388E+03  0.59227114880E+03  0.17300000000E+03 0. -1.
         -6    1    1    2    0  502  0.34423128488E+02 -0.12295110451E+03 -0.43004036412E+03  0.48079688087E+03  0.17300000000E+03 0. -1.
<mgrwt>
<rscale>  2 0.21501378E+03</rscale>
<asrwt>0</asrwt>
<pdfrwt beam="1">  1       21 0.70125683E-02 0.21501378E+03</pdfrwt>
<pdfrwt beam="2">  1       21 0.15807481E+00 0.21501378E+03</pdfrwt>
<totfact> 0.38692237E+04</totfact>
</mgrwt>
</event>
<event>
 4    2  0.3944631E+000  0.1789082E+03  0.7546771E-02  0.1168864E+00
         21   -1    0    0  501  502  0.00000000000E+00  0.00000000000E+00  0.51311972694E+02  0.51311972694E+02  0.00000000000E+00 0.  1.
         21   -1    0    0  502  503 -0.00000000000E+00 -0.00000000000E+00 -0.75075347207E+03  0.75075347207E+03  0.00000000000E+00 0.  1.
          6    1    1    2  501    0  0.36329874728E+02  0.27555175999E+02 -0.18480500174E+03  0.25721787689E+03  0.17300000000E+03 0.  1.
         -6    1    1    2    0  503 -0.36329874728E+02 -0.27555175999E+02 -0.51463649764E+03  0.54484756788E+03  0.17300000000E+03 0.  1.
<mgrwt>
<rscale>  2 0.17890821E+03</rscale>
<asrwt>0</asrwt>
<pdfrwt beam="1">  1       21 0.78941496E-02 0.17890821E+03</pdfrwt>
<pdfrwt beam="2">  1       21 0.11550053E+00 0.17890821E+03</pdfrwt>
<totfact> 0.71705439E+04</totfact>
</mgrwt>
</event>
<event>
 4    2  0.3944631E+000  0.2007508E+03  0.7546771E-02  0.1149107E+00
         21   -1    0    0  501  502  0.00000000000E+00  0.00000000000E+00  0.84401051005E+03  0.84401051005E+03  0.00000000000E+00 0. -1.
         21   -1    0    0  502  503 -0.00000000000E+00 -0.00000000000E+00 -0.56318065442E+02  0.56318065442E+02  0.00000000000E+00 0. -1.
          6    1    1    2  501    0  0.87539262784E+02 -0.52045848452E+02  0.56943908042E+03  0.60378949906E+03  0.17300000000E+03 0. -1.
         -6    1    1    2    0  503 -0.87539262784E+02  0.52045848452E+02  0.21825336419E+03  0.29653907643E+03  0.17300000000E+03 0. -1.
<mgrwt>
<rscale>  2 0.20075082E+03</rscale>
<asrwt>0</asrwt>
<pdfrwt beam="1">  1       21 0.12984776E+00 0.20075082E+03</pdfrwt>
<pdfrwt beam="2">  1       21 0.86643184E-02 0.20075082E+03</pdfrwt>
<totfact> 0.45061185E+04</totfact>
</mgrwt>
</event>
<event>
 4    2  0.3944631E+000  0.1877309E+03  0.7546771E-02  0.1160524E+00
         21   -1    0    0  503  502  0.00000000000E+00  0.00000000000E+00  0.10826150672E+03  0.10826150672E+03  0.00000000000E+00 0. -1.
         21   -1    0    0  501  503 -0.00000000000E+00 -0.00000000000E+00 -0.36399253272E+03  0.36399253272E+03  0.00000000000E+00 0. -1.
          6    1    1    2  501    0  0.61282791860E+02 -0.39475490991E+02 -0.20461772848E+03  0.27768923237E+03  0.17300000000E+03 0. -1.
         -6    1    1    2    0  502 -0.61282791860E+02  0.39475490991E+02 -0.51113297513E+02  0.19456480707E+03  0.17300000000E+03 0. -1.
<mgrwt>
<rscale>  2 0.18773091E+03</rscale>
<asrwt>0</asrwt>
<pdfrwt beam="1">  1       21 0.16655616E-01 0.18773091E+03</pdfrwt>
<pdfrwt beam="2">  1       21 0.55998852E-01 0.18773091E+03</pdfrwt>
<totfact> 0.97443627E+04</totfact>
</mgrwt>
</event>
<event>
 4    2  0.3944631E+000  0.1820531E+03  0.7546771E-02  0.1165831E+00
         21   -1    0    0  501  502  0.00000000000E+00  0.00000000000E+00  0.37768409203E+02  0.37768409203E+02  0.00000000000E+00 0.  1.
         21   -1    0    0  502  503 -0.00000000000E+00 -0.00000000000E+00 -0.10401360941E+04  0.10401360941E+04  0.00000000000E+00 0.  1.
          6    1    1    2  501    0  0.15652575767E+02 -0.54491546838E+02 -0.28809594875E+03  0.34079701802E+03  0.17300000000E+03 0.  1.
         -6    1    1    2    0  503 -0.15652575767E+02  0.54491546838E+02 -0.71427173619E+03  0.73710748533E+03  0.17300000000E+03 0.  1.
<mgrwt>
<rscale>  2 0.18205310E+03</rscale>
<asrwt>0</asrwt>
<pdfrwt beam="1">  1       21 0.58105240E-02 0.18205310E+03</pdfrwt>
<pdfrwt beam="2">  1       21 0.16002095E+00 0.18205310E+03</pdfrwt>
<totfact> 0.52727825E+04</totfact>
</mgrwt>
</event>
<event>
 4    2  0.3944631E+000  0.2290127E+03  0.7546771E-02  0.1127337E+00
         21   -1    0    0  503  502  0.00000000000E+00  0.00000000000E+00  0.19281600002E+04  0.19281600002E+04  0.00000000000E+00 0.  1.
         21   -1    0    0  501  503 -0.00000000000E+00 -0.00000000000E+00 -0.31195880132E+02  0.31195880132E+02  0.00000000000E+00 0.  1.
          6    1    1    2  501    0  0.17093165986E+02  0.14908272163E+03  0.59787870468E+03  0.64023884584E+03  0.17300000000E+03 0.  1.
         -6    1    1    2    0  502 -0.17093165986E+02 -0.14908272163E+03  0.12990854154E+04  0.13191170345E+04  0.17300000000E+03 0.  1.
<mgrwt>
<rscale>  2 0.22901274E+03</rscale>
<asrwt>0</asrwt>
<pdfrwt beam="1">  1       21 0.29663991E+00 0.22901274E+03</pdfrwt>
<pdfrwt beam="2">  1       21 0.47993677E-02 0.22901274E+03</pdfrwt>
<totfact> 0.99227168E+03</totfact>
</mgrwt>
</event>
<event>
 4    2  0.3944631E+000  0.1763718E+03  0.7546771E-02  0.1171361E+00
         21   -1    0    0  501  502  0.00000000000E+00  0.00000000000E+00  0.11872833577E+03  0.11872833577E+03  0.00000000000E+00 0. -1.
         21   -1    0    0  502  503 -0.00000000000E+00 -0.00000000000E+00 -0.45311682196E+03  0.45311682196E+03  0.00000000000E+00 0. -1.
          6    1    1    2  501    0  0.28339147959E+02  0.19362321672E+02  0.18496847648E+02  0.17733905430E+03  0.17300000000E+03 0.  1.
         -6    1    1    2    0  503 -0.28339147959E+02 -0.19362321672E+02 -0.35288533384E+03  0.39450610343E+03  0.17300000000E+03 0.  1.
<mgrwt>
<rscale>  2 0.17637179E+03</rscale>
<asrwt>0</asrwt>
<pdfrwt beam="1">  1       21 0.18265898E-01 0.17637179E+03</pdfrwt>
<pdfrwt beam="2">  1       21 0.69710279E-01 0.17637179E+03</pdfrwt>
<totfact> 0.51493562E+04</totfact>
</mgrwt>
</event>
<event>
 4    2  0.3944631E+000  0.2114353E+03  0.7546771E-02  0.1140434E+00
         21   -1    0    0  503  502  0.00000000000E+00  0.00000000000E+00  0.15571951635E+04  0.15571951635E+04  0.00000000000E+00 0.  1.
         21   -1    0    0  501  503 -0.00000000000E+00 -0.00000000000E+00 -0.36944420736E+02  0.36944420736E+02  0.00000000000E+00 0.  1.
          6    1    1    2  501    0 -0.10942761024E+03 -0.52929000398E+02  0.38378954259E+03  0.43817724036E+03  0.17300000000E+03 0.  1.
         -6    1    1    2    0  502  0.10942761024E+03  0.52929000398E+02  0.11364612002E+04  0.11559623439E+04  0.17300000000E+03 0.  1.
<mgrwt>
<rscale>  2 0.21143529E+03</rscale>
<asrwt>0</asrwt>
<pdfrwt beam="1">  1       21 0.23956844E+00 0.21143529E+03</pdfrwt>
<pdfrwt beam="2">  1       21 0.56837582E-02 0.21143529E+03</pdfrwt>
<totfact> 0.16314621E+04</totfact>
</mgrwt>
</event>
<event>
 4    2  0.3944631E+000  0.1772800E+03  0.7546771E-02  0.1170462E+00
         21   -1    0    0  503  502  0.00000000000E+00  0.00000000000E+00  0.22555750659E+03  0.22555750659E+03  0.00000000000E+00 0. -1.
         21   -1    0    0  501  503 -0.00000000000E+00 -0.00000000000E+00 -0.31840228012E+03  0.31840228012E+03  0.00000000000E+00 0. -1.
          6    1    1    2  501    0  0.35265133903E+02 -0.15986767393E+02 -0.25038756074E+03  0.30679331311E+03  0.17300000000E+03 0. -1.
         -6    1    1    2    0  502 -0.35265133903E+02  0.15986767393E+02  0.15754278721E+03  0.23716647360E+03  0.17300000000E+03 0. -1.
<mgrwt>
<rscale>  2 0.17728002E+03</rscale>
<asrwt>0</asrwt>
<pdfrwt beam="1">  1       21 0.34701155E-01 0.17728002E+03</pdfrwt>
<pdfrwt beam="2">  1       21 0.48984966E-01 0.17728002E+03</pdfrwt>
<totfact> 0.32093243E+04</totfact>
</mgrwt>
</event>
<event>
 4    2  0.3944631E+000  0.1989532E+03  0.7546771E-02  0.1150625E+00
         21   -1    0    0  501  502  0.00000000000E+00  0.00000000000E+00  0.20426432706E+03  0.20426432706E+03  0.00000000000E+00 0.  1.
         21   -1    0    0  502  503 -0.00000000000E+00 -0.00000000000E+00 -0.23062217090E+03  0.23062217090E+03  0.00000000000E+00 0.  1.
          6    1    1    2  501    0 -0.32236222527E+02 -0.92812638704E+02  0.73730621595E+02  0.21217578681E+03  0.17300000000E+03 0.  1.
         -6    1    1    2    0  503  0.32236222527E+02  0.92812638704E+02 -0.10008846544E+03  0.22271071115E+03  0.17300000000E+03 0.  1.
<mgrwt>
<rscale>  2 0.19895316E+03</rscale>
<asrwt>0</asrwt>
<pdfrwt beam="1">  1       21 0.31425281E-01 0.19895316E+03</pdfrwt>
<pdfrwt beam="2">  1       21 0.35480334E-01 0.19895316E+03</pdfrwt>
<totfact> 0.74335049E+04</totfact>
</mgrwt>
</event>
<event>
 4    2  0.3944631E+000  0.2626924E+03  0.7546771E-02  0.1105536E+00
         21   -1    0    0  503  502  0.00000000000E+00  0.00000000000E+00  0.51760945831E+02  0.51760945831E+02  0.00000000000E+00 0. -1.
         21   -1    0    0  501  503 -0.00000000000E+00 -0.00000000000E+00 -0.20648192288E+04  0.20648192288E+04  0.00000000000E+00 0. -1.
          6    1    1    2  501    0  0.19120739954E+03  0.50179950906E+02 -0.37657557958E+03  0.45914754083E+03  0.17300000000E+03 0. -1.
         -6    1    1    2    0  502 -0.19120739954E+03 -0.50179950906E+02 -0.16364827034E+04  0.16574326338E+04  0.17300000000E+03 0. -1.
<mgrwt>
<rscale>  2 0.26269240E+03</rscale>
<asrwt>0</asrwt>
<pdfrwt beam="1">  1       21 0.79632225E-02 0.26269240E+03</pdfrwt>
<pdfrwt beam="2">  1       21 0.31766449E+00 0.26269240E+03</pdfrwt>
<totfact> 0.30289307E+03</totfact>
</mgrwt>
</event>
<event>
 4    2  0.3944631E+000  0.1881838E+03  0.7546771E-02  0.1160110E+00
         21   -1    0    0  503  502  0.00000000000E+00  0.00000000000E+00  0.78515878568E+02  0.78515878568E+02  0.00000000000E+00 0.  1.
         21   -1    0    0  501  503 -0.00000000000E+00 -0.00000000000E+00 -0.94579623511E+03  0.94579623511E+03  0.00000000000E+00 0.  1.
          6    1    1    2  501    0 -0.69124029422E+02  0.26570521431E+02 -0.80406744713E+03  0.82579512204E+03  0.17300000000E+03 0.  1.
         -6    1    1    2    0  502  0.69124029422E+02 -0.26570521431E+02 -0.63212909412E+02  0.19851699164E+03  0.17300000000E+03 0.  1.
<mgrwt>
<rscale>  2 0.18818375E+03</rscale>
<asrwt>0</asrwt>
<pdfrwt beam="1">  1       21 0.12079366E-01 0.18818375E+03</pdfrwt>
<pdfrwt beam="2">  1       21 0.14550712E+00 0.18818375E+03</pdfrwt>
<totfact> 0.18829370E+04</totfact>
</mgrwt>
</event>
<event>
 4    2  0.3944631E+000  0.1852781E+03  0.7546771E-02  0.1162790E+00
         21   -1    0    0  503  502  0.00000000000E+00  0.00000000000E+00  0.58584045912E+03  0.58584045912E+03  0.00000000000E+00 0.  1.
         21   -1    0    0  501  503 -0.00000000000E+00 -0.00000000000E+00 -0.80640863994E+02  0.80640863994E+02  0.00000000000E+00 0.  1.
          6    1    1    2  501    0  0.66309186258E+02  0.14360236746E+01  0.78365737110E+02  0.20116947855E+03  0.17300000000E+03 0.  1.
         -6    1    1    2    0  502 -0.66309186258E+02 -0.14360236746E+01  0.42683385802E+03  0.46531184457E+03  0.17300000000E+03 0.  1.
<mgrwt>
<rscale>  2 0.18527809E+03</rscale>
<asrwt>0</asrwt>
<pdfrwt beam="1">  1       21 0.90129299E-01 0.18527809E+03</pdfrwt>
<pdfrwt beam="2">  1       21 0.12406287E-01 0.18527809E+03</pdfrwt>
<totfact> 0.58088709E+04</totfact>
</mgrwt>
</event>
<event>
 4    2  0.3944631E+000  0.1927910E+03  0.7546771E-02  0.1155968E+00
         21   -1    0    0  501  502  0.00000000000E+00  0.00000000000E+00  0.10072108919E+04  0.10072108919E+04  0.00000000000E+00 0.  1.
         21   -1    0    0  502  503 -0.00000000000E+00 -0.00000000000E+00 -0.37028346447E+02  0.37028346447E+02  0.00000000000E+00 0.  1.
          6    1    1    2  501    0  0.48805622907E+02 -0.69695038103E+02  0.45462722961E+03  0.49381606400E+03  0.17300000000E+03 0.  1.
         -6    1    1    2    0  503 -0.48805622907E+02  0.69695038103E+02  0.51555531588E+03  0.55042317438E+03  0.17300000000E+03 0.  1.
<mgrwt>
<rscale>  2 0.19279105E+03</rscale>
<asrwt>0</asrwt>
<pdfrwt beam="1">  1       21 0.15495550E+00 0.19279105E+03</pdfrwt>
<pdfrwt beam="2">  1       21 0.56966694E-02 0.19279105E+03</pdfrwt>
<totfact> 0.59095877E+04</totfact>
</mgrwt>
</event>
<event>
 4    2  0.3944631E+000  0.1858997E+03  0.7546771E-02  0.1162212E+00
         21   -1    0    0  501  502  0.00000000000E+00  0.00000000000E+00  0.60077304367E+03  0.60077304367E+03  0.00000000000E+00 0.  1.
         21   -1    0    0  502  503 -0.00000000000E+00 -0.00000000000E+00 -0.57580252476E+02  0.57580252476E+02  0.00000000000E+00 0.  1.
          6    1    1    2  501    0 -0.62415583593E+01  0.67755065632E+02  0.28190987705E+03  0.33768607426E+03  0.17300000000E+03 0.  1.
         -6    1    1    2    0  503  0.62415583593E+01 -0.67755065632E+02  0.26128291414E+03  0.32066722189E+03  0.17300000000E+03 0.  1.
<mgrwt>
<rscale>  2 0.18589972E+03</rscale>
<asrwt>0</asrwt>
<pdfrwt beam="1">  1       21 0.92426618E-01 0.18589972E+03</pdfrwt>
<pdfrwt beam="2">  1       21 0.88585008E-02 0.18589972E+03</pdfrwt>
<totfact> 0.99466844E+04</totfact>
</mgrwt>
</event>
<event>
 4    2  0.3944631E+000  0.1995175E+03  0.7546771E-02  0.1150147E+00
         21   -1    0    0  501  502  0.00000000000E+00  0.00000000000E+00  0.13472770953E+02  0.13472770953E+02  0.00000000000E+00 0. -1.
         21   -1    0    0  502  503 -0.00000000000E+00 -0.00000000000E+00 -0.34548983356E+04  0.34548983356E+04  0.00000000000E+00 0. -1.
          6    1    1    2  501    0 -0.88208749647E+02  0.45797862731E+02 -0.10608193391E+04  0.10794187778E+04  0.17300000000E+03 0.  1.
         -6    1    1    2    0  503  0.88208749647E+02 -0.45797862731E+02 -0.23806062256E+04  0.23889523287E+04  0.17300000000E+03 0.  1.
<mgrwt>
<rscale>  2 0.19951749E+03</rscale>
<asrwt>0</asrwt>
<pdfrwt beam="1">  1       21 0.20727325E-02 0.19951749E+03</pdfrwt>
<pdfrwt beam="2">  1       21 0.53152319E+00 0.19951749E+03</pdfrwt>
<totfact> 0.12920856E+03</totfact>
</mgrwt>
</event>
<event>
 4    2  0.3944631E+000  0.2191040E+03  0.7546771E-02  0.1134553E+00
         21   -1    0    0  501  502  0.00000000000E+00  0.00000000000E+00  0.13239226854E+04  0.13239226854E+04  0.00000000000E+00 0. -1.
         21   -1    0    0  502  503 -0.00000000000E+00 -0.00000000000E+00 -0.60196283133E+02  0.60196283133E+02  0.00000000000E+00 0.  1.
          6    1    1    2  501    0 -0.87517609846E+02  0.10206979331E+03  0.10682575763E+04  0.10904956781E+04  0.17300000000E+03 0. -1.
         -6    1    1    2    0  503  0.87517609846E+02 -0.10206979331E+03  0.19546882601E+03  0.29362329042E+03  0.17300000000E+03 0.  1.
<mgrwt>
<rscale>  2 0.21910403E+03</rscale>
<asrwt>0</asrwt>
<pdfrwt beam="1">  1       21 0.20368039E+00 0.21910403E+03</pdfrwt>
<pdfrwt beam="2">  1       21 0.92609676E-02 0.21910403E+03</pdfrwt>
<totfact> 0.11568497E+04</totfact>
</mgrwt>
</event>
<event>
 4    2  0.3944631E+000  0.2867313E+03  0.7546771E-02  0.1092068E+00
         21   -1    0    0  503  502  0.00000000000E+00  0.00000000000E+00  0.14493002748E+03  0.14493002748E+03  0.00000000000E+00 0. -1.
         21   -1    0    0  501  503 -0.00000000000E+00 -0.00000000000E+00 -0.99019402926E+03  0.99019402926E+03  0.00000000000E+00 0.  1.
          6    1    1    2  501    0 -0.22704417874E+03  0.27143368929E+02 -0.79355440705E+03  0.84376739599E+03  0.17300000000E+03 0.  1.
         -6    1    1    2    0  502  0.22704417874E+03 -0.27143368929E+02 -0.51709594730E+02  0.29135666075E+03  0.17300000000E+03 0. -1.
<mgrwt>
<rscale>  2 0.28673127E+03</rscale>
<asrwt>0</asrwt>
<pdfrwt beam="1">  1       21 0.22296928E-01 0.28673127E+03</pdfrwt>
<pdfrwt beam="2">  1       21 0.15233754E+00 0.28673127E+03</pdfrwt>
<totfact> 0.50552196E+03</totfact>
</mgrwt>
</event>
<event>
 4    2  0.3944631E+000  0.1861600E+03  0.7546771E-02  0.1161971E+00
         21   -1    0    0  501  502  0.00000000000E+00  0.00000000000E+00  0.18532169374E+04  0.18532169374E+04  0.00000000000E+00 0.  1.
         21   -1    0    0  502  503 -0.00000000000E+00 -0.00000000000E+00 -0.63426497454E+02  0.63426497454E+02  0.00000000000E+00 0. -1.
          6    1    1    2  501    0 -0.90978911433E+01  0.68145351645E+02  0.16996384882E+04  0.17098030738E+04  0.17300000000E+03 0.  1.
         -6    1    1    2    0  503  0.90978911433E+01 -0.68145351645E+02  0.90151951801E+02  0.20684036112E+03  0.17300000000E+03 0. -1.
<mgrwt>
<rscale>  2 0.18616004E+03</rscale>
<asrwt>0</asrwt>
<pdfrwt beam="1">  1       21 0.28511026E+00 0.18616004E+03</pdfrwt>
<pdfrwt beam="2">  1       21 0.97579241E-02 0.18616004E+03</pdfrwt>
<totfact> 0.35507294E+03</totfact>
</mgrwt>
</event>
<event>
 4    2  0.3944631E+000  0.2490589E+03  0.7546771E-02  0.1113901E+00
         21   -1    0    0  501  502  0.00000000000E+00  0.00000000000E+00  0.13232020027E+04  0.13232020027E+04  0.00000000000E+00 0. -1.
         21   -1    0    0  502  503 -0.00000000000E+00 -0.00000000000E+00 -0.49156857325E+02  0.49156857325E+02  0.00000000000E+00 0.  1.
          6    1    1    2  501    0 -0.17612452402E+03 -0.32886342532E+02  0.78473289941E+03  0.82330801217E+03  0.17300000000E+03 0. -1.
         -6    1    1    2    0  503  0.17612452402E+03  0.32886342532E+02  0.48931224600E+03  0.54905084789E+03  0.17300000000E+03 0.  1.
<mgrwt>
<rscale>  2 0.24905895E+03</rscale>
<asrwt>0</asrwt>
<pdfrwt beam="1">  1       21 0.20356951E+00 0.24905895E+03</pdfrwt>
<pdfrwt beam="2">  1       21 0.75625944E-02 0.24905895E+03</pdfrwt>
<totfact> 0.16191223E+04</totfact>
</mgrwt>
</event>
<event>
 4    2  0.3944631E+000  0.3033280E+03  0.7546771E-02  0.1083589E+00
         21   -1    0    0  501  502  0.00000000000E+00  0.00000000000E+00  0.69899660293E+02  0.69899660293E+02  0.00000000000E+00 0.  1.
         21   -1    0    0  502  503 -0.00000000000E+00 -0.00000000000E+00 -0.27620099165E+04  0.27620099165E+04  0.00000000000E+00 0.  1.
          6    1    1    2  501    0  0.23021095998E+03  0.95298402161E+02 -0.32163144825E+03  0.44210254473E+03  0.17300000000E+03 0.  1.
         -6    1    1    2    0  503 -0.23021095998E+03 -0.95298402161E+02 -0.23704788080E+04  0.23898070321E+04  0.17300000000E+03 0.  1.
<mgrwt>
<rscale>  2 0.30332799E+03</rscale>
<asrwt>0</asrwt>
<pdfrwt beam="1">  1       21 0.10753793E-01 0.30332799E+03</pdfrwt>
<pdfrwt beam="2">  1       21 0.42492463E+00 0.30332799E+03</pdfrwt>
<totfact> 0.37413311E+02</totfact>
</mgrwt>
</event>
<event>
 4    2  0.3944631E+000  0.2637804E+03  0.7546771E-02  0.1104893E+00
         21   -1    0    0  501  502  0.00000000000E+00  0.00000000000E+00  0.77387334217E+03  0.77387334217E+03  0.00000000000E+00 0. -1.
         21   -1    0    0  502  503 -0.00000000000E+00 -0.00000000000E+00 -0.15402551849E+03  0.15402551849E+03  0.00000000000E+00 0.  1.
          6    1    1    2  501    0 -0.12292353412E+03  0.15665531386E+03  0.60925438915E+03  0.66390586178E+03  0.17300000000E+03 0. -1.
         -6    1    1    2    0  503  0.12292353412E+03 -0.15665531386E+03  0.10593434524E+02  0.26399299888E+03  0.17300000000E+03 0.  1.
<mgrwt>
<rscale>  2 0.26378037E+03</rscale>
<asrwt>0</asrwt>
<pdfrwt beam="1">  1       21 0.11905743E+00 0.26378037E+03</pdfrwt>
<pdfrwt beam="2">  1       21 0.23696234E-01 0.26378037E+03</pdfrwt>
<totfact> 0.86256627E+03</totfact>
</mgrwt>
</event>
<event>
 4    2  0.3944631E+000  0.1826046E+03  0.7546771E-02  0.1165306E+00
         21   -1    0    0  503  502  0.00000000000E+00  0.00000000000E+00  0.51276177065E+03  0.51276177065E+03  0.00000000000E+00 0. -1.
         21   -1    0    0  501  503 -0.00000000000E+00 -0.00000000000E+00 -0.67593443651E+02  0.67593443651E+02  0.00000000000E+00 0. -1.
          6    1    1    2  501    0  0.31593881922E+02 -0.49165812700E+02  0.27910354498E+03  0.33353146678E+03  0.17300000000E+03 0. -1.
         -6    1    1    2    0  502 -0.31593881922E+02  0.49165812700E+02  0.16606478202E+03  0.24682374752E+03  0.17300000000E+03 0. -1.
<mgrwt>
<rscale>  2 0.18260463E+03</rscale>
<asrwt>0</asrwt>
<pdfrwt beam="1">  1       21 0.78886424E-01 0.18260463E+03</pdfrwt>
<pdfrwt beam="2">  1       21 0.10398992E-01 0.18260463E+03</pdfrwt>
<totfact> 0.10790207E+05</totfact>
</mgrwt>
</event>
<event>
 4    2  0.3944631E+000  0.1919076E+03  0.7546771E-02  0.1156752E+00
         21   -1    0    0  503  502  0.00000000000E+00  0.00000000000E+00  0.62271402329E+03  0.62271402329E+03  0.00000000000E+00 0. -1.
         21   -1    0    0  501  503 -0.00000000000E+00 -0.00000000000E+00 -0.81366407737E+02  0.81366407737E+02  0.00000000000E+00 0. -1.
          6    1    1    2  501    0 -0.65142879125E+02 -0.51535786550E+02  0.86687658134E+02  0.21057844635E+03  0.17300000000E+03 0. -1.
         -6    1    1    2    0  502  0.65142879125E+02  0.51535786550E+02  0.45465995742E+03  0.49350198467E+03  0.17300000000E+03 0. -1.
<mgrwt>
<rscale>  2 0.19190761E+03</rscale>
<asrwt>0</asrwt>
<pdfrwt beam="1">  1       21 0.95802154E-01 0.19190761E+03</pdfrwt>
<pdfrwt beam="2">  1       21 0.12517909E-01 0.19190761E+03</pdfrwt>
<totfact> 0.49433470E+04</totfact>
</mgrwt>
</event>
<event>
 4    2  0.3944631E+000  0.3080408E+03  0.7546771E-02  0.1081289E+00
         21   -1    0    0  503  502  0.00000000000E+00  0.00000000000E+00  0.12713149516E+04  0.12713149516E+04  0.00000000000E+00 0.  1.
         21   -1    0    0  501  503 -0.00000000000E+00 -0.00000000000E+00 -0.23563302518E+03  0.23563302518E+03  0.00000000000E+00 0.  1.
          6    1    1    2  501    0  0.83486486280E+02 -0.24081137358E+03 -0.10496916154E+03  0.32543453399E+03  0.17300000000E+03 0.  1.
         -6    1    1    2    0  502 -0.83486486280E+02  0.24081137358E+03  0.11406510879E+04  0.11815134428E+04  0.17300000000E+03 0.  1.
<mgrwt>
<rscale>  2 0.30804076E+03</rscale>
<asrwt>0</asrwt>
<pdfrwt beam="1">  1       21 0.19558691E+00 0.30804076E+03</pdfrwt>
<pdfrwt beam="2">  1       21 0.36251235E-01 0.30804076E+03</pdfrwt>
<totfact> 0.95000298E+02</totfact>
</mgrwt>
</event>
<event>
 4    2  0.3944631E+000  0.1739180E+03  0.7546771E-02  0.1173823E+00
         21   -1    0    0  501  502  0.00000000000E+00  0.00000000000E+00  0.65752606967E+03  0.65752606967E+03  0.00000000000E+00 0.  1.
         21   -1    0    0  502  503 -0.00000000000E+00 -0.00000000000E+00 -0.10696478067E+03  0.10696478067E+03  0.00000000000E+00 0.  1.
          6    1    1    2  501    0  0.14200225217E+02  0.10807928619E+02  0.56385290680E+03  0.59006572365E+03  0.17300000000E+03 0.  1.
         -6    1    1    2    0  503 -0.14200225217E+02 -0.10807928619E+02 -0.13291617802E+02  0.17442512669E+03  0.17300000000E+03 0.  1.
<mgrwt>
<rscale>  2 0.17391796E+03</rscale>
<asrwt>0</asrwt>
<pdfrwt beam="1">  1       21 0.10115785E+00 0.17391796E+03</pdfrwt>
<pdfrwt beam="2">  1       21 0.16456121E-01 0.17391796E+03</pdfrwt>
<totfact> 0.26747332E+04</totfact>
</mgrwt>
</event>
<event>
 4    2  0.3944631E+000  0.1900341E+03  0.7546771E-02  0.1158431E+00
         21   -1    0    0  501  502  0.00000000000E+00  0.00000000000E+00  0.33642606358E+03  0.33642606358E+03  0.00000000000E+00 0.  1.
         21   -1    0    0  502  503 -0.00000000000E+00 -0.00000000000E+00 -0.11163852479E+03  0.11163852479E+03  0.00000000000E+00 0.  1.
          6    1    1    2  501    0  0.58838770546E+02 -0.52172570145E+02  0.68448468745E+02  0.20198557094E+03  0.17300000000E+03 0.  1.
         -6    1    1    2    0  503 -0.58838770546E+02  0.52172570145E+02  0.15633907005E+03  0.24607901743E+03  0.17300000000E+03 0.  1.
<mgrwt>
<rscale>  2 0.19003415E+03</rscale>
<asrwt>0</asrwt>
<pdfrwt beam="1">  1       21 0.51757856E-01 0.19003415E+03</pdfrwt>
<pdfrwt beam="2">  1       21 0.17175158E-01 0.19003415E+03</pdfrwt>
<totfact> 0.10863036E+05</totfact>
</mgrwt>
</event>
<event>
 4    2  0.3944631E+000  0.3314421E+03  0.7546771E-02  0.1070501E+00
         21   -1    0    0  501  502  0.00000000000E+00  0.00000000000E+00  0.31577264855E+03  0.31577264855E+03  0.00000000000E+00 0.  1.
         21   -1    0    0  502  503 -0.00000000000E+00 -0.00000000000E+00 -0.83500868538E+03  0.83500868538E+03  0.00000000000E+00 0.  1.
          6    1    1    2  501    0 -0.56751951741E+02  0.27695505734E+03  0.17985789428E+03  0.37709779892E+03  0.17300000000E+03 0.  1.
         -6    1    1    2    0  503  0.56751951741E+02 -0.27695505734E+03 -0.69909393111E+03  0.77368353500E+03  0.17300000000E+03 0.  1.
<mgrwt>
<rscale>  2 0.33144213E+03</rscale>
<asrwt>0</asrwt>
<pdfrwt beam="1">  1       21 0.48580407E-01 0.33144213E+03</pdfrwt>
<pdfrwt beam="2">  1       21 0.12846287E+00 0.33144213E+03</pdfrwt>
<totfact> 0.16287403E+03</totfact>
</mgrwt>
</event>
<event>
 4    2  0.3944631E+000  0.2589446E+03  0.7546771E-02  0.1107779E+00
         21   -1    0    0  503  502  0.00000000000E+00  0.00000000000E+00  0.22485721306E+03  0.22485721306E+03  0.00000000000E+00 0.  1.
         21   -1    0    0  501  503 -0.00000000000E+00 -0.00000000000E+00 -0.87343466098E+03  0.87343466098E+03  0.00000000000E+00 0.  1.
          6    1    1    2  501    0 -0.99342900287E+02  0.16508870392E+03 -0.76994015293E+03  0.81231775255E+03  0.17300000000E+03 0.  1.
         -6    1    1    2    0  502  0.99342900287E+02 -0.16508870392E+03  0.12136270501E+03  0.28597412150E+03  0.17300000000E+03 0.  1.
<mgrwt>
<rscale>  2 0.25894457E+03</rscale>
<asrwt>0</asrwt>
<pdfrwt beam="1">  1       21 0.34593418E-01 0.25894457E+03</pdfrwt>
<pdfrwt beam="2">  1       21 0.13437456E+00 0.25894457E+03</pdfrwt>
<totfact> 0.30404607E+03</totfact>
</mgrwt>
</event>
<event>
 4    2  0.3944631E+000  0.1839768E+03  0.7546771E-02  0.1164009E+00
         21   -1    0    0  503  502  0.00000000000E+00  0.00000000000E+00  0.34262381176E+02  0.34262381176E+02  0.00000000000E+00 0. -1.
         21   -1    0    0  501  503 -0.00000000000E+00 -0.00000000000E+00 -0.10356537899E+04  0.10356537899E+04  0.00000000000E+00 0. -1.
          6    1    1    2  501    0  0.24308857814E+02 -0.57684901793E+02 -0.61558014639E+03  0.64248454074E+03  0.17300000000E+03 0. -1.
         -6    1    1    2    0  502 -0.24308857814E+02  0.57684901793E+02 -0.38581126230E+03  0.42743163030E+03  0.17300000000E+03 0. -1.
<mgrwt>
<rscale>  2 0.18397682E+03</rscale>
<asrwt>0</asrwt>
<pdfrwt beam="1">  1       21 0.52711354E-02 0.18397682E+03</pdfrwt>
<pdfrwt beam="2">  1       21 0.15933136E+00 0.18397682E+03</pdfrwt>
<totfact> 0.62897941E+04</totfact>
</mgrwt>
</event>
<event>
 4    2  0.3944631E+000  0.2200504E+03  0.7546771E-02  0.1133845E+00
         21   -1    0    0  501  502  0.00000000000E+00  0.00000000000E+00  0.23818421528E+03  0.23818421528E+03  0.00000000000E+00 0. -1.
         21   -1    0    0  502  503 -0.00000000000E+00 -0.00000000000E+00 -0.24106310503E+03  0.24106310503E+03  0.00000000000E+00 0. -1.
          6    1    1    2  501    0 -0.11203531354E+03 -0.77079590153E+02  0.93405567715E+02  0.23905391605E+03  0.17300000000E+03 0. -1.
         -6    1    1    2    0  503  0.11203531354E+03  0.77079590153E+02 -0.96284457471E+02  0.24019340426E+03  0.17300000000E+03 0. -1.
<mgrwt>
<rscale>  2 0.22005039E+03</rscale>
<asrwt>0</asrwt>
<pdfrwt beam="1">  1       21 0.36643726E-01 0.22005039E+03</pdfrwt>
<pdfrwt beam="2">  1       21 0.37086631E-01 0.22005039E+03</pdfrwt>
<totfact> 0.49713532E+04</totfact>
</mgrwt>
</event>
<event>
 4    2  0.3944631E+000  0.2257335E+03  0.7546771E-02  0.1129679E+00
         21   -1    0    0  503  502  0.00000000000E+00  0.00000000000E+00  0.88866863758E+03  0.88866863758E+03  0.00000000000E+00 0. -1.
         21   -1    0    0  501  503 -0.00000000000E+00 -0.00000000000E+00 -0.78626718413E+02  0.78626718413E+02  0.00000000000E+00 0.  1.
          6    1    1    2  501    0  0.40920699374E+02 -0.13911190886E+03  0.65667601198E+03  0.69439110848E+03  0.17300000000E+03 0. -1.
         -6    1    1    2    0  502 -0.40920699374E+02  0.13911190886E+03  0.15336590719E+03  0.27290424752E+03  0.17300000000E+03 0.  1.
<mgrwt>
<rscale>  2 0.22573353E+03</rscale>
<asrwt>0</asrwt>
<pdfrwt beam="1">  1       21 0.13671825E+00 0.22573353E+03</pdfrwt>
<pdfrwt beam="2">  1       21 0.12096419E-01 0.22573353E+03</pdfrwt>
<totfact> 0.21556779E+04</totfact>
</mgrwt>
</event>
<event>
 4    2  0.3944631E+000  0.1974766E+03  0.7546771E-02  0.1151886E+00
         21   -1    0    0  503  502  0.00000000000E+00  0.00000000000E+00  0.55100782586E+02  0.55100782586E+02  0.00000000000E+00 0.  1.
         21   -1    0    0  501  503 -0.00000000000E+00 -0.00000000000E+00 -0.14382124721E+04  0.14382124721E+04  0.00000000000E+00 0. -1.
          6    1    1    2  501    0  0.96265346669E+01 -0.94738355268E+02 -0.12236779926E+04  0.12395099256E+04  0.17300000000E+03 0. -1.
         -6    1    1    2    0  502 -0.96265346669E+01  0.94738355268E+02 -0.15943369688E+03  0.25380332904E+03  0.17300000000E+03 0.  1.
<mgrwt>
<rscale>  2 0.19747665E+03</rscale>
<asrwt>0</asrwt>
<pdfrwt beam="1">  1       21 0.84770419E-02 0.19747665E+03</pdfrwt>
<pdfrwt beam="2">  1       21 0.22126350E+00 0.19747665E+03</pdfrwt>
<totfact> 0.10673986E+04</totfact>
</mgrwt>
</event>
<event>
 4    2  0.3944631E+000  0.2005762E+03  0.7546771E-02  0.1149254E+00
         21   -1    0    0  501  502  0.00000000000E+00  0.00000000000E+00  0.65926091704E+03  0.65926091704E+03  0.00000000000E+00 0.  1.
         21   -1    0    0  502  503 -0.00000000000E+00 -0.00000000000E+00 -0.64306287658E+02  0.64306287658E+02  0.00000000000E+00 0. -1.
          6    1    1    2  501    0 -0.99669938286E+02 -0.19176256636E+02  0.21574350788E+03  0.29457781079E+03  0.17300000000E+03 0.  1.
         -6    1    1    2    0  503  0.99669938286E+02  0.19176256636E+02  0.37921112150E+03  0.42898939391E+03  0.17300000000E+03 0. -1.
<mgrwt>
<rscale>  2 0.20057623E+03</rscale>
<asrwt>0</asrwt>
<pdfrwt beam="1">  1       21 0.10142475E+00 0.20057623E+03</pdfrwt>
<pdfrwt beam="2">  1       21 0.98932755E-02 0.20057623E+03</pdfrwt>
<totfact> 0.65391434E+04</totfact>
</mgrwt>
</event>
<event>
 4    2  0.3944631E+000  0.2540886E+03  0.7546771E-02  0.1110748E+00
         21   -1    0    0  503  502  0.00000000000E+00  0.00000000000E+00  0.18119975944E+03  0.18119975944E+03  0.00000000000E+00 0. -1.
         21   -1    0    0  501  503 -0.00000000000E+00 -0.00000000000E+00 -0.78460162214E+03  0.78460162214E+03  0.00000000000E+00 0. -1.
          6    1    1    2  501    0 -0.18039774265E+03  0.45702183508E+02 -0.65848817148E+03  0.70580996530E+03  0.17300000000E+03 0. -1.
         -6    1    1    2    0  502  0.18039774265E+03 -0.45702183508E+02  0.55086308784E+02  0.25999141629E+03  0.17300000000E+03 0. -1.
<mgrwt>
<rscale>  2 0.25408864E+03</rscale>
<asrwt>0</asrwt>
<pdfrwt beam="1">  1       21 0.27876885E-01 0.25408864E+03</pdfrwt>
<pdfrwt beam="2">  1       21 0.12070795E+00 0.25408864E+03</pdfrwt>
<totfact> 0.61262295E+03</totfact>
</mgrwt>
</event>
<event>
 4    2  0.3944631E+000  0.2670293E+03  0.7546771E-02  0.1102992E+00
         21   -1    0    0  501  502  0.00000000000E+00  0.00000000000E+00  0.32600157210E+03  0.32600157210E+03  0.00000000000E+00 0.  1.
         21   -1    0    0  502  503 -0.00000000000E+00 -0.00000000000E+00 -0.39104921488E+03  0.39104921488E+03  0.00000000000E+00 0.  1.
          6    1    1    2  501    0  0.20282780213E+03 -0.15378746171E+02  0.20547655262E+03  0.33693506322E+03  0.17300000000E+03 0.  1.
         -6    1    1    2    0  503 -0.20282780213E+03  0.15378746171E+02 -0.27052419540E+03  0.38011572376E+03  0.17300000000E+03 0.  1.
<mgrwt>
<rscale>  2 0.26702926E+03</rscale>
<asrwt>0</asrwt>
<pdfrwt beam="1">  1       21 0.50154088E-01 0.26702926E+03</pdfrwt>
<pdfrwt beam="2">  1       21 0.60161418E-01 0.26702926E+03</pdfrwt>
<totfact> 0.93225872E+03</totfact>
</mgrwt>
</event>
<event>
 4    2  0.3944631E+000  0.1793101E+03  0.7546771E-02  0.1168472E+00
         21   -1    0    0  503  502  0.00000000000E+00  0.00000000000E+00  0.16716436090E+03  0.16716436090E+03  0.00000000000E+00 0.  1.
         21   -1    0    0  501  503 -0.00000000000E+00 -0.00000000000E+00 -0.22660903279E+03  0.22660903279E+03  0.00000000000E+00 0.  1.
          6    1    1    2  501    0 -0.47101072088E+02  0.21468379710E+01 -0.10628888021E+03  0.20844530688E+03  0.17300000000E+03 0.  1.
         -6    1    1    2    0  502  0.47101072088E+02 -0.21468379710E+01  0.46844208321E+02  0.18532808680E+03  0.17300000000E+03 0.  1.
<mgrwt>
<rscale>  2 0.17931012E+03</rscale>
<asrwt>0</asrwt>
<pdfrwt beam="1">  1       21 0.25717594E-01 0.17931012E+03</pdfrwt>
<pdfrwt beam="2">  1       21 0.34862928E-01 0.17931012E+03</pdfrwt>
<totfact> 0.11434511E+05</totfact>
</mgrwt>
</event>
<event>
 4    2  0.3944631E+000  0.1833548E+03  0.7546771E-02  0.1164595E+00
         21   -1    0    0  501  502  0.00000000000E+00  0.00000000000E+00  0.55560302256E+02  0.55560302256E+02  0.00000000000E+00 0.  1.
         21   -1    0    0  502  503 -0.00000000000E+00 -0.00000000000E+00 -0.60513942386E+03  0.60513942386E+03  0.00000000000E+00 0.  1.
          6    1    1    2  501    0 -0.52476619355E+02  0.30597255028E+02 -0.27777270528E+03  0.33283128367E+03  0.17300000000E+03 0.  1.
         -6    1    1    2    0  503  0.52476619355E+02 -0.30597255028E+02 -0.27180641633E+03  0.32786844245E+03  0.17300000000E+03 0.  1.
<mgrwt>
<rscale>  2 0.18335481E+03</rscale>
<asrwt>0</asrwt>
<pdfrwt beam="1">  1       21 0.85477388E-02 0.18335481E+03</pdfrwt>
<pdfrwt beam="2">  1       21 0.93098373E-01 0.18335481E+03</pdfrwt>
<totfact> 0.10421152E+05</totfact>
</mgrwt>
</event>
<event>
 4    2  0.3944631E+000  0.1893256E+03  0.7546771E-02  0.1159071E+00
         21   -1    0    0  503  502  0.00000000000E+00  0.00000000000E+00  0.39820599752E+03  0.39820599752E+03  0.00000000000E+00 0. -1.
         21   -1    0    0  501  503 -0.00000000000E+00 -0.00000000000E+00 -0.90581727534E+02  0.90581727534E+02  0.00000000000E+00 0. -1.
          6    1    1    2  501    0 -0.39294640886E+02 -0.66114419186E+02  0.17315728867E+03  0.25656896119E+03  0.17300000000E+03 0. -1.
         -6    1    1    2    0  502  0.39294640886E+02  0.66114419186E+02  0.13446698132E+03  0.23221876387E+03  0.17300000000E+03 0. -1.
<mgrwt>
<rscale>  2 0.18932561E+03</rscale>
<asrwt>0</asrwt>
<pdfrwt beam="1">  1       21 0.61262460E-01 0.18932561E+03</pdfrwt>
<pdfrwt beam="2">  1       21 0.13935651E-01 0.18932561E+03</pdfrwt>
<totfact> 0.11123023E+05</totfact>
</mgrwt>
</event>
<event>
 4    2  0.3944631E+000  0.2421204E+03  0.7546771E-02  0.1118388E+00
         21   -1    0    0  501  502  0.00000000000E+00  0.00000000000E+00  0.68712337116E+02  0.68712337116E+02  0.00000000000E+00 0. -1.
         21   -1    0    0  502  503 -0.00000000000E+00 -0.00000000000E+00 -0.85387876496E+03  0.85387876496E+03  0.00000000000E+00 0.  1.
          6    1    1    2  501    0 -0.55708054043E+02  0.15996837841E+03 -0.37915247218E+03  0.44986538713E+03  0.17300000000E+03 0.  1.
         -6    1    1    2    0  503  0.55708054043E+02 -0.15996837841E+03 -0.40601395566E+03  0.47272571494E+03  0.17300000000E+03 0.  1.
<mgrwt>
<rscale>  2 0.24212036E+03</rscale>
<asrwt>0</asrwt>
<pdfrwt beam="1">  1       21 0.10571129E-01 0.24212036E+03</pdfrwt>
<pdfrwt beam="2">  1       21 0.13136596E+00 0.24212036E+03</pdfrwt>
<totfact> 0.30120835E+04</totfact>
</mgrwt>
</event>
<event>
 4    2  0.3944631E+000  0.2706565E+03  0.7546771E-02  0.1100904E+00
         21   -1    0    0  501  502  0.00000000000E+00  0.00000000000E+00  0.94158229500E+02  0.94158229500E+02  0.00000000000E+00 0.  1.
         21   -1    0    0  502  503 -0.00000000000E+00 -0.00000000000E+00 -0.11771190423E+04  0.11771190423E+04  0.00000000000E+00 0. -1.
          6    1    1    2  501    0 -0.14994614003E+03  0.14436782864E+03 -0.17135201201E+03  0.32033798850E+03  0.17300000000E+03 0.  1.
         -6    1    1    2    0  503  0.14994614003E+03 -0.14436782864E+03 -0.91160880081E+03  0.95093928332E+03  0.17300000000E+03 0. -1.
<mgrwt>
<rscale>  2 0.27065645E+03</rscale>
<asrwt>0</asrwt>
<pdfrwt beam="1">  1       21 0.14485882E-01 0.27065645E+03</pdfrwt>
<pdfrwt beam="2">  1       21 0.18109523E+00 0.27065645E+03</pdfrwt>
<totfact> 0.70623929E+03</totfact>
</mgrwt>
</event>
<event>
 4    2  0.3944631E+000  0.1768845E+03  0.7546771E-02  0.1170853E+00
         21   -1    0    0  501  502  0.00000000000E+00  0.00000000000E+00  0.17846916704E+03  0.17846916704E+03  0.00000000000E+00 0.  1.
         21   -1    0    0  502  503 -0.00000000000E+00 -0.00000000000E+00 -0.36371307525E+03  0.36371307525E+03  0.00000000000E+00 0.  1.
          6    1    1    2  501    0 -0.21815954344E+02  0.29718270196E+02  0.10248620327E+03  0.20442977598E+03  0.17300000000E+03 0.  1.
         -6    1    1    2    0  503  0.21815954344E+02 -0.29718270196E+02 -0.28773011148E+03  0.33775246631E+03  0.17300000000E+03 0.  1.
<mgrwt>
<rscale>  2 0.17688446E+03</rscale>
<asrwt>0</asrwt>
<pdfrwt beam="1">  1       21 0.27456795E-01 0.17688446E+03</pdfrwt>
<pdfrwt beam="2">  1       21 0.55955858E-01 0.17688446E+03</pdfrwt>
<totfact> 0.38362001E+04</totfact>
</mgrwt>
</event>
<event>
 4    2  0.3944631E+000  0.2502324E+03  0.7546771E-02  0.1113158E+00
         21   -1    0    0  501  502  0.00000000000E+00  0.00000000000E+00  0.13919062616E+03  0.13919062616E+03  0.00000000000E+00 0. -1.
         21   -1    0    0  502  503 -0.00000000000E+00 -0.00000000000E+00 -0.47680919323E+03  0.47680919323E+03  0.00000000000E+00 0. -1.
          6    1    1    2  501    0  0.17361068967E+03  0.50463843391E+02 -0.95585434499E+02  0.26786721775E+03  0.17300000000E+03 0. -1.
         -6    1    1    2    0  503 -0.17361068967E+03 -0.50463843391E+02 -0.24203313257E+03  0.34813260164E+03  0.17300000000E+03 0. -1.
<mgrwt>
<rscale>  2 0.25023243E+03</rscale>
<asrwt>0</asrwt>
<pdfrwt beam="1">  1       21 0.21413943E-01 0.25023243E+03</pdfrwt>
<pdfrwt beam="2">  1       21 0.73355260E-01 0.25023243E+03</pdfrwt>
<totfact> 0.32970620E+04</totfact>
</mgrwt>
</event>
<event>
 4    2  0.3944631E+000  0.2286359E+03  0.7546771E-02  0.1127604E+00
         21   -1    0    0  503  502  0.00000000000E+00  0.00000000000E+00  0.20491214472E+03  0.20491214472E+03  0.00000000000E+00 0.  1.
         21   -1    0    0  501  503 -0.00000000000E+00 -0.00000000000E+00 -0.29564526013E+03  0.29564526013E+03  0.00000000000E+00 0. -1.
          6    1    1    2  501    0 -0.25419608546E+02 -0.14730656090E+03 -0.13804414694E+03  0.26707782740E+03  0.17300000000E+03 0.  1.
         -6    1    1    2    0  502  0.25419608546E+02  0.14730656090E+03  0.47311031522E+02  0.23347957745E+03  0.17300000000E+03 0.  1.
<mgrwt>
<rscale>  2 0.22863591E+03</rscale>
<asrwt>0</asrwt>
<pdfrwt beam="1">  1       21 0.31524945E-01 0.22863591E+03</pdfrwt>
<pdfrwt beam="2">  1       21 0.45483886E-01 0.22863591E+03</pdfrwt>
<totfact> 0.44068334E+04</totfact>
</mgrwt>
</event>
<event>
 4    2  0.3944631E+000  0.2024145E+03  0.7546771E-02  0.1147718E+00
         21   -1    0    0  503  502  0.00000000000E+00  0.00000000000E+00  0.27690599489E+03  0.27690599489E+03  0.00000000000E+00 0.  1.
         21   -1    0    0  501  503 -0.00000000000E+00 -0.00000000000E+00 -0.48196369123E+03  0.48196369123E+03  0.00000000000E+00 0.  1.
          6    1    1    2  501    0 -0.18975262780E+02  0.10335650846E+03 -0.41839583081E+03  0.46478672493E+03  0.17300000000E+03 0.  1.
         -6    1    1    2    0  502  0.18975262780E+02 -0.10335650846E+03  0.21333813447E+03  0.29408296118E+03  0.17300000000E+03 0.  1.
<mgrwt>
<rscale>  2 0.20241450E+03</rscale>
<asrwt>0</asrwt>
<pdfrwt beam="1">  1       21 0.42600922E-01 0.20241450E+03</pdfrwt>
<pdfrwt beam="2">  1       21 0.74148260E-01 0.20241450E+03</pdfrwt>
<totfact> 0.85852982E+03</totfact>
</mgrwt>
</event>
<event>
 4    2  0.3944631E+000  0.2147423E+03  0.7546771E-02  0.1137865E+00
         21   -1    0    0  501  502  0.00000000000E+00  0.00000000000E+00  0.28976423100E+03  0.28976423100E+03  0.00000000000E+00 0. -1.
         21   -1    0    0  502  503 -0.00000000000E+00 -0.00000000000E+00 -0.64391039180E+03  0.64391039180E+03  0.00000000000E+00 0. -1.
          6    1    1    2  501    0 -0.12336267324E+03  0.31095039005E+02  0.22798665576E+03  0.31319668869E+03  0.17300000000E+03 0. -1.
         -6    1    1    2    0  503  0.12336267324E+03 -0.31095039005E+02 -0.58213281656E+03  0.62047793411E+03  0.17300000000E+03 0. -1.
<mgrwt>
<rscale>  2 0.21474229E+03</rscale>
<asrwt>0</asrwt>
<pdfrwt beam="1">  1       21 0.44579112E-01 0.21474229E+03</pdfrwt>
<pdfrwt beam="2">  1       21 0.99063137E-01 0.21474229E+03</pdfrwt>
<totfact> 0.39843755E+03</totfact>
</mgrwt>
</event>
<event>
 4    2  0.3944631E+000  0.2364721E+03  0.7546771E-02  0.1122166E+00
         21   -1    0    0  501  502  0.00000000000E+00  0.00000000000E+00  0.22651414728E+03  0.22651414728E+03  0.00000000000E+00 0.  1.
         21   -1    0    0  502  503 -0.00000000000E+00 -0.00000000000E+00 -0.26264349861E+03  0.26264349861E+03  0.00000000000E+00 0. -1.
          6    1    1    2  501    0  0.83600120359E+02  0.13784436512E+03 -0.78006482358E+02  0.24900614533E+03  0.17300000000E+03 0.  1.
         -6    1    1    2    0  503 -0.83600120359E+02 -0.13784436512E+03  0.41877131025E+02  0.24015150056E+03  0.17300000000E+03 0.  1.
<mgrwt>
<rscale>  2 0.23647209E+03</rscale>
<asrwt>0</asrwt>
<pdfrwt beam="1">  1       21 0.34848331E-01 0.23647209E+03</pdfrwt>
<pdfrwt beam="2">  1       21 0.40406692E-01 0.23647209E+03</pdfrwt>
<totfact> 0.45895902E+04</totfact>
</mgrwt>
</event>
<event>
 4    2  0.3944631E+000  0.2472452E+03  0.7546771E-02  0.1115058E+00
         21   -1    0    0  503  502  0.00000000000E+00  0.00000000000E+00  0.15020803247E+03  0.15020803247E+03  0.00000000000E+00 0.  1.
         21   -1    0    0  501  503 -0.00000000000E+00 -0.00000000000E+00 -0.66394696032E+03  0.66394696032E+03  0.00000000000E+00 0. -1.
          6    1    1    2  501    0 -0.17331670225E+03 -0.34095692884E+02 -0.51012404616E+03  0.56688335487E+03  0.17300000000E+03 0. -1.
         -6    1    1    2    0  502  0.17331670225E+03  0.34095692884E+02 -0.36148816821E+01  0.24727163792E+03  0.17300000000E+03 0.  1.
<mgrwt>
<rscale>  2 0.24724521E+03</rscale>
<asrwt>0</asrwt>
<pdfrwt beam="1">  1       21 0.23108928E-01 0.24724521E+03</pdfrwt>
<pdfrwt beam="2">  1       21 0.10214569E+00 0.24724521E+03</pdfrwt>
<totfact> 0.13277040E+04</totfact>
</mgrwt>
</event>
<event>
 4    2  0.3944631E+000  0.2114205E+03  0.7546771E-02  0.1140446E+00
         21   -1    0    0  503  502  0.00000000000E+00  0.00000000000E+00  0.18080953165E+03  0.18080953165E+03  0.00000000000E+00 0. -1.
         21   -1    0    0  501  503 -0.00000000000E+00 -0.00000000000E+00 -0.25155836809E+03  0.25155836809E+03  0.00000000000E+00 0. -1.
          6    1    1    2  501    0 -0.11271707445E+03  0.45436612313E+02 -0.69642560035E+01  0.21153516368E+03  0.17300000000E+03 0. -1.
         -6    1    1    2    0  502  0.11271707445E+03 -0.45436612313E+02 -0.63784580435E+02  0.22083273605E+03  0.17300000000E+03 0. -1.
<mgrwt>
<rscale>  2 0.21142049E+03</rscale>
<asrwt>0</asrwt>
<pdfrwt beam="1">  1       21 0.27816851E-01 0.21142049E+03</pdfrwt>
<pdfrwt beam="2">  1       21 0.38701287E-01 0.21142049E+03</pdfrwt>
<totfact> 0.78803085E+04</totfact>
</mgrwt>
</event>
<event>
 4    2  0.3944631E+000  0.2534237E+03  0.7546771E-02  0.1111160E+00
         21   -1    0    0  503  502  0.00000000000E+00  0.00000000000E+00  0.92468984153E+02  0.92468984153E+02  0.00000000000E+00 0. -1.
         21   -1    0    0  501  503 -0.00000000000E+00 -0.00000000000E+00 -0.10464157446E+04  0.10464157446E+04  0.00000000000E+00 0.  1.
          6    1    1    2  501    0 -0.10236058762E+03 -0.15432716091E+03 -0.80718418325E+03  0.84603183638E+03  0.17300000000E+03 0.  1.
         -6    1    1    2    0  502  0.10236058762E+03  0.15432716091E+03 -0.14676257717E+03  0.29285289234E+03  0.17300000000E+03 0. -1.
<mgrwt>
<rscale>  2 0.25342368E+03</rscale>
<asrwt>0</asrwt>
<pdfrwt beam="1">  1       21 0.14225998E-01 0.25342368E+03</pdfrwt>
<pdfrwt beam="2">  1       21 0.16098703E+00 0.25342368E+03</pdfrwt>
<totfact> 0.10253487E+04</totfact>
</mgrwt>
</event>
<event>
 4    2  0.3944631E+000  0.2201826E+03  0.7546771E-02  0.1133747E+00
         21   -1    0    0  501  502  0.00000000000E+00  0.00000000000E+00  0.27679252211E+03  0.27679252211E+03  0.00000000000E+00 0.  1.
         21   -1    0    0  502  503 -0.00000000000E+00 -0.00000000000E+00 -0.19126787786E+03  0.19126787786E+03  0.00000000000E+00 0. -1.
          6    1    1    2  501    0  0.10488877947E+03  0.86889076439E+02  0.11069788094E+03  0.24644347934E+03  0.17300000000E+03 0.  1.
         -6    1    1    2    0  503 -0.10488877947E+03 -0.86889076439E+02 -0.25173236686E+02  0.22161692063E+03  0.17300000000E+03 0. -1.
<mgrwt>
<rscale>  2 0.22018258E+03</rscale>
<asrwt>0</asrwt>
<pdfrwt beam="1">  1       21 0.42583465E-01 0.22018258E+03</pdfrwt>
<pdfrwt beam="2">  1       21 0.29425827E-01 0.22018258E+03</pdfrwt>
<totfact> 0.57967652E+04</totfact>
</mgrwt>
</event>
<event>
 4    2  0.3944631E+000  0.2154538E+03  0.7546771E-02  0.1137318E+00
         21   -1    0    0  503  502  0.00000000000E+00  0.00000000000E+00  0.10394606343E+03  0.10394606343E+03  0.00000000000E+00 0.  1.
         21   -1    0    0  501  503 -0.00000000000E+00 -0.00000000000E+00 -0.16507766836E+04  0.16507766836E+04  0.00000000000E+00 0.  1.
          6    1    1    2  501    0 -0.61174649546E+02  0.11291156324E+03 -0.15227620849E+04  0.15379287129E+04  0.17300000000E+03 0.  1.
         -6    1    1    2    0  502  0.61174649546E+02 -0.11291156324E+03 -0.24068535360E+02  0.21679403418E+03  0.17300000000E+03 0.  1.
<mgrwt>
<rscale>  2 0.21545384E+03</rscale>
<asrwt>0</asrwt>
<pdfrwt beam="1">  1       21 0.15991703E-01 0.21545384E+03</pdfrwt>
<pdfrwt beam="2">  1       21 0.25396562E+00 0.21545384E+03</pdfrwt>
<totfact> 0.21450603E+03</totfact>
</mgrwt>
</event>
<event>
 4    2  0.3944631E+000  0.1928309E+03  0.7546771E-02  0.1155933E+00
         21   -1    0    0  501  502  0.00000000000E+00  0.00000000000E+00  0.51335311312E+03  0.51335311312E+03  0.00000000000E+00 0.  1.
         21   -1    0    0  502  503 -0.00000000000E+00 -0.00000000000E+00 -0.93597554411E+02  0.93597554411E+02  0.00000000000E+00 0.  1.
          6    1    1    2  501    0  0.80817941563E+02 -0.26892709813E+02  0.35418719995E+03  0.40327698934E+03  0.17300000000E+03 0.  1.
         -6    1    1    2    0  503 -0.80817941563E+02  0.26892709813E+02  0.65568358759E+02  0.20367367820E+03  0.17300000000E+03 0.  1.
<mgrwt>
<rscale>  2 0.19283090E+03</rscale>
<asrwt>0</asrwt>
<pdfrwt beam="1">  1       21 0.78977400E-01 0.19283090E+03</pdfrwt>
<pdfrwt beam="2">  1       21 0.14399624E-01 0.19283090E+03</pdfrwt>
<totfact> 0.59823054E+04</totfact>
</mgrwt>
</event>
<event>
 4    2  0.3944631E+000  0.1990746E+03  0.7546771E-02  0.1150522E+00
         21   -1    0    0  503  502  0.00000000000E+00  0.00000000000E+00  0.20359930587E+03  0.20359930587E+03  0.00000000000E+00 0.  1.
         21   -1    0    0  501  503 -0.00000000000E+00 -0.00000000000E+00 -0.25734071010E+03  0.25734071010E+03  0.00000000000E+00 0.  1.
          6    1    1    2  501    0 -0.21435788813E+02  0.96136349516E+02  0.86881628467E+02  0.21720752313E+03  0.17300000000E+03 0.  1.
         -6    1    1    2    0  502  0.21435788813E+02 -0.96136349516E+02 -0.14062303270E+03  0.24373249284E+03  0.17300000000E+03 0.  1.
<mgrwt>
<rscale>  2 0.19907459E+03</rscale>
<asrwt>0</asrwt>
<pdfrwt beam="1">  1       21 0.31322970E-01 0.19907459E+03</pdfrwt>
<pdfrwt beam="2">  1       21 0.39590878E-01 0.19907459E+03</pdfrwt>
<totfact> 0.60055932E+04</totfact>
</mgrwt>
</event>
<event>
 4    2  0.3944631E+000  0.2611029E+03  0.7546771E-02  0.1106482E+00
         21   -1    0    0  501  502  0.00000000000E+00  0.00000000000E+00  0.13999977071E+04  0.13999977071E+04  0.00000000000E+00 0. -1.
         21   -1    0    0  502  503 -0.00000000000E+00 -0.00000000000E+00 -0.49118638744E+02  0.49118638744E+02  0.00000000000E+00 0.  1.
          6    1    1    2  501    0  0.15164423292E+03 -0.12348992844E+03  0.60825481967E+03  0.66192798812E+03  0.17300000000E+03 0.  1.
         -6    1    1    2    0  503 -0.15164423292E+03  0.12348992844E+03  0.74262424870E+03  0.78718835774E+03  0.17300000000E+03 0.  1.
<mgrwt>
<rscale>  2 0.26110292E+03</rscale>
<asrwt>0</asrwt>
<pdfrwt beam="1">  1       21 0.21538423E+00 0.26110292E+03</pdfrwt>
<pdfrwt beam="2">  1       21 0.75567147E-02 0.26110292E+03</pdfrwt>
<totfact> 0.13533475E+04</totfact>
</mgrwt>
</event>
<event>
 4    2  0.3944631E+000  0.2286987E+03  0.7546771E-02  0.1127559E+00
         21   -1    0    0  503  502  0.00000000000E+00  0.00000000000E+00  0.93019243921E+02  0.93019243921E+02  0.00000000000E+00 0. -1.
         21   -1    0    0  501  503 -0.00000000000E+00 -0.00000000000E+00 -0.69066521549E+03  0.69066521549E+03  0.00000000000E+00 0.  1.
          6    1    1    2  501    0  0.49846504511E+02 -0.14102987551E+03 -0.46776225165E+03  0.52067708214E+03  0.17300000000E+03 0.  1.
         -6    1    1    2    0  502 -0.49846504511E+02  0.14102987551E+03 -0.12988371992E+03  0.26300737727E+03  0.17300000000E+03 0. -1.
<mgrwt>
<rscale>  2 0.22869871E+03</rscale>
<asrwt>0</asrwt>
<pdfrwt beam="1">  1       21 0.14310653E-01 0.22869871E+03</pdfrwt>
<pdfrwt beam="2">  1       21 0.10625618E+00 0.22869871E+03</pdfrwt>
<totfact> 0.29741376E+04</totfact>
</mgrwt>
</event>
<event>
 4    2  0.3944631E+000  0.1751840E+03  0.7546771E-02  0.1172547E+00
         21   -1    0    0  501  502  0.00000000000E+00  0.00000000000E+00  0.89408557033E+02  0.89408557033E+02  0.00000000000E+00 0. -1.
         21   -1    0    0  502  503 -0.00000000000E+00 -0.00000000000E+00 -0.72553570121E+03  0.72553570121E+03  0.00000000000E+00 0. -1.
          6    1    1    2  501    0 -0.27576117763E+02 -0.38569062505E-01 -0.22287649327E+02  0.17659610152E+03  0.17300000000E+03 0. -1.
         -6    1    1    2    0  503  0.27576117763E+02  0.38569062505E-01 -0.61383949485E+03  0.63834815673E+03  0.17300000000E+03 0. -1.
<mgrwt>
<rscale>  2 0.17518403E+03</rscale>
<asrwt>0</asrwt>
<pdfrwt beam="1">  1       21 0.13755162E-01 0.17518403E+03</pdfrwt>
<pdfrwt beam="2">  1       21 0.11162088E+00 0.17518403E+03</pdfrwt>
<totfact> 0.29235691E+04</totfact>
</mgrwt>
</event>
<event>
 4    2  0.3944631E+000  0.1742026E+03  0.7546771E-02  0.1173535E+00
         21   -1    0    0  501  502  0.00000000000E+00  0.00000000000E+00  0.61943621474E+02  0.61943621474E+02  0.00000000000E+00 0. -1.
         21   -1    0    0  502  503 -0.00000000000E+00 -0.00000000000E+00 -0.64800229690E+03  0.64800229690E+03  0.00000000000E+00 0. -1.
          6    1    1    2  501    0 -0.18242334745E+02 -0.92065923610E+01 -0.11769457985E+03  0.21023453153E+03  0.17300000000E+03 0. -1.
         -6    1    1    2    0  503  0.18242334745E+02  0.92065923610E+01 -0.46836409558E+03  0.49971138685E+03  0.17300000000E+03 0. -1.
<mgrwt>
<rscale>  2 0.17420260E+03</rscale>
<asrwt>0</asrwt>
<pdfrwt beam="1">  1       21 0.95297879E-02 0.17420260E+03</pdfrwt>
<pdfrwt beam="2">  1       21 0.99692661E-01 0.17420260E+03</pdfrwt>
<totfact> 0.73670187E+04</totfact>
</mgrwt>
</event>
<event>
 4    2  0.3944631E+000  0.1918258E+03  0.7546771E-02  0.1156825E+00
         21   -1    0    0  501  502  0.00000000000E+00  0.00000000000E+00  0.33429249065E+03  0.33429249065E+03  0.00000000000E+00 0. -1.
         21   -1    0    0  502  503 -0.00000000000E+00 -0.00000000000E+00 -0.14531492480E+03  0.14531492480E+03  0.00000000000E+00 0. -1.
          6    1    1    2  501    0 -0.35118508199E+02  0.75065459948E+02  0.21258074885E+03  0.28633495714E+03  0.17300000000E+03 0. -1.
         -6    1    1    2    0  503  0.35118508199E+02 -0.75065459948E+02 -0.23603182997E+02  0.19327245831E+03  0.17300000000E+03 0. -1.
<mgrwt>
<rscale>  2 0.19182579E+03</rscale>
<asrwt>0</asrwt>
<pdfrwt beam="1">  1       21 0.51429614E-01 0.19182579E+03</pdfrwt>
<pdfrwt beam="2">  1       21 0.22356142E-01 0.19182579E+03</pdfrwt>
<totfact> 0.67303708E+04</totfact>
</mgrwt>
</event>
<event>
 4    2  0.3944631E+000  0.1784877E+03  0.7546771E-02  0.1169275E+00
         21   -1    0    0  503  502  0.00000000000E+00  0.00000000000E+00  0.44490508452E+03  0.44490508452E+03  0.00000000000E+00 0.  1.
         21   -1    0    0  501  503 -0.00000000000E+00 -0.00000000000E+00 -0.24355232959E+03  0.24355232959E+03  0.00000000000E+00 0.  1.
          6    1    1    2  501    0  0.89806090717E+01  0.42990771718E+02 -0.18855635534E+03  0.25963697143E+03  0.17300000000E+03 0.  1.
         -6    1    1    2    0  502 -0.89806090717E+01 -0.42990771718E+02  0.38990911027E+03  0.42882044268E+03  0.17300000000E+03 0.  1.
<mgrwt>
<rscale>  2 0.17848770E+03</rscale>
<asrwt>0</asrwt>
<pdfrwt beam="1">  1       21 0.68446936E-01 0.17848770E+03</pdfrwt>
<pdfrwt beam="2">  1       21 0.37469589E-01 0.17848770E+03</pdfrwt>
<totfact> 0.13497371E+04</totfact>
</mgrwt>
</event>
<event>
 4    2  0.3944631E+000  0.2057407E+03  0.7546771E-02  0.1144984E+00
         21   -1    0    0  501  502  0.00000000000E+00  0.00000000000E+00  0.89359120787E+02  0.89359120787E+02  0.00000000000E+00 0.  1.
         21   -1    0    0  502  503 -0.00000000000E+00 -0.00000000000E+00 -0.86776067210E+03  0.86776067210E+03  0.00000000000E+00 0. -1.
          6    1    1    2  501    0  0.42963021641E+02 -0.10273464057E+03 -0.66708716268E+02  0.21628518310E+03  0.17300000000E+03 0.  1.
         -6    1    1    2    0  503 -0.42963021641E+02  0.10273464057E+03 -0.71169283504E+03  0.74083460978E+03  0.17300000000E+03 0. -1.
<mgrwt>
<rscale>  2 0.20574068E+03</rscale>
<asrwt>0</asrwt>
<pdfrwt beam="1">  1       21 0.13747557E-01 0.20574068E+03</pdfrwt>
<pdfrwt beam="2">  1       21 0.13350164E+00 0.20574068E+03</pdfrwt>
<totfact> 0.18411513E+04</totfact>
</mgrwt>
</event>
<event>
 4    2  0.3944631E+000  0.2264016E+03  0.7546771E-02  0.1129198E+00
         21   -1    0    0  501  502  0.00000000000E+00  0.00000000000E+00  0.16869981449E+03  0.16869981449E+03  0.00000000000E+00 0. -1.
         21   -1    0    0  502  503 -0.00000000000E+00 -0.00000000000E+00 -0.40450900941E+03  0.40450900941E+03  0.00000000000E+00 0. -1.
          6    1    1    2  501    0 -0.86817086861E+02  0.11743715132E+03  0.25072818571E+02  0.22778572676E+03  0.17300000000E+03 0. -1.
         -6    1    1    2    0  503  0.86817086861E+02 -0.11743715132E+03 -0.26088201349E+03  0.34542309715E+03  0.17300000000E+03 0. -1.
<mgrwt>
<rscale>  2 0.22640161E+03</rscale>
<asrwt>0</asrwt>
<pdfrwt beam="1">  1       21 0.25953818E-01 0.22640161E+03</pdfrwt>
<pdfrwt beam="2">  1       21 0.62232155E-01 0.22640161E+03</pdfrwt>
<totfact> 0.33186017E+04</totfact>
</mgrwt>
</event>
<event>
 4    2  0.3944631E+000  0.1793915E+03  0.7546771E-02  0.1168393E+00
         21   -1    0    0  503  502  0.00000000000E+00  0.00000000000E+00  0.41586636847E+03  0.41586636847E+03  0.00000000000E+00 0.  1.
         21   -1    0    0  501  503 -0.00000000000E+00 -0.00000000000E+00 -0.93052371717E+02  0.93052371717E+02  0.00000000000E+00 0.  1.
          6    1    1    2  501    0  0.43203336277E+02 -0.19641412882E+02  0.56990374628E+02  0.18822650229E+03  0.17300000000E+03 0.  1.
         -6    1    1    2    0  502 -0.43203336277E+02  0.19641412882E+02  0.26582362213E+03  0.32069223790E+03  0.17300000000E+03 0.  1.
<mgrwt>
<rscale>  2 0.17939151E+03</rscale>
<asrwt>0</asrwt>
<pdfrwt beam="1">  1       21 0.63979440E-01 0.17939151E+03</pdfrwt>
<pdfrwt beam="2">  1       21 0.14315750E-01 0.17939151E+03</pdfrwt>
<totfact> 0.96825363E+04</totfact>
</mgrwt>
</event>
<event>
 4    2  0.3944631E+000  0.1783777E+03  0.7546771E-02  0.1169382E+00
         21   -1    0    0  503  502  0.00000000000E+00  0.00000000000E+00  0.23318264129E+03  0.23318264129E+03  0.00000000000E+00 0. -1.
         21   -1    0    0  501  503 -0.00000000000E+00 -0.00000000000E+00 -0.27944229909E+03  0.27944229909E+03  0.00000000000E+00 0. -1.
          6    1    1    2  501    0 -0.19360491586E+02  0.38920266633E+02 -0.20647711613E+03  0.27285786644E+03  0.17300000000E+03 0. -1.
         -6    1    1    2    0  502  0.19360491586E+02 -0.38920266633E+02  0.16021745834E+03  0.23976707394E+03  0.17300000000E+03 0. -1.
<mgrwt>
<rscale>  2 0.17837773E+03</rscale>
<asrwt>0</asrwt>
<pdfrwt beam="1">  1       21 0.35874252E-01 0.17837773E+03</pdfrwt>
<pdfrwt beam="2">  1       21 0.42991123E-01 0.17837773E+03</pdfrwt>
<totfact> 0.39266749E+04</totfact>
</mgrwt>
</event>
<event>
 4    2  0.3944631E+000  0.1896322E+03  0.7546771E-02  0.1158793E+00
         21   -1    0    0  501  502  0.00000000000E+00  0.00000000000E+00  0.53161234650E+02  0.53161234650E+02  0.00000000000E+00 0.  1.
         21   -1    0    0  502  503 -0.00000000000E+00 -0.00000000000E+00 -0.89114027486E+03  0.89114027486E+03  0.00000000000E+00 0.  1.
          6    1    1    2  501    0  0.62311365164E+02 -0.46353773323E+02 -0.18723720226E+03  0.26649230466E+03  0.17300000000E+03 0.  1.
         -6    1    1    2    0  503 -0.62311365164E+02  0.46353773323E+02 -0.65074183795E+03  0.67780920486E+03  0.17300000000E+03 0.  1.
<mgrwt>
<rscale>  2 0.18963222E+03</rscale>
<asrwt>0</asrwt>
<pdfrwt beam="1">  1       21 0.81786512E-02 0.18963222E+03</pdfrwt>
<pdfrwt beam="2">  1       21 0.13709851E+00 0.18963222E+03</pdfrwt>
<totfact> 0.43684901E+04</totfact>
</mgrwt>
</event>
<event>
 4    2  0.3944631E+000  0.1818998E+03  0.7546771E-02  0.1165977E+00
         21   -1    0    0  503  502  0.00000000000E+00  0.00000000000E+00  0.74288276907E+02  0.74288276907E+02  0.00000000000E+00 0.  1.
         21   -1    0    0  501  503 -0.00000000000E+00 -0.00000000000E+00 -0.63825008459E+03  0.63825008459E+03  0.00000000000E+00 0.  1.
          6    1    1    2  501    0 -0.55016399807E+00  0.56198317849E+02 -0.47782003562E+03  0.51127247143E+03  0.17300000000E+03 0.  1.
         -6    1    1    2    0  502  0.55016399807E+00 -0.56198317849E+02 -0.86141772071E+02  0.20126589007E+03  0.17300000000E+03 0.  1.
<mgrwt>
<rscale>  2 0.18189984E+03</rscale>
<asrwt>0</asrwt>
<pdfrwt beam="1">  1       21 0.11428966E-01 0.18189984E+03</pdfrwt>
<pdfrwt beam="2">  1       21 0.98192319E-01 0.18189984E+03</pdfrwt>
<totfact> 0.55160469E+04</totfact>
</mgrwt>
</event>
<event>
 4    2  0.3944631E+000  0.2223560E+03  0.7546771E-02  0.1132139E+00
         21   -1    0    0  501  502  0.00000000000E+00  0.00000000000E+00  0.11956804339E+04  0.11956804339E+04  0.00000000000E+00 0. -1.
         21   -1    0    0  502  503 -0.00000000000E+00 -0.00000000000E+00 -0.41354700264E+02  0.41354700264E+02  0.00000000000E+00 0. -1.
          6    1    1    2  501    0 -0.13428199471E+03 -0.38490553088E+02  0.57105037166E+03  0.61281375944E+03  0.17300000000E+03 0. -1.
         -6    1    1    2    0  503  0.13428199471E+03  0.38490553088E+02  0.58327536198E+03  0.62422137473E+03  0.17300000000E+03 0. -1.
<mgrwt>
<rscale>  2 0.22235597E+03</rscale>
<asrwt>0</asrwt>
<pdfrwt beam="1">  1       21 0.18395081E+00 0.22235597E+03</pdfrwt>
<pdfrwt beam="2">  1       21 0.63622625E-02 0.22235597E+03</pdfrwt>
<totfact> 0.29921537E+04</totfact>
</mgrwt>
</event>
<event>
 4    2  0.3944631E+000  0.2044795E+03  0.7546771E-02  0.1146014E+00
         21   -1    0    0  503  502  0.00000000000E+00  0.00000000000E+00  0.14735007644E+04  0.14735007644E+04  0.00000000000E+00 0.  1.
         21   -1    0    0  501  503 -0.00000000000E+00 -0.00000000000E+00 -0.63593858550E+02  0.63593858550E+02  0.00000000000E+00 0. -1.
          6    1    1    2  501    0 -0.10890494940E+03 -0.47511411615E+01  0.13302024520E+03  0.24393902308E+03  0.17300000000E+03 0. -1.
         -6    1    1    2    0  502  0.10890494940E+03  0.47511411615E+01  0.12768866607E+04  0.12931555999E+04  0.17300000000E+03 0.  1.
<mgrwt>
<rscale>  2 0.20447949E+03</rscale>
<asrwt>0</asrwt>
<pdfrwt beam="1">  1       21 0.22669240E+00 0.20447949E+03</pdfrwt>
<pdfrwt beam="2">  1       21 0.97836716E-02 0.20447949E+03</pdfrwt>
<totfact> 0.76400108E+03</totfact>
</mgrwt>
</event>
<event>
 4    2  0.3944631E+000  0.2765676E+03  0.7546771E-02  0.1097579E+00
         21   -1    0    0  503  502  0.00000000000E+00  0.00000000000E+00  0.97719569542E+03  0.97719569542E+03  0.00000000000E+00 0. -1.
         21   -1    0    0  501  503 -0.00000000000E+00 -0.00000000000E+00 -0.10168349624E+03  0.10168349624E+03  0.00000000000E+00 0.  1.
          6    1    1    2  501    0  0.54106954939E+02  0.20888526228E+03  0.17893008255E+03  0.32940186674E+03  0.17300000000E+03 0.  1.
         -6    1    1    2    0  502 -0.54106954939E+02 -0.20888526228E+03  0.69658211663E+03  0.74947732493E+03  0.17300000000E+03 0. -1.
<mgrwt>
<rscale>  2 0.27656756E+03</rscale>
<asrwt>0</asrwt>
<pdfrwt beam="1">  1       21 0.15033779E+00 0.27656756E+03</pdfrwt>
<pdfrwt beam="2">  1       21 0.15643616E-01 0.27656756E+03</pdfrwt>
<totfact> 0.10227311E+04</totfact>
</mgrwt>
</event>
<event>
 4    2  0.3944631E+000  0.2465475E+03  0.7546771E-02  0.1115506E+00
         21   -1    0    0  501  502  0.00000000000E+00  0.00000000000E+00  0.60804228815E+02  0.60804228815E+02  0.00000000000E+00 0. -1.
         21   -1    0    0  502  503 -0.00000000000E+00 -0.00000000000E+00 -0.12781742510E+04  0.12781742510E+04  0.00000000000E+00 0. -1.
          6    1    1    2  501    0 -0.10872736872E+03 -0.13796756582E+03 -0.29618869053E+03  0.38537440279E+03  0.17300000000E+03 0. -1.
         -6    1    1    2    0  503  0.10872736872E+03  0.13796756582E+03 -0.92118133162E+03  0.95360407699E+03  0.17300000000E+03 0. -1.
<mgrwt>
<rscale>  2 0.24654754E+03</rscale>
<asrwt>0</asrwt>
<pdfrwt beam="1">  1       21 0.93544962E-02 0.24654754E+03</pdfrwt>
<pdfrwt beam="2">  1       21 0.19664220E+00 0.24654754E+03</pdfrwt>
<totfact> 0.12381577E+04</totfact>
</mgrwt>
</event>
<event>
 4    2  0.3944631E+000  0.2823442E+03  0.7546771E-02  0.1094415E+00
         21   -1    0    0  503  502  0.00000000000E+00  0.00000000000E+00  0.10346080392E+03  0.10346080392E+03  0.00000000000E+00 0.  1.
         21   -1    0    0  501  503 -0.00000000000E+00 -0.00000000000E+00 -0.79209164902E+03  0.79209164902E+03  0.00000000000E+00 0.  1.
          6    1    1    2  501    0  0.13357014039E+03 -0.17874073246E+03 -0.41821681438E+03  0.50460235401E+03  0.17300000000E+03 0.  1.
         -6    1    1    2    0  502 -0.13357014039E+03  0.17874073246E+03 -0.27041403072E+03  0.39095009893E+03  0.17300000000E+03 0.  1.
<mgrwt>
<rscale>  2 0.28234417E+03</rscale>
<asrwt>0</asrwt>
<pdfrwt beam="1">  1       21 0.15917046E-01 0.28234417E+03</pdfrwt>
<pdfrwt beam="2">  1       21 0.12186026E+00 0.28234417E+03</pdfrwt>
<totfact> 0.17016346E+04</totfact>
</mgrwt>
</event>
<event>
 4    2  0.3944631E+000  0.2090463E+03  0.7546771E-02  0.1142323E+00
         21   -1    0    0  503  502  0.00000000000E+00  0.00000000000E+00  0.13371291382E+03  0.13371291382E+03  0.00000000000E+00 0. -1.
         21   -1    0    0  501  503 -0.00000000000E+00 -0.00000000000E+00 -0.37970824714E+03  0.37970824714E+03  0.00000000000E+00 0. -1.
          6    1    1    2  501    0  0.10256446369E+03  0.57025373910E+02 -0.21880282288E+03  0.30261367745E+03  0.17300000000E+03 0. -1.
         -6    1    1    2    0  502 -0.10256446369E+03 -0.57025373910E+02 -0.27192510444E+02  0.21080748351E+03  0.17300000000E+03 0. -1.
<mgrwt>
<rscale>  2 0.20904632E+03</rscale>
<asrwt>0</asrwt>
<pdfrwt beam="1">  1       21 0.20571218E-01 0.20904632E+03</pdfrwt>
<pdfrwt beam="2">  1       21 0.58416653E-01 0.20904632E+03</pdfrwt>
<totfact> 0.59633104E+04</totfact>
</mgrwt>
</event>
<event>
 4    2  0.3944631E+000  0.2219364E+03  0.7546771E-02  0.1132448E+00
         21   -1    0    0  503  502  0.00000000000E+00  0.00000000000E+00  0.46723734062E+02  0.46723734062E+02  0.00000000000E+00 0. -1.
         21   -1    0    0  501  503 -0.00000000000E+00 -0.00000000000E+00 -0.14240200105E+04  0.14240200105E+04  0.00000000000E+00 0. -1.
          6    1    1    2  501    0  0.13394365896E+03 -0.37227243203E+02 -0.10634045400E+04  0.10863171669E+04  0.17300000000E+03 0. -1.
         -6    1    1    2    0  502 -0.13394365896E+03  0.37227243203E+02 -0.31389173647E+03  0.38442657769E+03  0.17300000000E+03 0. -1.
<mgrwt>
<rscale>  2 0.22193641E+03</rscale>
<asrwt>0</asrwt>
<pdfrwt beam="1">  1       21 0.71882653E-02 0.22193641E+03</pdfrwt>
<pdfrwt beam="2">  1       21 0.21908005E+00 0.22193641E+03</pdfrwt>
<totfact> 0.14382721E+04</totfact>
</mgrwt>
</event>
<event>
 4    2  0.3944631E+000  0.2019655E+03  0.7546771E-02  0.1148091E+00
         21   -1    0    0  501  502  0.00000000000E+00  0.00000000000E+00  0.69827572743E+02  0.69827572743E+02  0.00000000000E+00 0.  1.
         21   -1    0    0  502  503 -0.00000000000E+00 -0.00000000000E+00 -0.10454356673E+04  0.10454356673E+04  0.00000000000E+00 0.  1.
          6    1    1    2  501    0  0.10097117921E+03 -0.25804962730E+02 -0.11739489958E+03  0.23360573105E+03  0.17300000000E+03 0.  1.
         -6    1    1    2    0  503 -0.10097117921E+03  0.25804962730E+02 -0.85821319500E+03  0.88165750902E+03  0.17300000000E+03 0.  1.
<mgrwt>
<rscale>  2 0.20196553E+03</rscale>
<asrwt>0</asrwt>
<pdfrwt beam="1">  1       21 0.10742704E-01 0.20196553E+03</pdfrwt>
<pdfrwt beam="2">  1       21 0.16083625E+00 0.20196553E+03</pdfrwt>
<totfact> 0.17622789E+04</totfact>
</mgrwt>
</event>
<event>
 4    2  0.3944631E+000  0.2258709E+03  0.7546771E-02  0.1129580E+00
         21   -1    0    0  501  502  0.00000000000E+00  0.00000000000E+00  0.42693133977E+03  0.42693133977E+03  0.00000000000E+00 0.  1.
         21   -1    0    0  502  503 -0.00000000000E+00 -0.00000000000E+00 -0.12790070513E+03  0.12790070513E+03  0.00000000000E+00 0.  1.
          6    1    1    2  501    0  0.90946762143E+02  0.11321368574E+03  0.22061896221E+03  0.31573783218E+03  0.17300000000E+03 0.  1.
         -6    1    1    2    0  503 -0.90946762143E+02 -0.11321368574E+03  0.78411672432E+02  0.23909421272E+03  0.17300000000E+03 0.  1.
<mgrwt>
<rscale>  2 0.22587088E+03</rscale>
<asrwt>0</asrwt>
<pdfrwt beam="1">  1       21 0.65681744E-01 0.22587088E+03</pdfrwt>
<pdfrwt beam="2">  1       21 0.19677032E-01 0.22587088E+03</pdfrwt>
<totfact> 0.49905234E+04</totfact>
</mgrwt>
</event>
<event>
 4    2  0.3944631E+000  0.2170522E+03  0.7546771E-02  0.1136100E+00
         21   -1    0    0  501  502  0.00000000000E+00  0.00000000000E+00  0.11727813562E+03  0.11727813562E+03  0.00000000000E+00 0. -1.
         21   -1    0    0  502  503 -0.00000000000E+00 -0.00000000000E+00 -0.55091015132E+03  0.55091015132E+03  0.00000000000E+00 0. -1.
          6    1    1    2  501    0  0.10115994227E+03 -0.83362712786E+02 -0.42950014343E+02  0.22126088569E+03  0.17300000000E+03 0. -1.
         -6    1    1    2    0  503 -0.10115994227E+03  0.83362712786E+02 -0.39068200136E+03  0.44692740125E+03  0.17300000000E+03 0. -1.
<mgrwt>
<rscale>  2 0.21705224E+03</rscale>
<asrwt>0</asrwt>
<pdfrwt beam="1">  1       21 0.18042790E-01 0.21705224E+03</pdfrwt>
<pdfrwt beam="2">  1       21 0.84755407E-01 0.21705224E+03</pdfrwt>
<totfact> 0.33276695E+04</totfact>
</mgrwt>
</event>
<event>
 4    2  0.3944631E+000  0.2008627E+03  0.7546771E-02  0.1149013E+00
         21   -1    0    0  503  502  0.00000000000E+00  0.00000000000E+00  0.22940375665E+03  0.22940375665E+03  0.00000000000E+00 0. -1.
         21   -1    0    0  501  503 -0.00000000000E+00 -0.00000000000E+00 -0.27459046999E+03  0.27459046999E+03  0.00000000000E+00 0.  1.
          6    1    1    2  501    0  0.45432418303E+01 -0.10196173086E+03 -0.17368857452E+03  0.26554388814E+03  0.17300000000E+03 0.  1.
         -6    1    1    2    0  502 -0.45432418303E+01  0.10196173086E+03  0.12850186118E+03  0.23845033850E+03  0.17300000000E+03 0. -1.
<mgrwt>
<rscale>  2 0.20086273E+03</rscale>
<asrwt>0</asrwt>
<pdfrwt beam="1">  1       21 0.35292886E-01 0.20086273E+03</pdfrwt>
<pdfrwt beam="2">  1       21 0.42244687E-01 0.20086273E+03</pdfrwt>
<totfact> 0.41561572E+04</totfact>
</mgrwt>
</event>
<event>
 4    2  0.3944631E+000  0.2039935E+03  0.7546771E-02  0.1146413E+00
         21   -1    0    0  503  502  0.00000000000E+00  0.00000000000E+00  0.65774260453E+03  0.65774260453E+03  0.00000000000E+00 0.  1.
         21   -1    0    0  501  503 -0.00000000000E+00 -0.00000000000E+00 -0.12479331641E+03  0.12479331641E+03  0.00000000000E+00 0.  1.
          6    1    1    2  501    0  0.70202996391E+02  0.82194161439E+02 -0.82574555458E+01  0.20416054087E+03  0.17300000000E+03 0.  1.
         -6    1    1    2    0  502 -0.70202996391E+02 -0.82194161439E+02  0.54120674367E+03  0.57837538007E+03  0.17300000000E+03 0.  1.
<mgrwt>
<rscale>  2 0.20399348E+03</rscale>
<asrwt>0</asrwt>
<pdfrwt beam="1">  1       21 0.10119117E+00 0.20399348E+03</pdfrwt>
<pdfrwt beam="2">  1       21 0.19198972E-01 0.20399348E+03</pdfrwt>
<totfact> 0.19742551E+04</totfact>
</mgrwt>
</event>
<event>
 4    2  0.3944631E+000  0.1790819E+03  0.7546771E-02  0.1168695E+00
         21   -1    0    0  503  502  0.00000000000E+00  0.00000000000E+00  0.21379583495E+04  0.21379583495E+04  0.00000000000E+00 0.  1.
         21   -1    0    0  501  503 -0.00000000000E+00 -0.00000000000E+00 -0.15787656006E+02  0.15787656006E+02  0.00000000000E+00 0. -1.
          6    1    1    2  501    0  0.10492387238E+02  0.45069128160E+02  0.13015507201E+04  0.13138129979E+04  0.17300000000E+03 0.  1.
         -6    1    1    2    0  502 -0.10492387238E+02 -0.45069128160E+02  0.82061997335E+03  0.83993300754E+03  0.17300000000E+03 0. -1.
<mgrwt>
<rscale>  2 0.17908187E+03</rscale>
<asrwt>0</asrwt>
<pdfrwt beam="1">  1       21 0.32891644E+00 0.17908187E+03</pdfrwt>
<pdfrwt beam="2">  1       21 0.24288718E-02 0.17908187E+03</pdfrwt>
<totfact> 0.21132969E+04</totfact>
</mgrwt>
</event>
<event>
 4    2  0.3944631E+000  0.1788205E+03  0.7546771E-02  0.1168949E+00
         21   -1    0    0  501  502  0.00000000000E+00  0.00000000000E+00  0.11760183373E+03  0.11760183373E+03  0.00000000000E+00 0.  1.
         21   -1    0    0  502  503 -0.00000000000E+00 -0.00000000000E+00 -0.27439212963E+03  0.27439212963E+03  0.00000000000E+00 0.  1.
          6    1    1    2  501    0  0.34735720107E+02 -0.29003629102E+02 -0.59743208264E+02  0.18853655265E+03  0.17300000000E+03 0.  1.
         -6    1    1    2    0  503 -0.34735720107E+02  0.29003629102E+02 -0.97047087641E+02  0.20345741071E+03  0.17300000000E+03 0.  1.
<mgrwt>
<rscale>  2 0.17882053E+03</rscale>
<asrwt>0</asrwt>
<pdfrwt beam="1">  1       21 0.18092590E-01 0.17882053E+03</pdfrwt>
<pdfrwt beam="2">  1       21 0.42214173E-01 0.17882053E+03</pdfrwt>
<totfact> 0.15085038E+05</totfact>
</mgrwt>
</event>
<event>
 4    2  0.3944631E+000  0.1855968E+03  0.7546771E-02  0.1162494E+00
         21   -1    0    0  501  502  0.00000000000E+00  0.00000000000E+00  0.11306208080E+03  0.11306208080E+03  0.00000000000E+00 0. -1.
         21   -1    0    0  502  503 -0.00000000000E+00 -0.00000000000E+00 -0.84673696974E+03  0.84673696974E+03  0.00000000000E+00 0. -1.
          6    1    1    2  501    0 -0.21762522538E+02  0.63588967408E+02  0.17138627477E+02  0.18638641773E+03  0.17300000000E+03 0. -1.
         -6    1    1    2    0  503  0.21762522538E+02 -0.63588967408E+02 -0.75081351641E+03  0.77341263281E+03  0.17300000000E+03 0. -1.
<mgrwt>
<rscale>  2 0.18559678E+03</rscale>
<asrwt>0</asrwt>
<pdfrwt beam="1">  1       21 0.17394166E-01 0.18559678E+03</pdfrwt>
<pdfrwt beam="2">  1       21 0.13026723E+00 0.18559678E+03</pdfrwt>
<totfact> 0.12924535E+04</totfact>
</mgrwt>
</event>
<event>
 4    2  0.3944631E+000  0.1784321E+03  0.7546771E-02  0.1169329E+00
         21   -1    0    0  501  502  0.00000000000E+00  0.00000000000E+00  0.12727230232E+03  0.12727230232E+03  0.00000000000E+00 0.  1.
         21   -1    0    0  502  503 -0.00000000000E+00 -0.00000000000E+00 -0.36297753051E+03  0.36297753051E+03  0.00000000000E+00 0.  1.
          6    1    1    2  501    0  0.14568698505E+02 -0.41192013958E+02  0.18807596343E+02  0.17942060827E+03  0.17300000000E+03 0.  1.
         -6    1    1    2    0  503 -0.14568698505E+02  0.41192013958E+02 -0.25451282453E+03  0.31082922456E+03  0.17300000000E+03 0.  1.
<mgrwt>
<rscale>  2 0.17843214E+03</rscale>
<asrwt>0</asrwt>
<pdfrwt beam="1">  1       21 0.19580355E-01 0.17843214E+03</pdfrwt>
<pdfrwt beam="2">  1       21 0.55842696E-01 0.17843214E+03</pdfrwt>
<totfact> 0.72970795E+04</totfact>
</mgrwt>
</event>
<event>
 4    2  0.3944631E+000  0.1761371E+03  0.7546771E-02  0.1171595E+00
         21   -1    0    0  501  502  0.00000000000E+00  0.00000000000E+00  0.21165654677E+03  0.21165654677E+03  0.00000000000E+00 0.  1.
         21   -1    0    0  502  503 -0.00000000000E+00 -0.00000000000E+00 -0.80830204762E+03  0.80830204762E+03  0.00000000000E+00 0.  1.
          6    1    1    2  501    0  0.37226012559E+01  0.32884841668E+02  0.16310535702E+03  0.24005755156E+03  0.17300000000E+03 0.  1.
         -6    1    1    2    0  503 -0.37226012559E+01 -0.32884841668E+02 -0.75975085788E+03  0.77990104283E+03  0.17300000000E+03 0.  1.
<mgrwt>
<rscale>  2 0.17613708E+03</rscale>
<asrwt>0</asrwt>
<pdfrwt beam="1">  1       21 0.32562546E-01 0.17613708E+03</pdfrwt>
<pdfrwt beam="2">  1       21 0.12435416E+00 0.17613708E+03</pdfrwt>
<totfact> 0.44480043E+03</totfact>
</mgrwt>
</event>
<event>
 4    2  0.3944631E+000  0.1743523E+03  0.7546771E-02  0.1173384E+00
         21   -1    0    0  503  502  0.00000000000E+00  0.00000000000E+00  0.23288342932E+04  0.23288342932E+04  0.00000000000E+00 0.  1.
         21   -1    0    0  501  503 -0.00000000000E+00 -0.00000000000E+00 -0.14940692839E+02  0.14940692839E+02  0.00000000000E+00 0.  1.
          6    1    1    2  501    0 -0.18995984411E+02  0.10434328639E+02  0.74041894073E+03  0.76067005359E+03  0.17300000000E+03 0.  1.
         -6    1    1    2    0  502  0.18995984411E+02 -0.10434328639E+02  0.15734746596E+04  0.15831049324E+04  0.17300000000E+03 0.  1.
<mgrwt>
<rscale>  2 0.17435229E+03</rscale>
<asrwt>0</asrwt>
<pdfrwt beam="1">  1       21 0.35828191E+00 0.17435229E+03</pdfrwt>
<pdfrwt beam="2">  1       21 0.22985700E-02 0.17435229E+03</pdfrwt>
<totfact> 0.15664786E+04</totfact>
</mgrwt>
</event>
<event>
 4    2  0.3944631E+000  0.2306833E+03  0.7546771E-02  0.1126160E+00
         21   -1    0    0  503  502  0.00000000000E+00  0.00000000000E+00  0.92056440814E+02  0.92056440814E+02  0.00000000000E+00 0. -1.
         21   -1    0    0  501  503 -0.00000000000E+00 -0.00000000000E+00 -0.70819216143E+03  0.70819216143E+03  0.00000000000E+00 0.  1.
          6    1    1    2  501    0  0.20296140281E+02 -0.15124098793E+03 -0.47958218159E+03  0.53217838987E+03  0.17300000000E+03 0.  1.
         -6    1    1    2    0  502 -0.20296140281E+02  0.15124098793E+03 -0.13655353902E+03  0.26807021237E+03  0.17300000000E+03 0.  1.
<mgrwt>
<rscale>  2 0.23068327E+03</rscale>
<asrwt>0</asrwt>
<pdfrwt beam="1">  1       21 0.14162529E-01 0.23068327E+03</pdfrwt>
<pdfrwt beam="2">  1       21 0.10895264E+00 0.23068327E+03</pdfrwt>
<totfact> 0.28494339E+04</totfact>
</mgrwt>
</event>
<event>
 4    2  0.3944631E+000  0.1903911E+03  0.7546771E-02  0.1158109E+00
         21   -1    0    0  501  502  0.00000000000E+00  0.00000000000E+00  0.99656610041E+03  0.99656610041E+03  0.00000000000E+00 0. -1.
         21   -1    0    0  502  503 -0.00000000000E+00 -0.00000000000E+00 -0.36721446629E+02  0.36721446629E+02  0.00000000000E+00 0. -1.
          6    1    1    2  501    0 -0.63049158538E+02  0.48420844009E+02  0.53020014901E+03  0.56334800304E+03  0.17300000000E+03 0. -1.
         -6    1    1    2    0  503  0.63049158538E+02 -0.48420844009E+02  0.42964450478E+03  0.46993954400E+03  0.17300000000E+03 0. -1.
<mgrwt>
<rscale>  2 0.19039111E+03</rscale>
<asrwt>0</asrwt>
<pdfrwt beam="1">  1       21 0.15331784E+00 0.19039111E+03</pdfrwt>
<pdfrwt beam="2">  1       21 0.56494541E-02 0.19039111E+03</pdfrwt>
<totfact> 0.61732532E+04</totfact>
</mgrwt>
</event>
<event>
 4    2  0.3944631E+000  0.2169647E+03  0.7546771E-02  0.1136166E+00
         21   -1    0    0  501  502  0.00000000000E+00  0.00000000000E+00  0.19852490506E+03  0.19852490506E+03  0.00000000000E+00 0.  1.
         21   -1    0    0  502  503 -0.00000000000E+00 -0.00000000000E+00 -0.44172076645E+03  0.44172076645E+03  0.00000000000E+00 0.  1.
          6    1    1    2  501    0  0.12050060593E+03  0.51227778127E+02  0.96272997836E+02  0.23736505934E+03  0.17300000000E+03 0.  1.
         -6    1    1    2    0  503 -0.12050060593E+03 -0.51227778127E+02 -0.33946885923E+03  0.40288061218E+03  0.17300000000E+03 0.  1.
<mgrwt>
<rscale>  2 0.21696470E+03</rscale>
<asrwt>0</asrwt>
<pdfrwt beam="1">  1       21 0.30542294E-01 0.21696470E+03</pdfrwt>
<pdfrwt beam="2">  1       21 0.67957040E-01 0.21696470E+03</pdfrwt>
<totfact> 0.20060582E+04</totfact>
</mgrwt>
</event>
<event>
 4    2  0.3944631E+000  0.2213653E+03  0.7546771E-02  0.1132869E+00
         21   -1    0    0  503  502  0.00000000000E+00  0.00000000000E+00  0.12385975118E+03  0.12385975118E+03  0.00000000000E+00 0.  1.
         21   -1    0    0  501  503 -0.00000000000E+00 -0.00000000000E+00 -0.43073050779E+03  0.43073050779E+03  0.00000000000E+00 0.  1.
          6    1    1    2  501    0 -0.68244609340E+02 -0.12006772814E+03 -0.23259404813E+03  0.32109590043E+03  0.17300000000E+03 0.  1.
         -6    1    1    2    0  502  0.68244609340E+02  0.12006772814E+03 -0.74276708480E+02  0.23349435854E+03  0.17300000000E+03 0.  1.
<mgrwt>
<rscale>  2 0.22136528E+03</rscale>
<asrwt>0</asrwt>
<pdfrwt beam="1">  1       21 0.19055347E-01 0.22136528E+03</pdfrwt>
<pdfrwt beam="2">  1       21 0.66266231E-01 0.22136528E+03</pdfrwt>
<totfact> 0.52076948E+04</totfact>
</mgrwt>
</event>
<event>
 4    2  0.3944631E+000  0.1870726E+03  0.7546771E-02  0.1161128E+00
         21   -1    0    0  503  502  0.00000000000E+00  0.00000000000E+00  0.82361057226E+02  0.82361057226E+02  0.00000000000E+00 0. -1.
         21   -1    0    0  501  503 -0.00000000000E+00 -0.00000000000E+00 -0.66097450594E+03  0.66097450594E+03  0.00000000000E+00 0. -1.
          6    1    1    2  501    0  0.67883024099E+02  0.21425452241E+02 -0.51142105911E+03  0.54456189241E+03  0.17300000000E+03 0. -1.
         -6    1    1    2    0  502 -0.67883024099E+02 -0.21425452241E+02 -0.67192389603E+02  0.19877367075E+03  0.17300000000E+03 0. -1.
<mgrwt>
<rscale>  2 0.18707259E+03</rscale>
<asrwt>0</asrwt>
<pdfrwt beam="1">  1       21 0.12670931E-01 0.18707259E+03</pdfrwt>
<pdfrwt beam="2">  1       21 0.10168839E+00 0.18707259E+03</pdfrwt>
<totfact> 0.42112894E+04</totfact>
</mgrwt>
</event>
<event>
 4    2  0.3944631E+000  0.1731191E+03  0.7546771E-02  0.1174634E+00
         21   -1    0    0  501  502  0.00000000000E+00  0.00000000000E+00  0.79896637541E+03  0.79896637541E+03  0.00000000000E+00 0.  1.
         21   -1    0    0  502  503 -0.00000000000E+00 -0.00000000000E+00 -0.62884745053E+02  0.62884745053E+02  0.00000000000E+00 0.  1.
          6    1    1    2  501    0 -0.17514429759E+01 -0.61771881918E+01  0.64176916112E+03  0.66470886964E+03  0.17300000000E+03 0.  1.
         -6    1    1    2    0  503  0.17514429759E+01  0.61771881918E+01  0.94312469231E+02  0.19714225082E+03  0.17300000000E+03 0.  1.
<mgrwt>
<rscale>  2 0.17311911E+03</rscale>
<asrwt>0</asrwt>
<pdfrwt beam="1">  1       21 0.12291790E+00 0.17311911E+03</pdfrwt>
<pdfrwt beam="2">  1       21 0.96745767E-02 0.17311911E+03</pdfrwt>
<totfact> 0.43256022E+04</totfact>
</mgrwt>
</event>
<event>
 4    2  0.3944631E+000  0.2190415E+03  0.7546771E-02  0.1134600E+00
         21   -1    0    0  501  502  0.00000000000E+00  0.00000000000E+00  0.17177378478E+03  0.17177378478E+03  0.00000000000E+00 0.  1.
         21   -1    0    0  502  503 -0.00000000000E+00 -0.00000000000E+00 -0.34324758145E+03  0.34324758145E+03  0.00000000000E+00 0. -1.
          6    1    1    2  501    0  0.13364223291E+03 -0.13781442593E+02  0.25397645572E+02  0.22050899070E+03  0.17300000000E+03 0.  1.
         -6    1    1    2    0  503 -0.13364223291E+03  0.13781442593E+02 -0.19687144224E+03  0.29451237554E+03  0.17300000000E+03 0. -1.
<mgrwt>
<rscale>  2 0.21904149E+03</rscale>
<asrwt>0</asrwt>
<pdfrwt beam="1">  1       21 0.26426736E-01 0.21904149E+03</pdfrwt>
<pdfrwt beam="2">  1       21 0.52807320E-01 0.21904149E+03</pdfrwt>
<totfact> 0.45697983E+04</totfact>
</mgrwt>
</event>
<event>
 4    2  0.3944631E+000  0.2207294E+03  0.7546771E-02  0.1133340E+00
         21   -1    0    0  503  502  0.00000000000E+00  0.00000000000E+00  0.31770023002E+03  0.31770023002E+03  0.00000000000E+00 0. -1.
         21   -1    0    0  501  503 -0.00000000000E+00 -0.00000000000E+00 -0.31992526261E+03  0.31992526261E+03  0.00000000000E+00 0. -1.
          6    1    1    2  501    0  0.12790998690E+03  0.49310341962E+02 -0.23115490228E+03  0.31961549309E+03  0.17300000000E+03 0. -1.
         -6    1    1    2    0  502 -0.12790998690E+03 -0.49310341962E+02  0.22892986969E+03  0.31800999954E+03  0.17300000000E+03 0. -1.
<mgrwt>
<rscale>  2 0.22072941E+03</rscale>
<asrwt>0</asrwt>
<pdfrwt beam="1">  1       21 0.48876958E-01 0.22072941E+03</pdfrwt>
<pdfrwt beam="2">  1       21 0.49219271E-01 0.22072941E+03</pdfrwt>
<totfact> 0.15461512E+04</totfact>
</mgrwt>
</event>
<event>
 4    2  0.3944631E+000  0.1857316E+03  0.7546771E-02  0.1162368E+00
         21   -1    0    0  501  502  0.00000000000E+00  0.00000000000E+00  0.23628409180E+03  0.23628409180E+03  0.00000000000E+00 0. -1.
         21   -1    0    0  502  503 -0.00000000000E+00 -0.00000000000E+00 -0.16544469617E+03  0.16544469617E+03  0.00000000000E+00 0. -1.
          6    1    1    2  501    0  0.40983363080E+02 -0.53736220136E+02  0.10429074045E+03  0.21300886354E+03  0.17300000000E+03 0. -1.
         -6    1    1    2    0  503 -0.40983363080E+02  0.53736220136E+02 -0.33451344825E+02  0.18871992442E+03  0.17300000000E+03 0. -1.
<mgrwt>
<rscale>  2 0.18573157E+03</rscale>
<asrwt>0</asrwt>
<pdfrwt beam="1">  1       21 0.36351399E-01 0.18573157E+03</pdfrwt>
<pdfrwt beam="2">  1       21 0.25453030E-01 0.18573157E+03</pdfrwt>
<totfact> 0.10708281E+05</totfact>
</mgrwt>
</event>
<event>
 4    2  0.3944631E+000  0.2412366E+03  0.7546771E-02  0.1118972E+00
         21   -1    0    0  501  502  0.00000000000E+00  0.00000000000E+00  0.29106067425E+03  0.29106067425E+03  0.00000000000E+00 0. -1.
         21   -1    0    0  502  503 -0.00000000000E+00 -0.00000000000E+00 -0.26082216191E+03  0.26082216191E+03  0.00000000000E+00 0. -1.
          6    1    1    2  501    0  0.15137879846E+03 -0.73147354107E+02 -0.11819749408E+03  0.26863678758E+03  0.17300000000E+03 0. -1.
         -6    1    1    2    0  503 -0.15137879846E+03  0.73147354107E+02  0.14843600641E+03  0.28324604858E+03  0.17300000000E+03 0. -1.
<mgrwt>
<rscale>  2 0.24123656E+03</rscale>
<asrwt>0</asrwt>
<pdfrwt beam="1">  1       21 0.44778565E-01 0.24123656E+03</pdfrwt>
<pdfrwt beam="2">  1       21 0.40126486E-01 0.24123656E+03</pdfrwt>
<totfact> 0.27939140E+04</totfact>
</mgrwt>
</event>
<event>
 4    2  0.3944631E+000  0.1978506E+03  0.7546771E-02  0.1151565E+00
         21   -1    0    0  503  502  0.00000000000E+00  0.00000000000E+00  0.10426736178E+03  0.10426736178E+03  0.00000000000E+00 0.  1.
         21   -1    0    0  501  503 -0.00000000000E+00 -0.00000000000E+00 -0.41456181460E+03  0.41456181460E+03  0.00000000000E+00 0.  1.
          6    1    1    2  501    0  0.36804534912E+02  0.88663884173E+02 -0.23485072386E+03  0.30708259581E+03  0.17300000000E+03 0.  1.
         -6    1    1    2    0  502 -0.36804534912E+02 -0.88663884173E+02 -0.75443728949E+02  0.21174658057E+03  0.17300000000E+03 0.  1.
<mgrwt>
<rscale>  2 0.19785060E+03</rscale>
<asrwt>0</asrwt>
<pdfrwt beam="1">  1       21 0.16041132E-01 0.19785060E+03</pdfrwt>
<pdfrwt beam="2">  1       21 0.63778742E-01 0.19785060E+03</pdfrwt>
<totfact> 0.78642579E+04</totfact>
</mgrwt>
</event>
<event>
 4    2  0.3944631E+000  0.2260309E+03  0.7546771E-02  0.1129465E+00
         21   -1    0    0  501  502  0.00000000000E+00  0.00000000000E+00  0.44696366682E+03  0.44696366682E+03  0.00000000000E+00 0. -1.
         21   -1    0    0  502  503 -0.00000000000E+00 -0.00000000000E+00 -0.14525562263E+03  0.14525562263E+03  0.00000000000E+00 0. -1.
          6    1    1    2  501    0 -0.92777140455E+02 -0.11204173563E+03  0.28754014950E+03  0.36574483713E+03  0.17300000000E+03 0. -1.
         -6    1    1    2    0  503  0.92777140455E+02  0.11204173563E+03  0.14167894690E+02  0.22647445232E+03  0.17300000000E+03 0. -1.
<mgrwt>
<rscale>  2 0.22603086E+03</rscale>
<asrwt>0</asrwt>
<pdfrwt beam="1">  1       21 0.68763640E-01 0.22603086E+03</pdfrwt>
<pdfrwt beam="2">  1       21 0.22347019E-01 0.22603086E+03</pdfrwt>
<totfact> 0.35502649E+04</totfact>
</mgrwt>
</event>
<event>
 4    2  0.3944631E+000  0.2133138E+03  0.7546771E-02  0.1138968E+00
         21   -1    0    0  503  502  0.00000000000E+00  0.00000000000E+00  0.11772004397E+03  0.11772004397E+03  0.00000000000E+00 0. -1.
         21   -1    0    0  501  503 -0.00000000000E+00 -0.00000000000E+00 -0.13754989613E+04  0.13754989613E+04  0.00000000000E+00 0. -1.
          6    1    1    2  501    0 -0.64270229055E+02 -0.10697251645E+03 -0.12619625665E+04  0.12798641728E+04  0.17300000000E+03 0. -1.
         -6    1    1    2    0  502  0.64270229055E+02  0.10697251645E+03  0.41836491622E+01  0.21335483247E+03  0.17300000000E+03 0. -1.
<mgrwt>
<rscale>  2 0.21331381E+03</rscale>
<asrwt>0</asrwt>
<pdfrwt beam="1">  1       21 0.18110776E-01 0.21331381E+03</pdfrwt>
<pdfrwt beam="2">  1       21 0.21161523E+00 0.21331381E+03</pdfrwt>
<totfact> 0.30842060E+03</totfact>
</mgrwt>
</event>
<event>
 4    2  0.3944631E+000  0.2471794E+03  0.7546771E-02  0.1115100E+00
         21   -1    0    0  503  502  0.00000000000E+00  0.00000000000E+00  0.96123788916E+03  0.96123788916E+03  0.00000000000E+00 0.  1.
         21   -1    0    0  501  503 -0.00000000000E+00 -0.00000000000E+00 -0.13227881830E+03  0.13227881830E+03  0.00000000000E+00 0.  1.
          6    1    1    2  501    0 -0.17574987324E+03  0.16752061071E+02  0.20400243683E+02  0.24801979646E+03  0.17300000000E+03 0.  1.
         -6    1    1    2    0  502  0.17574987324E+03 -0.16752061071E+02  0.80855882718E+03  0.84549691100E+03  0.17300000000E+03 0.  1.
<mgrwt>
<rscale>  2 0.24717939E+03</rscale>
<asrwt>0</asrwt>
<pdfrwt beam="1">  1       21 0.14788275E+00 0.24717939E+03</pdfrwt>
<pdfrwt beam="2">  1       21 0.20350588E-01 0.24717939E+03</pdfrwt>
<totfact> 0.66631580E+03</totfact>
</mgrwt>
</event>
<event>
 4    2  0.3944631E+000  0.1748785E+03  0.7546771E-02  0.1172854E+00
         21   -1    0    0  503  502  0.00000000000E+00  0.00000000000E+00  0.67797901934E+03  0.67797901934E+03  0.00000000000E+00 0. -1.
         21   -1    0    0  501  503 -0.00000000000E+00 -0.00000000000E+00 -0.48264942002E+02  0.48264942002E+02  0.00000000000E+00 0. -1.
          6    1    1    2  501    0  0.15245114554E+02  0.20519908085E+02  0.22199260890E+03  0.28260077593E+03  0.17300000000E+03 0.  1.
         -6    1    1    2    0  502 -0.15245114554E+02 -0.20519908085E+02  0.40772146843E+03  0.44364318542E+03  0.17300000000E+03 0.  1.
<mgrwt>
<rscale>  2 0.17487847E+03</rscale>
<asrwt>0</asrwt>
<pdfrwt beam="1">  1       21 0.10430446E+00 0.17487847E+03</pdfrwt>
<pdfrwt beam="2">  1       21 0.74253762E-02 0.17487847E+03</pdfrwt>
<totfact> 0.10215219E+05</totfact>
</mgrwt>
</event>
<event>
 4    2  0.3944631E+000  0.2039726E+03  0.7546771E-02  0.1146430E+00
         21   -1    0    0  503  502  0.00000000000E+00  0.00000000000E+00  0.21411019806E+03  0.21411019806E+03  0.00000000000E+00 0. -1.
         21   -1    0    0  501  503 -0.00000000000E+00 -0.00000000000E+00 -0.32692157951E+03  0.32692157951E+03  0.00000000000E+00 0.  1.
          6    1    1    2  501    0 -0.10787920816E+03 -0.61545956109E+01 -0.22869315446E+03  0.30643981709E+03  0.17300000000E+03 0.  1.
         -6    1    1    2    0  502  0.10787920816E+03  0.61545956109E+01  0.11588177301E+03  0.23459196047E+03  0.17300000000E+03 0. -1.
<mgrwt>
<rscale>  2 0.20397255E+03</rscale>
<asrwt>0</asrwt>
<pdfrwt beam="1">  1       21 0.32940031E-01 0.20397255E+03</pdfrwt>
<pdfrwt beam="2">  1       21 0.50295627E-01 0.20397255E+03</pdfrwt>
<totfact> 0.33191322E+04</totfact>
</mgrwt>
</event>
<event>
 4    2  0.3944631E+000  0.2306106E+03  0.7546771E-02  0.1126211E+00
         21   -1    0    0  503  502  0.00000000000E+00  0.00000000000E+00  0.28906009251E+03  0.28906009251E+03  0.00000000000E+00 0.  1.
         21   -1    0    0  501  503 -0.00000000000E+00 -0.00000000000E+00 -0.79255543193E+03  0.79255543193E+03  0.00000000000E+00 0. -1.
          6    1    1    2  501    0 -0.13083809604E+03 -0.78317587464E+02 -0.72564616587E+03  0.76140896365E+03  0.17300000000E+03 0. -1.
         -6    1    1    2    0  502  0.13083809604E+03  0.78317587464E+02  0.22215082645E+03  0.32020656079E+03  0.17300000000E+03 0.  1.
<mgrwt>
<rscale>  2 0.23061061E+03</rscale>
<asrwt>0</asrwt>
<pdfrwt beam="1">  1       21 0.44470783E-01 0.23061061E+03</pdfrwt>
<pdfrwt beam="2">  1       21 0.12193161E+00 0.23061061E+03</pdfrwt>
<totfact> 0.23860978E+03</totfact>
</mgrwt>
</event>
<event>
 4    2  0.3944631E+000  0.1785865E+03  0.7546771E-02  0.1169178E+00
         21   -1    0    0  501  502  0.00000000000E+00  0.00000000000E+00  0.12488534819E+03  0.12488534819E+03  0.00000000000E+00 0.  1.
         21   -1    0    0  502  503 -0.00000000000E+00 -0.00000000000E+00 -0.31242638349E+03  0.31242638349E+03  0.00000000000E+00 0. -1.
          6    1    1    2  501    0 -0.93116160179E+01 -0.43329236108E+02 -0.33669361892E+00  0.17858679194E+03  0.17300000000E+03 0.  1.
         -6    1    1    2    0  503  0.93116160179E+01  0.43329236108E+02 -0.18720434169E+03  0.25872493974E+03  0.17300000000E+03 0. -1.
<mgrwt>
<rscale>  2 0.17858647E+03</rscale>
<asrwt>0</asrwt>
<pdfrwt beam="1">  1       21 0.19213131E-01 0.17858647E+03</pdfrwt>
<pdfrwt beam="2">  1       21 0.48065597E-01 0.17858647E+03</pdfrwt>
<totfact> 0.10343862E+05</totfact>
</mgrwt>
</event>
<event>
 4    2  0.3944631E+000  0.2117004E+03  0.7546771E-02  0.1140227E+00
         21   -1    0    0  501  502  0.00000000000E+00  0.00000000000E+00  0.17955651188E+03  0.17955651188E+03  0.00000000000E+00 0. -1.
         21   -1    0    0  502  503 -0.00000000000E+00 -0.00000000000E+00 -0.79387411901E+03  0.79387411901E+03  0.00000000000E+00 0. -1.
          6    1    1    2  501    0  0.60531190716E+01  0.12186636433E+03 -0.71016209895E+03  0.74104470701E+03  0.17300000000E+03 0. -1.
         -6    1    1    2    0  503 -0.60531190716E+01 -0.12186636433E+03  0.95844491820E+02  0.23238592388E+03  0.17300000000E+03 0. -1.
<mgrwt>
<rscale>  2 0.21170038E+03</rscale>
<asrwt>0</asrwt>
<pdfrwt beam="1">  1       21 0.27624079E-01 0.21170038E+03</pdfrwt>
<pdfrwt beam="2">  1       21 0.12213448E+00 0.21170038E+03</pdfrwt>
<totfact> 0.62294748E+03</totfact>
</mgrwt>
</event>
<event>
 4    2  0.3944631E+000  0.2280906E+03  0.7546771E-02  0.1127991E+00
         21   -1    0    0  501  502  0.00000000000E+00  0.00000000000E+00  0.14730743698E+03  0.14730743698E+03  0.00000000000E+00 0. -1.
         21   -1    0    0  502  503 -0.00000000000E+00 -0.00000000000E+00 -0.35326792775E+03  0.35326792775E+03  0.00000000000E+00 0.  1.
          6    1    1    2  501    0  0.14573324750E+03 -0.29294396244E+02 -0.98926355175E+02  0.24861971930E+03  0.17300000000E+03 0. -1.
         -6    1    1    2    0  503 -0.14573324750E+03  0.29294396244E+02 -0.10703413560E+03  0.25195564542E+03  0.17300000000E+03 0. -1.
<mgrwt>
<rscale>  2 0.22809064E+03</rscale>
<asrwt>0</asrwt>
<pdfrwt beam="1">  1       21 0.22662683E-01 0.22809064E+03</pdfrwt>
<pdfrwt beam="2">  1       21 0.54348911E-01 0.22809064E+03</pdfrwt>
<totfact> 0.57453805E+04</totfact>
</mgrwt>
</event>
<event>
 4    2  0.3944631E+000  0.2003478E+03  0.7546771E-02  0.1149446E+00
         21   -1    0    0  503  502  0.00000000000E+00  0.00000000000E+00  0.10198215883E+03  0.10198215883E+03  0.00000000000E+00 0. -1.
         21   -1    0    0  501  503 -0.00000000000E+00 -0.00000000000E+00 -0.67752780276E+03  0.67752780276E+03  0.00000000000E+00 0. -1.
          6    1    1    2  501    0  0.46726441300E+02  0.89592770440E+02 -0.54008558517E+03  0.57604831754E+03  0.17300000000E+03 0. -1.
         -6    1    1    2    0  502 -0.46726441300E+02 -0.89592770440E+02 -0.35460058761E+02  0.20346164405E+03  0.17300000000E+03 0. -1.
<mgrwt>
<rscale>  2 0.20034776E+03</rscale>
<asrwt>0</asrwt>
<pdfrwt beam="1">  1       21 0.15689564E-01 0.20034776E+03</pdfrwt>
<pdfrwt beam="2">  1       21 0.10423504E+00 0.20034776E+03</pdfrwt>
<totfact> 0.26749873E+04</totfact>
</mgrwt>
</event>
<event>
 4    2  0.3944631E+000  0.2026076E+03  0.7546771E-02  0.1147557E+00
         21   -1    0    0  501  502  0.00000000000E+00  0.00000000000E+00  0.49311751440E+03  0.49311751440E+03  0.00000000000E+00 0. -1.
         21   -1    0    0  502  503 -0.00000000000E+00 -0.00000000000E+00 -0.84811870769E+02  0.84811870769E+02  0.00000000000E+00 0. -1.
          6    1    1    2  501    0  0.88890797374E+02 -0.56738568311E+02  0.16488319887E+03  0.26122080365E+03  0.17300000000E+03 0. -1.
         -6    1    1    2    0  503 -0.88890797374E+02  0.56738568311E+02  0.24342244476E+03  0.31670858152E+03  0.17300000000E+03 0. -1.
<mgrwt>
<rscale>  2 0.20260760E+03</rscale>
<asrwt>0</asrwt>
<pdfrwt beam="1">  1       21 0.75864231E-01 0.20260760E+03</pdfrwt>
<pdfrwt beam="2">  1       21 0.13047980E-01 0.20260760E+03</pdfrwt>
<totfact> 0.77906841E+04</totfact>
</mgrwt>
</event>
<event>
 4    2  0.3944631E+000  0.1735640E+03  0.7546771E-02  0.1174181E+00
         21   -1    0    0  503  502  0.00000000000E+00  0.00000000000E+00  0.55179379443E+02  0.55179379443E+02  0.00000000000E+00 0. -1.
         21   -1    0    0  501  503 -0.00000000000E+00 -0.00000000000E+00 -0.57909037316E+03  0.57909037316E+03  0.00000000000E+00 0. -1.
          6    1    1    2  501    0 -0.10431463602E+02 -0.93091948328E+01 -0.33783654285E+03  0.37981312014E+03  0.17300000000E+03 0.  1.
         -6    1    1    2    0  502  0.10431463602E+02  0.93091948328E+01 -0.18607445086E+03  0.25445663246E+03  0.17300000000E+03 0.  1.
<mgrwt>
<rscale>  2 0.17356404E+03</rscale>
<asrwt>0</asrwt>
<pdfrwt beam="1">  1       21 0.84891353E-02 0.17356404E+03</pdfrwt>
<pdfrwt beam="2">  1       21 0.89090827E-01 0.17356404E+03</pdfrwt>
<totfact> 0.11723764E+05</totfact>
</mgrwt>
</event>
<event>
 4    2  0.3944631E+000  0.2721849E+03  0.7546771E-02  0.1100036E+00
         21   -1    0    0  503  502  0.00000000000E+00  0.00000000000E+00  0.17200607315E+04  0.17200607315E+04  0.00000000000E+00 0. -1.
         21   -1    0    0  501  503 -0.00000000000E+00 -0.00000000000E+00 -0.44772022370E+02  0.44772022370E+02  0.00000000000E+00 0.  1.
          6    1    1    2  501    0 -0.51930376432E+02 -0.20361444635E+03  0.10096468668E+04  0.10456918296E+04  0.17300000000E+03 0. -1.
         -6    1    1    2    0  502  0.51930376432E+02  0.20361444635E+03  0.66564184227E+03  0.71914092426E+03  0.17300000000E+03 0.  1.
<mgrwt>
<rscale>  2 0.27218488E+03</rscale>
<asrwt>0</asrwt>
<pdfrwt beam="1">  1       21 0.26462468E+00 0.27218488E+03</pdfrwt>
<pdfrwt beam="2">  1       21 0.68880048E-02 0.27218488E+03</pdfrwt>
<totfact> 0.79319091E+03</totfact>
</mgrwt>
</event>
<event>
 4    2  0.3944631E+000  0.2422018E+03  0.7546771E-02  0.1118335E+00
         21   -1    0    0  501  502  0.00000000000E+00  0.00000000000E+00  0.15563262977E+04  0.15563262977E+04  0.00000000000E+00 0. -1.
         21   -1    0    0  502  503 -0.00000000000E+00 -0.00000000000E+00 -0.55771064181E+02  0.55771064181E+02  0.00000000000E+00 0.  1.
          6    1    1    2  501    0 -0.15239178313E+03 -0.74225849671E+02  0.12092002950E+04  0.12332181826E+04  0.17300000000E+03 0. -1.
         -6    1    1    2    0  503  0.15239178313E+03  0.74225849671E+02  0.29135493844E+03  0.37887917926E+03  0.17300000000E+03 0.  1.
<mgrwt>
<rscale>  2 0.24220184E+03</rscale>
<asrwt>0</asrwt>
<pdfrwt beam="1">  1       21 0.23943478E+00 0.24220184E+03</pdfrwt>
<pdfrwt beam="2">  1       21 0.85801649E-02 0.24220184E+03</pdfrwt>
<totfact> 0.78099192E+03</totfact>
</mgrwt>
</event>
<event>
 4    2  0.3944631E+000  0.2640491E+03  0.7546771E-02  0.1104735E+00
         21   -1    0    0  501  502  0.00000000000E+00  0.00000000000E+00  0.12054444832E+03  0.12054444832E+03  0.00000000000E+00 0.  1.
         21   -1    0    0  502  503 -0.00000000000E+00 -0.00000000000E+00 -0.57839382063E+03  0.57839382063E+03  0.00000000000E+00 0.  1.
          6    1    1    2  501    0  0.18334323135E+03  0.78601458440E+02 -0.22956527463E+03  0.34988876099E+03  0.17300000000E+03 0.  1.
         -6    1    1    2    0  503 -0.18334323135E+03 -0.78601458440E+02 -0.22828409769E+03  0.34904950796E+03  0.17300000000E+03 0.  1.
<mgrwt>
<rscale>  2 0.26404910E+03</rscale>
<asrwt>0</asrwt>
<pdfrwt beam="1">  1       21 0.18545300E-01 0.26404910E+03</pdfrwt>
<pdfrwt beam="2">  1       21 0.88983666E-01 0.26404910E+03</pdfrwt>
<totfact> 0.27633141E+04</totfact>
</mgrwt>
</event>
<event>
 4    2  0.3944631E+000  0.1805294E+03  0.7546771E-02  0.1167292E+00
         21   -1    0    0  503  502  0.00000000000E+00  0.00000000000E+00  0.43020451956E+03  0.43020451956E+03  0.00000000000E+00 0. -1.
         21   -1    0    0  501  503 -0.00000000000E+00 -0.00000000000E+00 -0.15905826806E+03  0.15905826806E+03  0.00000000000E+00 0. -1.
          6    1    1    2  501    0 -0.49594013600E+02 -0.14223462810E+02 -0.77646655743E+02  0.19651940420E+03  0.17300000000E+03 0. -1.
         -6    1    1    2    0  502  0.49594013600E+02  0.14223462810E+02  0.34879290724E+03  0.39274338342E+03  0.17300000000E+03 0. -1.
<mgrwt>
<rscale>  2 0.18052942E+03</rscale>
<asrwt>0</asrwt>
<pdfrwt beam="1">  1       21 0.66185310E-01 0.18052942E+03</pdfrwt>
<pdfrwt beam="2">  1       21 0.24470503E-01 0.18052942E+03</pdfrwt>
<totfact> 0.33272891E+04</totfact>
</mgrwt>
</event>
<event>
 4    2  0.3944631E+000  0.2196914E+03  0.7546771E-02  0.1134113E+00
         21   -1    0    0  503  502  0.00000000000E+00  0.00000000000E+00  0.27679278476E+03  0.27679278476E+03  0.00000000000E+00 0. -1.
         21   -1    0    0  501  503 -0.00000000000E+00 -0.00000000000E+00 -0.52645587382E+03  0.52645587382E+03  0.00000000000E+00 0. -1.
          6    1    1    2  501    0  0.45259734702E+02  0.12762006313E+03 -0.45327710896E+03  0.50371069237E+03  0.17300000000E+03 0. -1.
         -6    1    1    2    0  502 -0.45259734702E+02 -0.12762006313E+03  0.20361401990E+03  0.29953796621E+03  0.17300000000E+03 0. -1.
<mgrwt>
<rscale>  2 0.21969143E+03</rscale>
<asrwt>0</asrwt>
<pdfrwt beam="1">  1       21 0.42583506E-01 0.21969143E+03</pdfrwt>
<pdfrwt beam="2">  1       21 0.80993211E-01 0.21969143E+03</pdfrwt>
<totfact> 0.69595505E+03</totfact>
</mgrwt>
</event>
<event>
 4    2  0.3944631E+000  0.2920769E+03  0.7546771E-02  0.1089270E+00
         21   -1    0    0  503  502  0.00000000000E+00  0.00000000000E+00  0.61515978122E+03  0.61515978122E+03  0.00000000000E+00 0.  1.
         21   -1    0    0  501  503 -0.00000000000E+00 -0.00000000000E+00 -0.13970008035E+03  0.13970008035E+03  0.00000000000E+00 0. -1.
          6    1    1    2  501    0 -0.72215974904E+02  0.22397495818E+03  0.20544124257E+03  0.35709247132E+03  0.17300000000E+03 0.  1.
         -6    1    1    2    0  502  0.72215974904E+02 -0.22397495818E+03  0.27001845830E+03  0.39776739025E+03  0.17300000000E+03 0. -1.
<mgrwt>
<rscale>  2 0.29207692E+03</rscale>
<asrwt>0</asrwt>
<pdfrwt beam="1">  1       21 0.94639965E-01 0.29207692E+03</pdfrwt>
<pdfrwt beam="2">  1       21 0.21492320E-01 0.29207692E+03</pdfrwt>
<totfact> 0.17892189E+04</totfact>
</mgrwt>
</event>
<event>
 4    2  0.3944631E+000  0.1881753E+03  0.7546771E-02  0.1160118E+00
         21   -1    0    0  501  502  0.00000000000E+00  0.00000000000E+00  0.25445780834E+03  0.25445780834E+03  0.00000000000E+00 0. -1.
         21   -1    0    0  502  503 -0.00000000000E+00 -0.00000000000E+00 -0.52405407047E+03  0.52405407047E+03  0.00000000000E+00 0. -1.
          6    1    1    2  501    0  0.72358877827E+02 -0.15656262757E+02  0.19879626495E+03  0.27373322912E+03  0.17300000000E+03 0. -1.
         -6    1    1    2    0  503 -0.72358877827E+02  0.15656262757E+02 -0.46839252708E+03  0.50477864970E+03  0.17300000000E+03 0. -1.
<mgrwt>
<rscale>  2 0.18817525E+03</rscale>
<asrwt>0</asrwt>
<pdfrwt beam="1">  1       21 0.39147356E-01 0.18817525E+03</pdfrwt>
<pdfrwt beam="2">  1       21 0.80623702E-01 0.18817525E+03</pdfrwt>
<totfact> 0.85291109E+03</totfact>
</mgrwt>
</event>
<event>
 4    2  0.3944631E+000  0.2265096E+03  0.7546771E-02  0.1129121E+00
         21   -1    0    0  501  502  0.00000000000E+00  0.00000000000E+00  0.57337843177E+03  0.57337843177E+03  0.00000000000E+00 0.  1.
         21   -1    0    0  502  503 -0.00000000000E+00 -0.00000000000E+00 -0.92755790050E+02  0.92755790050E+02  0.00000000000E+00 0.  1.
          6    1    1    2  501    0  0.88415892173E+02  0.11644843376E+03  0.30289162516E+03  0.37821943935E+03  0.17300000000E+03 0.  1.
         -6    1    1    2    0  503 -0.88415892173E+02 -0.11644843376E+03  0.17773101656E+03  0.28791478246E+03  0.17300000000E+03 0.  1.
<mgrwt>
<rscale>  2 0.22650962E+03</rscale>
<asrwt>0</asrwt>
<pdfrwt beam="1">  1       21 0.88212064E-01 0.22650962E+03</pdfrwt>
<pdfrwt beam="2">  1       21 0.14270122E-01 0.22650962E+03</pdfrwt>
<totfact> 0.46483020E+04</totfact>
</mgrwt>
</event>
<event>
 4    2  0.3944631E+000  0.1823314E+03  0.7546771E-02  0.1165566E+00
         21   -1    0    0  503  502  0.00000000000E+00  0.00000000000E+00  0.52590367388E+02  0.52590367388E+02  0.00000000000E+00 0.  1.
         21   -1    0    0  501  503 -0.00000000000E+00 -0.00000000000E+00 -0.16354672600E+04  0.16354672600E+04  0.00000000000E+00 0.  1.
          6    1    1    2  501    0 -0.57293267656E+02 -0.57634894651E+01 -0.14525223388E+04  0.14639214053E+04  0.17300000000E+03 0.  1.
         -6    1    1    2    0  502  0.57293267656E+02  0.57634894651E+01 -0.13035455381E+03  0.22413622204E+03  0.17300000000E+03 0.  1.
<mgrwt>
<rscale>  2 0.18233139E+03</rscale>
<asrwt>0</asrwt>
<pdfrwt beam="1">  1       21 0.80908264E-02 0.18233139E+03</pdfrwt>
<pdfrwt beam="2">  1       21 0.25161033E+00 0.18233139E+03</pdfrwt>
<totfact> 0.77357253E+03</totfact>
</mgrwt>
</event>
<event>
 4    2  0.3944631E+000  0.1993810E+03  0.7546771E-02  0.1150262E+00
         21   -1    0    0  501  502  0.00000000000E+00  0.00000000000E+00  0.25723550953E+03  0.25723550953E+03  0.00000000000E+00 0.  1.
         21   -1    0    0  502  503 -0.00000000000E+00 -0.00000000000E+00 -0.18270324857E+03  0.18270324857E+03  0.00000000000E+00 0.  1.
          6    1    1    2  501    0 -0.26378798421E+02 -0.95540356135E+02 -0.49099651128E+02  0.20533771304E+03  0.17300000000E+03 0.  1.
         -6    1    1    2    0  503  0.26378798421E+02  0.95540356135E+02  0.12363191209E+03  0.23460104506E+03  0.17300000000E+03 0.  1.
<mgrwt>
<rscale>  2 0.19938104E+03</rscale>
<asrwt>0</asrwt>
<pdfrwt beam="1">  1       21 0.39574694E-01 0.19938104E+03</pdfrwt>
<pdfrwt beam="2">  1       21 0.28108192E-01 0.19938104E+03</pdfrwt>
<totfact> 0.74212389E+04</totfact>
</mgrwt>
</event>
<event>
 4    2  0.3944631E+000  0.2110815E+03  0.7546771E-02  0.1140712E+00
         21   -1    0    0  501  502  0.00000000000E+00  0.00000000000E+00  0.66788809208E+03  0.66788809208E+03  0.00000000000E+00 0. -1.
         21   -1    0    0  502  503 -0.00000000000E+00 -0.00000000000E+00 -0.66715904925E+02  0.66715904925E+02  0.00000000000E+00 0.  1.
          6    1    1    2  501    0 -0.12068844240E+03  0.77921424807E+01  0.29740567303E+03  0.36469926236E+03  0.17300000000E+03 0. -1.
         -6    1    1    2    0  503  0.12068844240E+03 -0.77921424807E+01  0.30376651412E+03  0.36990473465E+03  0.17300000000E+03 0.  1.
<mgrwt>
<rscale>  2 0.21108154E+03</rscale>
<asrwt>0</asrwt>
<pdfrwt beam="1">  1       21 0.10275201E+00 0.21108154E+03</pdfrwt>
<pdfrwt beam="2">  1       21 0.10263986E-01 0.21108154E+03</pdfrwt>
<totfact> 0.59093190E+04</totfact>
</mgrwt>
</event>
<event>
 4    2  0.3944631E+000  0.2029095E+03  0.7546771E-02  0.1147307E+00
         21   -1    0    0  501  502  0.00000000000E+00  0.00000000000E+00  0.86768181296E+02  0.86768181296E+02  0.00000000000E+00 0.  1.
         21   -1    0    0  502  503 -0.00000000000E+00 -0.00000000000E+00 -0.47596686155E+03  0.47596686155E+03  0.00000000000E+00 0.  1.
          6    1    1    2  501    0 -0.89261487521E+02  0.57233170821E+02 -0.21017340591E+03  0.29213885320E+03  0.17300000000E+03 0.  1.
         -6    1    1    2    0  503  0.89261487521E+02 -0.57233170821E+02 -0.17902527434E+03  0.27059618964E+03  0.17300000000E+03 0.  1.
<mgrwt>
<rscale>  2 0.20290946E+03</rscale>
<asrwt>0</asrwt>
<pdfrwt beam="1">  1       21 0.13348951E-01 0.20290946E+03</pdfrwt>
<pdfrwt beam="2">  1       21 0.73225672E-01 0.20290946E+03</pdfrwt>
<totfact> 0.80904921E+04</totfact>
</mgrwt>
</event>
<event>
 4    2  0.3944631E+000  0.1810440E+03  0.7546771E-02  0.1166796E+00
         21   -1    0    0  501  502  0.00000000000E+00  0.00000000000E+00  0.19525095807E+04  0.19525095807E+04  0.00000000000E+00 0. -1.
         21   -1    0    0  502  503 -0.00000000000E+00 -0.00000000000E+00 -0.17135704358E+02  0.17135704358E+02  0.00000000000E+00 0. -1.
          6    1    1    2  501    0 -0.70799524393E+00  0.53361314296E+02  0.11081580426E+04  0.11228495796E+04  0.17300000000E+03 0. -1.
         -6    1    1    2    0  503  0.70799524393E+00 -0.53361314296E+02  0.82721583375E+03  0.84679570542E+03  0.17300000000E+03 0. -1.
<mgrwt>
<rscale>  2 0.18104400E+03</rscale>
<asrwt>0</asrwt>
<pdfrwt beam="1">  1       21 0.30038591E+00 0.18104400E+03</pdfrwt>
<pdfrwt beam="2">  1       21 0.26362638E-02 0.18104400E+03</pdfrwt>
<totfact> 0.26906763E+04</totfact>
</mgrwt>
</event>
<event>
 4    2  0.3944631E+000  0.2753953E+03  0.7546771E-02  0.1098231E+00
         21   -1    0    0  503  502  0.00000000000E+00  0.00000000000E+00  0.20434047101E+03  0.20434047101E+03  0.00000000000E+00 0.  1.
         21   -1    0    0  501  503 -0.00000000000E+00 -0.00000000000E+00 -0.42584847839E+03  0.42584847839E+03  0.00000000000E+00 0. -1.
          6    1    1    2  501    0  0.13067543027E+03 -0.16981607374E+03  0.21657055136E+01  0.27540380763E+03  0.17300000000E+03 0.  1.
         -6    1    1    2    0  502 -0.13067543027E+03  0.16981607374E+03 -0.22367371289E+03  0.35478514176E+03  0.17300000000E+03 0. -1.
<mgrwt>
<rscale>  2 0.27539529E+03</rscale>
<asrwt>0</asrwt>
<pdfrwt beam="1">  1       21 0.31436996E-01 0.27539529E+03</pdfrwt>
<pdfrwt beam="2">  1       21 0.65515150E-01 0.27539529E+03</pdfrwt>
<totfact> 0.19957178E+04</totfact>
</mgrwt>
</event>
<event>
 4    2  0.3944631E+000  0.1817510E+03  0.7546771E-02  0.1166119E+00
         21   -1    0    0  501  502  0.00000000000E+00  0.00000000000E+00  0.23852361858E+03  0.23852361858E+03  0.00000000000E+00 0.  1.
         21   -1    0    0  502  503 -0.00000000000E+00 -0.00000000000E+00 -0.20802986559E+03  0.20802986559E+03  0.00000000000E+00 0.  1.
          6    1    1    2  501    0  0.52052437168E+02 -0.19874303946E+02  0.14433715284E+03  0.23209191684E+03  0.17300000000E+03 0.  1.
         -6    1    1    2    0  503 -0.52052437168E+02  0.19874303946E+02 -0.11384339985E+03  0.21446156733E+03  0.17300000000E+03 0.  1.
<mgrwt>
<rscale>  2 0.18175105E+03</rscale>
<asrwt>0</asrwt>
<pdfrwt beam="1">  1       21 0.36695942E-01 0.18175105E+03</pdfrwt>
<pdfrwt beam="2">  1       21 0.32004595E-01 0.18175105E+03</pdfrwt>
<totfact> 0.67562245E+04</totfact>
</mgrwt>
</event>
<event>
 4    2  0.3944631E+000  0.2600230E+03  0.7546771E-02  0.1107129E+00
         21   -1    0    0  501  502  0.00000000000E+00  0.00000000000E+00  0.17819626921E+03  0.17819626921E+03  0.00000000000E+00 0. -1.
         21   -1    0    0  502  503 -0.00000000000E+00 -0.00000000000E+00 -0.41584534450E+03  0.41584534450E+03  0.00000000000E+00 0. -1.
          6    1    1    2  501    0  0.45998689333E+02 -0.18859237165E+03 -0.30922641768E+02  0.26185524978E+03  0.17300000000E+03 0. -1.
         -6    1    1    2    0  503 -0.45998689333E+02  0.18859237165E+03 -0.20672643352E+03  0.33218636393E+03  0.17300000000E+03 0. -1.
<mgrwt>
<rscale>  2 0.26002300E+03</rscale>
<asrwt>0</asrwt>
<pdfrwt beam="1">  1       21 0.27414811E-01 0.26002300E+03</pdfrwt>
<pdfrwt beam="2">  1       21 0.63976207E-01 0.26002300E+03</pdfrwt>
<totfact> 0.27680087E+04</totfact>
</mgrwt>
</event>
<event>
 4    2  0.3944631E+000  0.1847044E+03  0.7546771E-02  0.1163326E+00
         21   -1    0    0  501  502  0.00000000000E+00  0.00000000000E+00  0.31845512817E+03  0.31845512817E+03  0.00000000000E+00 0.  1.
         21   -1    0    0  502  503 -0.00000000000E+00 -0.00000000000E+00 -0.17754379040E+03  0.17754379040E+03  0.00000000000E+00 0. -1.
          6    1    1    2  501    0  0.57904541171E+02 -0.28875381667E+02  0.22663748792E+03  0.29237009848E+03  0.17300000000E+03 0.  1.
         -6    1    1    2    0  503 -0.57904541171E+02  0.28875381667E+02 -0.85726150140E+02  0.20362882009E+03  0.17300000000E+03 0. -1.
<mgrwt>
<rscale>  2 0.18470442E+03</rscale>
<asrwt>0</asrwt>
<pdfrwt beam="1">  1       21 0.48993097E-01 0.18470442E+03</pdfrwt>
<pdfrwt beam="2">  1       21 0.27314429E-01 0.18470442E+03</pdfrwt>
<totfact> 0.50996352E+04</totfact>
</mgrwt>
</event>
<event>
 4    2  0.3944631E+000  0.2305095E+03  0.7546771E-02  0.1126282E+00
         21   -1    0    0  501  502  0.00000000000E+00  0.00000000000E+00  0.18285524912E+03  0.18285524912E+03  0.00000000000E+00 0.  1.
         21   -1    0    0  502  503 -0.00000000000E+00 -0.00000000000E+00 -0.40592824904E+03  0.40592824904E+03  0.00000000000E+00 0.  1.
          6    1    1    2  501    0  0.13436960627E+03 -0.71766508689E+02  0.45391663724E+02  0.23493621686E+03  0.17300000000E+03 0.  1.
         -6    1    1    2    0  503 -0.13436960627E+03  0.71766508689E+02 -0.26846466364E+03  0.35384728130E+03  0.17300000000E+03 0.  1.
<mgrwt>
<rscale>  2 0.23050949E+03</rscale>
<asrwt>0</asrwt>
<pdfrwt beam="1">  1       21 0.28131577E-01 0.23050949E+03</pdfrwt>
<pdfrwt beam="2">  1       21 0.62450500E-01 0.23050949E+03</pdfrwt>
<totfact> 0.28127213E+04</totfact>
</mgrwt>
</event>
<event>
 4    2  0.3944631E+000  0.1748937E+03  0.7546771E-02  0.1172838E+00
         21   -1    0    0  503  502  0.00000000000E+00  0.00000000000E+00  0.87776522560E+03  0.87776522560E+03  0.00000000000E+00 0.  1.
         21   -1    0    0  501  503 -0.00000000000E+00 -0.00000000000E+00 -0.34982195597E+02  0.34982195597E+02  0.00000000000E+00 0.  1.
          6    1    1    2  501    0  0.25657735973E+02 -0.69291784917E+00  0.39305791989E+03  0.43021195699E+03  0.17300000000E+03 0. -1.
         -6    1    1    2    0  502 -0.25657735973E+02  0.69291784917E+00  0.44972511012E+03  0.48253546421E+03  0.17300000000E+03 0. -1.
<mgrwt>
<rscale>  2 0.17489368E+03</rscale>
<asrwt>0</asrwt>
<pdfrwt beam="1">  1       21 0.13504079E+00 0.17489368E+03</pdfrwt>
<pdfrwt beam="2">  1       21 0.53818769E-02 0.17489368E+03</pdfrwt>
<totfact> 0.93952956E+04</totfact>
</mgrwt>
</event>
<event>
 4    2  0.3944631E+000  0.2225313E+03  0.7546771E-02  0.1132010E+00
         21   -1    0    0  503  502  0.00000000000E+00  0.00000000000E+00  0.21321960853E+03  0.21321960853E+03  0.00000000000E+00 0.  1.
         21   -1    0    0  501  503 -0.00000000000E+00 -0.00000000000E+00 -0.28169150402E+03  0.28169150402E+03  0.00000000000E+00 0.  1.
          6    1    1    2  501    0  0.65911455950E+02  0.12347815172E+03 -0.13790707535E+03  0.26179865433E+03  0.17300000000E+03 0.  1.
         -6    1    1    2    0  502 -0.65911455950E+02 -0.12347815172E+03  0.69435179853E+02  0.23311245822E+03  0.17300000000E+03 0.  1.
<mgrwt>
<rscale>  2 0.22253129E+03</rscale>
<asrwt>0</asrwt>
<pdfrwt beam="1">  1       21 0.32803017E-01 0.22253129E+03</pdfrwt>
<pdfrwt beam="2">  1       21 0.43337154E-01 0.22253129E+03</pdfrwt>
<totfact> 0.45132139E+04</totfact>
</mgrwt>
</event>
<event>
 4    2  0.3944631E+000  0.1899279E+03  0.7546771E-02  0.1158526E+00
         21   -1    0    0  501  502  0.00000000000E+00  0.00000000000E+00  0.17150059849E+03  0.17150059849E+03  0.00000000000E+00 0.  1.
         21   -1    0    0  502  503 -0.00000000000E+00 -0.00000000000E+00 -0.22683460831E+03  0.22683460831E+03  0.00000000000E+00 0.  1.
          6    1    1    2  501    0  0.65329075228E+02 -0.43309642141E+02  0.26048317546E+02  0.19170583721E+03  0.17300000000E+03 0.  1.
         -6    1    1    2    0  503 -0.65329075228E+02  0.43309642141E+02 -0.81382327369E+02  0.20662936960E+03  0.17300000000E+03 0.  1.
<mgrwt>
<rscale>  2 0.18992792E+03</rscale>
<asrwt>0</asrwt>
<pdfrwt beam="1">  1       21 0.26384707E-01 0.18992792E+03</pdfrwt>
<pdfrwt beam="2">  1       21 0.34897632E-01 0.18992792E+03</pdfrwt>
<totfact> 0.10824419E+05</totfact>
</mgrwt>
</event>
<event>
 4    2  0.3944631E+000  0.1829217E+03  0.7546771E-02  0.1165005E+00
         21   -1    0    0  503  502  0.00000000000E+00  0.00000000000E+00  0.53882831840E+02  0.53882831840E+02  0.00000000000E+00 0. -1.
         21   -1    0    0  501  503 -0.00000000000E+00 -0.00000000000E+00 -0.70884471118E+03  0.70884471118E+03  0.00000000000E+00 0. -1.
          6    1    1    2  501    0 -0.50501047964E+01  0.59210290659E+02 -0.46174565595E+03  0.49665824554E+03  0.17300000000E+03 0.  1.
         -6    1    1    2    0  502  0.50501047964E+01 -0.59210290659E+02 -0.19321622339E+03  0.26606929748E+03  0.17300000000E+03 0.  1.
<mgrwt>
<rscale>  2 0.18292174E+03</rscale>
<asrwt>0</asrwt>
<pdfrwt beam="1">  1       21 0.82896670E-02 0.18292174E+03</pdfrwt>
<pdfrwt beam="2">  1       21 0.10905302E+00 0.18292174E+03</pdfrwt>
<totfact> 0.75553116E+04</totfact>
</mgrwt>
</event>
<event>
 4    2  0.3944631E+000  0.2416793E+03  0.7546771E-02  0.1118679E+00
         21   -1    0    0  503  502  0.00000000000E+00  0.00000000000E+00  0.10524782358E+04  0.10524782358E+04  0.00000000000E+00 0. -1.
         21   -1    0    0  501  503 -0.00000000000E+00 -0.00000000000E+00 -0.59519284043E+02  0.59519284043E+02  0.00000000000E+00 0.  1.
          6    1    1    2  501    0 -0.16360378824E+03  0.41396611607E+02  0.64102587535E+03  0.68507156695E+03  0.17300000000E+03 0. -1.
         -6    1    1    2    0  502  0.16360378824E+03 -0.41396611607E+02  0.35193307638E+03  0.42692595287E+03  0.17300000000E+03 0.  1.
<mgrwt>
<rscale>  2 0.24167929E+03</rscale>
<asrwt>0</asrwt>
<pdfrwt beam="1">  1       21 0.16191971E+00 0.24167929E+03</pdfrwt>
<pdfrwt beam="2">  1       21 0.91568137E-02 0.24167929E+03</pdfrwt>
<totfact> 0.22396115E+04</totfact>
</mgrwt>
</event>
<event>
 4    2  0.3944631E+000  0.2842637E+03  0.7546771E-02  0.1093383E+00
         21   -1    0    0  503  502  0.00000000000E+00  0.00000000000E+00  0.37226222607E+03  0.37226222607E+03  0.00000000000E+00 0. -1.
         21   -1    0    0  501  503 -0.00000000000E+00 -0.00000000000E+00 -0.22112344456E+03  0.22112344456E+03  0.00000000000E+00 0. -1.
          6    1    1    2  501    0 -0.22533994645E+03 -0.99364389953E+01  0.35384262304E+02  0.28645744938E+03  0.17300000000E+03 0. -1.
         -6    1    1    2    0  502  0.22533994645E+03  0.99364389953E+01  0.11575451921E+03  0.30692822126E+03  0.17300000000E+03 0. -1.
<mgrwt>
<rscale>  2 0.28426365E+03</rscale>
<asrwt>0</asrwt>
<pdfrwt beam="1">  1       21 0.57271112E-01 0.28426365E+03</pdfrwt>
<pdfrwt beam="2">  1       21 0.34018991E-01 0.28426365E+03</pdfrwt>
<totfact> 0.22773238E+04</totfact>
</mgrwt>
</event>
<event>
 4    2  0.3944631E+000  0.2474685E+03  0.7546771E-02  0.1114915E+00
         21   -1    0    0  501  502  0.00000000000E+00  0.00000000000E+00  0.15463823132E+04  0.15463823132E+04  0.00000000000E+00 0. -1.
         21   -1    0    0  502  503 -0.00000000000E+00 -0.00000000000E+00 -0.53213113830E+02  0.53213113830E+02  0.00000000000E+00 0.  1.
          6    1    1    2  501    0  0.92081795137E+02 -0.15110455021E+03  0.11510760076E+04  0.11773770074E+04  0.17300000000E+03 0. -1.
         -6    1    1    2    0  503 -0.92081795137E+02  0.15110455021E+03  0.34209319177E+03  0.42221841971E+03  0.17300000000E+03 0.  1.
<mgrwt>
<rscale>  2 0.24746847E+03</rscale>
<asrwt>0</asrwt>
<pdfrwt beam="1">  1       21 0.23790494E+00 0.24746847E+03</pdfrwt>
<pdfrwt beam="2">  1       21 0.81866341E-02 0.24746847E+03</pdfrwt>
<totfact> 0.86286833E+03</totfact>
</mgrwt>
</event>
<event>
 4    2  0.3944631E+000  0.1948102E+03  0.7546771E-02  0.1154193E+00
         21   -1    0    0  501  502  0.00000000000E+00  0.00000000000E+00  0.37953700549E+03  0.37953700549E+03  0.00000000000E+00 0.  1.
         21   -1    0    0  502  503 -0.00000000000E+00 -0.00000000000E+00 -0.10133324192E+03  0.10133324192E+03  0.00000000000E+00 0.  1.
          6    1    1    2  501    0 -0.86877645320E+02  0.21777816156E+02  0.16675428370E+03  0.25643320703E+03  0.17300000000E+03 0.  1.
         -6    1    1    2    0  503  0.86877645320E+02 -0.21777816156E+02  0.11144947987E+03  0.22443704039E+03  0.17300000000E+03 0.  1.
<mgrwt>
<rscale>  2 0.19481016E+03</rscale>
<asrwt>0</asrwt>
<pdfrwt beam="1">  1       21 0.58390308E-01 0.19481016E+03</pdfrwt>
<pdfrwt beam="2">  1       21 0.15589730E-01 0.19481016E+03</pdfrwt>
<totfact> 0.10034639E+05</totfact>
</mgrwt>
</event>
<event>
 4    2  0.3944631E+000  0.1950894E+03  0.7546771E-02  0.1153950E+00
         21   -1    0    0  503  502  0.00000000000E+00  0.00000000000E+00  0.22257122343E+03  0.22257122343E+03  0.00000000000E+00 0.  1.
         21   -1    0    0  501  503 -0.00000000000E+00 -0.00000000000E+00 -0.17925855430E+03  0.17925855430E+03  0.00000000000E+00 0. -1.
          6    1    1    2  501    0  0.86355200030E+02  0.25954605691E+02 -0.21466031324E+02  0.19626678942E+03  0.17300000000E+03 0. -1.
         -6    1    1    2    0  502 -0.86355200030E+02 -0.25954605691E+02  0.64778700453E+02  0.20556298831E+03  0.17300000000E+03 0.  1.
<mgrwt>
<rscale>  2 0.19508937E+03</rscale>
<asrwt>0</asrwt>
<pdfrwt beam="1">  1       21 0.34241727E-01 0.19508937E+03</pdfrwt>
<pdfrwt beam="2">  1       21 0.27578239E-01 0.19508937E+03</pdfrwt>
<totfact> 0.10301617E+05</totfact>
</mgrwt>
</event>
<event>
 4    2  0.3944631E+000  0.1753268E+03  0.7546771E-02  0.1172404E+00
         21   -1    0    0  501  502  0.00000000000E+00  0.00000000000E+00  0.88799193101E+02  0.88799193101E+02  0.00000000000E+00 0.  1.
         21   -1    0    0  502  503 -0.00000000000E+00 -0.00000000000E+00 -0.67223348611E+03  0.67223348611E+03  0.00000000000E+00 0.  1.
          6    1    1    2  501    0  0.22610088722E+02 -0.17299912754E+02 -0.26705369130E+02  0.17734903392E+03  0.17300000000E+03 0.  1.
         -6    1    1    2    0  503 -0.22610088722E+02  0.17299912754E+02 -0.55672892388E+03  0.58368364529E+03  0.17300000000E+03 0.  1.
<mgrwt>
<rscale>  2 0.17532685E+03</rscale>
<asrwt>0</asrwt>
<pdfrwt beam="1">  1       21 0.13661415E-01 0.17532685E+03</pdfrwt>
<pdfrwt beam="2">  1       21 0.10342053E+00 0.17532685E+03</pdfrwt>
<totfact> 0.35552653E+04</totfact>
</mgrwt>
</event>
<event>
 4    2  0.3944631E+000  0.2066958E+03  0.7546771E-02  0.1144210E+00
         21   -1    0    0  501  502  0.00000000000E+00  0.00000000000E+00  0.10208755425E+03  0.10208755425E+03  0.00000000000E+00 0.  1.
         21   -1    0    0  502  503 -0.00000000000E+00 -0.00000000000E+00 -0.82878711208E+03  0.82878711208E+03  0.00000000000E+00 0. -1.
          6    1    1    2  501    0 -0.90064570172E+01 -0.11275213783E+03 -0.35868747048E+02  0.20978495625E+03  0.17300000000E+03 0.  1.
         -6    1    1    2    0  503  0.90064570172E+01  0.11275213783E+03 -0.69083081079E+03  0.72108971008E+03  0.17300000000E+03 0. -1.
<mgrwt>
<rscale>  2 0.20669582E+03</rscale>
<asrwt>0</asrwt>
<pdfrwt beam="1">  1       21 0.15705777E-01 0.20669582E+03</pdfrwt>
<pdfrwt beam="2">  1       21 0.12750571E+00 0.20669582E+03</pdfrwt>
<totfact> 0.16219164E+04</totfact>
</mgrwt>
</event>
<event>
 4    2  0.3944631E+000  0.2599232E+03  0.7546771E-02  0.1107189E+00
         21   -1    0    0  503  502  0.00000000000E+00  0.00000000000E+00  0.13087093750E+04  0.13087093750E+04  0.00000000000E+00 0. -1.
         21   -1    0    0  501  503 -0.00000000000E+00 -0.00000000000E+00 -0.62011825750E+02  0.62011825750E+02  0.00000000000E+00 0.  1.
          6    1    1    2  501    0 -0.10015942679E+03  0.16612996838E+03  0.34283386276E+03  0.43022684089E+03  0.17300000000E+03 0.  1.
         -6    1    1    2    0  502  0.10015942679E+03 -0.16612996838E+03  0.90386368645E+03  0.94049435982E+03  0.17300000000E+03 0. -1.
<mgrwt>
<rscale>  2 0.25992321E+03</rscale>
<asrwt>0</asrwt>
<pdfrwt beam="1">  1       21 0.20133988E+00 0.25992321E+03</pdfrwt>
<pdfrwt beam="2">  1       21 0.95402819E-02 0.25992321E+03</pdfrwt>
<totfact> 0.11048405E+04</totfact>
</mgrwt>
</event>
<event>
 4    2  0.3944631E+000  0.2463977E+03  0.7546771E-02  0.1115603E+00
         21   -1    0    0  501  502  0.00000000000E+00  0.00000000000E+00  0.29210232785E+03  0.29210232785E+03  0.00000000000E+00 0. -1.
         21   -1    0    0  502  503 -0.00000000000E+00 -0.00000000000E+00 -0.21720380284E+03  0.21720380284E+03  0.00000000000E+00 0.  1.
          6    1    1    2  501    0  0.14282572520E+03  0.10190018551E+03  0.90310711858E+02  0.26242686650E+03  0.17300000000E+03 0. -1.
         -6    1    1    2    0  503 -0.14282572520E+03 -0.10190018551E+03 -0.15412186851E+02  0.24687926419E+03  0.17300000000E+03 0.  1.
<mgrwt>
<rscale>  2 0.24639772E+03</rscale>
<asrwt>0</asrwt>
<pdfrwt beam="1">  1       21 0.44938820E-01 0.24639772E+03</pdfrwt>
<pdfrwt beam="2">  1       21 0.33415970E-01 0.24639772E+03</pdfrwt>
<totfact> 0.39957623E+04</totfact>
</mgrwt>
</event>
<event>
 4    2  0.3944631E+000  0.2970374E+03  0.7546771E-02  0.1086731E+00
         21   -1    0    0  501  502  0.00000000000E+00  0.00000000000E+00  0.22277664832E+03  0.22277664832E+03  0.00000000000E+00 0.  1.
         21   -1    0    0  502  503 -0.00000000000E+00 -0.00000000000E+00 -0.40345943230E+03  0.40345943230E+03  0.00000000000E+00 0.  1.
          6    1    1    2  501    0 -0.22555171804E+03 -0.86189481015E+02 -0.47915285380E+02  0.30087718212E+03  0.17300000000E+03 0.  1.
         -6    1    1    2    0  503  0.22555171804E+03  0.86189481015E+02 -0.13276749860E+03  0.32535889850E+03  0.17300000000E+03 0.  1.
<mgrwt>
<rscale>  2 0.29703738E+03</rscale>
<asrwt>0</asrwt>
<pdfrwt beam="1">  1       21 0.34273331E-01 0.29703738E+03</pdfrwt>
<pdfrwt beam="2">  1       21 0.62070682E-01 0.29703738E+03</pdfrwt>
<totfact> 0.18747853E+04</totfact>
</mgrwt>
</event>
<event>
 4    2  0.3944631E+000  0.1770474E+03  0.7546771E-02  0.1170692E+00
         21   -1    0    0  501  502  0.00000000000E+00  0.00000000000E+00  0.21099551910E+04  0.21099551910E+04  0.00000000000E+00 0. -1.
         21   -1    0    0  502  503 -0.00000000000E+00 -0.00000000000E+00 -0.61495056007E+02  0.61495056007E+02  0.00000000000E+00 0. -1.
          6    1    1    2  501    0 -0.12438515446E+02  0.35525380670E+02  0.19697573305E+04  0.19776980838E+04  0.17300000000E+03 0. -1.
         -6    1    1    2    0  503  0.12438515446E+02 -0.35525380670E+02  0.78702804490E+02  0.19375216327E+03  0.17300000000E+03 0. -1.
<mgrwt>
<rscale>  2 0.17704736E+03</rscale>
<asrwt>0</asrwt>
<pdfrwt beam="1">  1       21 0.32460844E+00 0.17704736E+03</pdfrwt>
<pdfrwt beam="2">  1       21 0.94607795E-02 0.17704736E+03</pdfrwt>
<totfact> 0.22498466E+03</totfact>
</mgrwt>
</event>
<event>
 4    2  0.3944631E+000  0.1932650E+03  0.7546771E-02  0.1155549E+00
         21   -1    0    0  501  502  0.00000000000E+00  0.00000000000E+00  0.97624202565E+02  0.97624202565E+02  0.00000000000E+00 0.  1.
         21   -1    0    0  502  503 -0.00000000000E+00 -0.00000000000E+00 -0.41897423252E+03  0.41897423252E+03  0.00000000000E+00 0.  1.
          6    1    1    2  501    0  0.77659112918E+02  0.37301678845E+02 -0.84571278707E+02  0.21095889231E+03  0.17300000000E+03 0.  1.
         -6    1    1    2    0  503 -0.77659112918E+02 -0.37301678845E+02 -0.23677875125E+03  0.30563954277E+03  0.17300000000E+03 0.  1.
<mgrwt>
<rscale>  2 0.19326498E+03</rscale>
<asrwt>0</asrwt>
<pdfrwt beam="1">  1       21 0.15019108E-01 0.19326498E+03</pdfrwt>
<pdfrwt beam="2">  1       21 0.64457574E-01 0.19326498E+03</pdfrwt>
<totfact> 0.86852551E+04</totfact>
</mgrwt>
</event>
<event>
 4    2  0.3944631E+000  0.2041051E+03  0.7546771E-02  0.1146321E+00
         21   -1    0    0  503  502  0.00000000000E+00  0.00000000000E+00  0.27535750985E+03  0.27535750985E+03  0.00000000000E+00 0.  1.
         21   -1    0    0  501  503 -0.00000000000E+00 -0.00000000000E+00 -0.26397076805E+03  0.26397076805E+03  0.00000000000E+00 0. -1.
          6    1    1    2  501    0  0.29122708084E+02  0.10431570460E+03 -0.17049196247E+03  0.26594436941E+03  0.17300000000E+03 0. -1.
         -6    1    1    2    0  502 -0.29122708084E+02 -0.10431570460E+03  0.18187870427E+03  0.27338390849E+03  0.17300000000E+03 0.  1.
<mgrwt>
<rscale>  2 0.20410512E+03</rscale>
<asrwt>0</asrwt>
<pdfrwt beam="1">  1       21 0.42362694E-01 0.20410512E+03</pdfrwt>
<pdfrwt beam="2">  1       21 0.40610887E-01 0.20410512E+03</pdfrwt>
<totfact> 0.31125561E+04</totfact>
</mgrwt>
</event>
<event>
 4    2  0.3944631E+000  0.2375238E+03  0.7546771E-02  0.1121453E+00
         21   -1    0    0  503  502  0.00000000000E+00  0.00000000000E+00  0.80735111515E+03  0.80735111515E+03  0.00000000000E+00 0. -1.
         21   -1    0    0  501  503 -0.00000000000E+00 -0.00000000000E+00 -0.10645071806E+03  0.10645071806E+03  0.00000000000E+00 0. -1.
          6    1    1    2  501    0  0.47879024690E+02  0.15555118109E+03  0.82647225113E+02  0.25149181848E+03  0.17300000000E+03 0. -1.
         -6    1    1    2    0  502 -0.47879024690E+02 -0.15555118109E+03  0.61825317198E+03  0.66231001473E+03  0.17300000000E+03 0. -1.
<mgrwt>
<rscale>  2 0.23752383E+03</rscale>
<asrwt>0</asrwt>
<pdfrwt beam="1">  1       21 0.12420786E+00 0.23752383E+03</pdfrwt>
<pdfrwt beam="2">  1       21 0.16377034E-01 0.23752383E+03</pdfrwt>
<totfact> 0.15745047E+04</totfact>
</mgrwt>
</event>
<event>
 4    2  0.3944631E+000  0.1888607E+03  0.7546771E-02  0.1159493E+00
         21   -1    0    0  501  502  0.00000000000E+00  0.00000000000E+00  0.46629803906E+02  0.46629803906E+02  0.00000000000E+00 0. -1.
         21   -1    0    0  502  503 -0.00000000000E+00 -0.00000000000E+00 -0.76497330445E+03  0.76497330445E+03  0.00000000000E+00 0.  1.
          6    1    1    2  501    0 -0.47281808178E+02 -0.59192762550E+02 -0.36236058620E+03  0.40862396767E+03  0.17300000000E+03 0. -1.
         -6    1    1    2    0  503  0.47281808178E+02  0.59192762550E+02 -0.35598291434E+03  0.40297914068E+03  0.17300000000E+03 0. -1.
<mgrwt>
<rscale>  2 0.18886067E+03</rscale>
<asrwt>0</asrwt>
<pdfrwt beam="1">  1       21 0.71738165E-02 0.18886067E+03</pdfrwt>
<pdfrwt beam="2">  1       21 0.11768819E+00 0.18886067E+03</pdfrwt>
<totfact> 0.80474005E+04</totfact>
</mgrwt>
</event>
<event>
 4    2  0.3944631E+000  0.1766461E+03  0.7546771E-02  0.1171089E+00
         21   -1    0    0  503  502  0.00000000000E+00  0.00000000000E+00  0.15145682892E+03  0.15145682892E+03  0.00000000000E+00 0.  1.
         21   -1    0    0  501  503 -0.00000000000E+00 -0.00000000000E+00 -0.44235237151E+03  0.44235237151E+03  0.00000000000E+00 0.  1.
          6    1    1    2  501    0  0.35697971065E+02 -0.70716165080E+00 -0.36246291958E+03  0.40321608758E+03  0.17300000000E+03 0.  1.
         -6    1    1    2    0  502 -0.35697971065E+02  0.70716165080E+00  0.71567376994E+02  0.19059311285E+03  0.17300000000E+03 0.  1.
<mgrwt>
<rscale>  2 0.17664610E+03</rscale>
<asrwt>0</asrwt>
<pdfrwt beam="1">  1       21 0.23301051E-01 0.17664610E+03</pdfrwt>
<pdfrwt beam="2">  1       21 0.68054211E-01 0.17664610E+03</pdfrwt>
<totfact> 0.34429808E+04</totfact>
</mgrwt>
</event>
<event>
 4    2  0.3944631E+000  0.1748423E+03  0.7546771E-02  0.1172890E+00
         21   -1    0    0  503  502  0.00000000000E+00  0.00000000000E+00  0.23935398363E+03  0.23935398363E+03  0.00000000000E+00 0.  1.
         21   -1    0    0  501  503 -0.00000000000E+00 -0.00000000000E+00 -0.75661866095E+03  0.75661866095E+03  0.00000000000E+00 0.  1.
          6    1    1    2  501    0  0.20058142761E+02  0.15443464703E+02 -0.71264701355E+03  0.73378170842E+03  0.17300000000E+03 0.  1.
         -6    1    1    2    0  502 -0.20058142761E+02 -0.15443464703E+02  0.19538233623E+03  0.26219093616E+03  0.17300000000E+03 0.  1.
<mgrwt>
<rscale>  2 0.17484230E+03</rscale>
<asrwt>0</asrwt>
<pdfrwt beam="1">  1       21 0.36823691E-01 0.17484230E+03</pdfrwt>
<pdfrwt beam="2">  1       21 0.11640287E+00 0.17484230E+03</pdfrwt>
<totfact> 0.41103664E+03</totfact>
</mgrwt>
</event>
<event>
 4    2  0.3944631E+000  0.2283289E+03  0.7546771E-02  0.1127822E+00
         21   -1    0    0  503  502  0.00000000000E+00  0.00000000000E+00  0.62769392478E+02  0.62769392478E+02  0.00000000000E+00 0.  1.
         21   -1    0    0  501  503 -0.00000000000E+00 -0.00000000000E+00 -0.84774427816E+03  0.84774427816E+03  0.00000000000E+00 0.  1.
          6    1    1    2  501    0  0.12105997539E+03 -0.86888251337E+02 -0.32768052270E+03  0.39938529119E+03  0.17300000000E+03 0.  1.
         -6    1    1    2    0  502 -0.12105997539E+03  0.86888251337E+02 -0.45729436298E+03  0.51112837945E+03  0.17300000000E+03 0.  1.
<mgrwt>
<rscale>  2 0.22832890E+03</rscale>
<asrwt>0</asrwt>
<pdfrwt beam="1">  1       21 0.96568291E-02 0.22832890E+03</pdfrwt>
<pdfrwt beam="2">  1       21 0.13042220E+00 0.22832890E+03</pdfrwt>
<totfact> 0.36276669E+04</totfact>
</mgrwt>
</event>
<event>
 4    2  0.3944631E+000  0.2471854E+03  0.7546771E-02  0.1115097E+00
         21   -1    0    0  503  502  0.00000000000E+00  0.00000000000E+00  0.36040528809E+03  0.36040528809E+03  0.00000000000E+00 0. -1.
         21   -1    0    0  501  503 -0.00000000000E+00 -0.00000000000E+00 -0.29343027171E+03  0.29343027171E+03  0.00000000000E+00 0.  1.
          6    1    1    2  501    0  0.17605468056E+03  0.13280434222E+02 -0.17894295935E+03  0.30515766938E+03  0.17300000000E+03 0.  1.
         -6    1    1    2    0  502 -0.17605468056E+03 -0.13280434222E+02  0.24591797574E+03  0.34867789042E+03  0.17300000000E+03 0. -1.
<mgrwt>
<rscale>  2 0.24718540E+03</rscale>
<asrwt>0</asrwt>
<pdfrwt beam="1">  1       21 0.55446967E-01 0.24718540E+03</pdfrwt>
<pdfrwt beam="2">  1       21 0.45143119E-01 0.24718540E+03</pdfrwt>
<totfact> 0.13979122E+04</totfact>
</mgrwt>
</event>
<event>
 4    2  0.3944631E+000  0.2667985E+03  0.7546771E-02  0.1103126E+00
         21   -1    0    0  501  502  0.00000000000E+00  0.00000000000E+00  0.13132702864E+03  0.13132702864E+03  0.00000000000E+00 0. -1.
         21   -1    0    0  502  503 -0.00000000000E+00 -0.00000000000E+00 -0.75664054477E+03  0.75664054477E+03  0.00000000000E+00 0. -1.
          6    1    1    2  501    0  0.81870882147E+02  0.18587520909E+03 -0.76194761029E+02  0.27746545065E+03  0.17300000000E+03 0. -1.
         -6    1    1    2    0  503 -0.81870882147E+02 -0.18587520909E+03 -0.54911875510E+03  0.61050212276E+03  0.17300000000E+03 0. -1.
<mgrwt>
<rscale>  2 0.26679849E+03</rscale>
<asrwt>0</asrwt>
<pdfrwt beam="1">  1       21 0.20204158E-01 0.26679849E+03</pdfrwt>
<pdfrwt beam="2">  1       21 0.11640624E+00 0.26679849E+03</pdfrwt>
<totfact> 0.12324356E+04</totfact>
</mgrwt>
</event>
<event>
 4    2  0.3944631E+000  0.1922519E+03  0.7546771E-02  0.1156446E+00
         21   -1    0    0  503  502  0.00000000000E+00  0.00000000000E+00  0.45646184105E+03  0.45646184105E+03  0.00000000000E+00 0.  1.
         21   -1    0    0  501  503 -0.00000000000E+00 -0.00000000000E+00 -0.17077499430E+03  0.17077499430E+03  0.00000000000E+00 0.  1.
          6    1    1    2  501    0 -0.54885216904E+02 -0.63398912659E+02 -0.84579307234E+02  0.21003444568E+03  0.17300000000E+03 0.  1.
         -6    1    1    2    0  502  0.54885216904E+02  0.63398912659E+02  0.37026615398E+03  0.41720238967E+03  0.17300000000E+03 0.  1.
<mgrwt>
<rscale>  2 0.19225194E+03</rscale>
<asrwt>0</asrwt>
<pdfrwt beam="1">  1       21 0.70224898E-01 0.19225194E+03</pdfrwt>
<pdfrwt beam="2">  1       21 0.26273076E-01 0.19225194E+03</pdfrwt>
<totfact> 0.25347553E+04</totfact>
</mgrwt>
</event>
<event>
 4    2  0.3944631E+000  0.2093907E+03  0.7546771E-02  0.1142049E+00
         21   -1    0    0  501  502  0.00000000000E+00  0.00000000000E+00  0.16723658603E+03  0.16723658603E+03  0.00000000000E+00 0.  1.
         21   -1    0    0  502  503 -0.00000000000E+00 -0.00000000000E+00 -0.45692610170E+03  0.45692610170E+03  0.00000000000E+00 0.  1.
          6    1    1    2  501    0  0.10714447016E+03 -0.49351260565E+02  0.58901622703E+02  0.21751755231E+03  0.17300000000E+03 0.  1.
         -6    1    1    2    0  503 -0.10714447016E+03  0.49351260565E+02 -0.34859113837E+03  0.40664513542E+03  0.17300000000E+03 0.  1.
<mgrwt>
<rscale>  2 0.20939075E+03</rscale>
<asrwt>0</asrwt>
<pdfrwt beam="1">  1       21 0.25728706E-01 0.20939075E+03</pdfrwt>
<pdfrwt beam="2">  1       21 0.70296323E-01 0.20939075E+03</pdfrwt>
<totfact> 0.26070140E+04</totfact>
</mgrwt>
</event>
<event>
 4    2  0.3944631E+000  0.2483094E+03  0.7546771E-02  0.1114378E+00
         21   -1    0    0  501  502  0.00000000000E+00  0.00000000000E+00  0.81700789339E+02  0.81700789339E+02  0.00000000000E+00 0. -1.
         21   -1    0    0  502  503 -0.00000000000E+00 -0.00000000000E+00 -0.11222415445E+04  0.11222415445E+04  0.00000000000E+00 0. -1.
          6    1    1    2  501    0 -0.40346385743E+02 -0.17349554512E+03 -0.17576138236E+03  0.30421965509E+03  0.17300000000E+03 0. -1.
         -6    1    1    2    0  503  0.40346385743E+02  0.17349554512E+03 -0.86477937276E+03  0.89972267871E+03  0.17300000000E+03 0. -1.
<mgrwt>
<rscale>  2 0.24830935E+03</rscale>
<asrwt>0</asrwt>
<pdfrwt beam="1">  1       21 0.12569352E-01 0.24830935E+03</pdfrwt>
<pdfrwt beam="2">  1       21 0.17265254E+00 0.24830935E+03</pdfrwt>
<totfact> 0.10613711E+04</totfact>
</mgrwt>
</event>
<event>
 4    2  0.3944631E+000  0.1953940E+03  0.7546771E-02  0.1153684E+00
         21   -1    0    0  503  502  0.00000000000E+00  0.00000000000E+00  0.85333487251E+02  0.85333487251E+02  0.00000000000E+00 0. -1.
         21   -1    0    0  501  503 -0.00000000000E+00 -0.00000000000E+00 -0.47139057387E+03  0.47139057387E+03  0.00000000000E+00 0. -1.
          6    1    1    2  501    0 -0.72231116641E+02 -0.55068017828E+02 -0.25581619521E+03  0.32190176534E+03  0.17300000000E+03 0. -1.
         -6    1    1    2    0  502  0.72231116641E+02  0.55068017828E+02 -0.13024089140E+03  0.23482229577E+03  0.17300000000E+03 0. -1.
<mgrwt>
<rscale>  2 0.19539401E+03</rscale>
<asrwt>0</asrwt>
<pdfrwt beam="1">  1       21 0.13128229E-01 0.19539401E+03</pdfrwt>
<pdfrwt beam="2">  1       21 0.72521626E-01 0.19539401E+03</pdfrwt>
<totfact> 0.85469412E+04</totfact>
</mgrwt>
</event>
<event>
 4    2  0.3944631E+000  0.2627025E+03  0.7546771E-02  0.1105530E+00
         21   -1    0    0  503  502  0.00000000000E+00  0.00000000000E+00  0.11262343459E+04  0.11262343459E+04  0.00000000000E+00 0.  1.
         21   -1    0    0  501  503 -0.00000000000E+00 -0.00000000000E+00 -0.83721004260E+02  0.83721004260E+02  0.00000000000E+00 0. -1.
          6    1    1    2  501    0 -0.78931486573E+02 -0.18125516061E+03  0.20802238586E+03  0.33509092175E+03  0.17300000000E+03 0. -1.
         -6    1    1    2    0  502  0.78931486573E+02  0.18125516061E+03  0.83449095577E+03  0.87486442841E+03  0.17300000000E+03 0.  1.
<mgrwt>
<rscale>  2 0.26270252E+03</rscale>
<asrwt>0</asrwt>
<pdfrwt beam="1">  1       21 0.17326681E+00 0.26270252E+03</pdfrwt>
<pdfrwt beam="2">  1       21 0.12880155E-01 0.26270252E+03</pdfrwt>
<totfact> 0.99664542E+03</totfact>
</mgrwt>
</event>
<event>
 4    2  0.3944631E+000  0.2229810E+03  0.7546771E-02  0.1131680E+00
         21   -1    0    0  503  502  0.00000000000E+00  0.00000000000E+00  0.76873747702E+02  0.76873747702E+02  0.00000000000E+00 0. -1.
         21   -1    0    0  501  503 -0.00000000000E+00 -0.00000000000E+00 -0.79565086833E+03  0.79565086833E+03  0.00000000000E+00 0. -1.
          6    1    1    2  501    0  0.68836658517E+02  0.12269086452E+03 -0.54809590009E+03  0.59171754198E+03  0.17300000000E+03 0. -1.
         -6    1    1    2    0  502 -0.68836658517E+02 -0.12269086452E+03 -0.17068122054E+03  0.28080707405E+03  0.17300000000E+03 0. -1.
<mgrwt>
<rscale>  2 0.22298102E+03</rscale>
<asrwt>0</asrwt>
<pdfrwt beam="1">  1       21 0.11826731E-01 0.22298102E+03</pdfrwt>
<pdfrwt beam="2">  1       21 0.12240782E+00 0.22298102E+03</pdfrwt>
<totfact> 0.29752294E+04</totfact>
</mgrwt>
</event>
<event>
 4    2  0.3944631E+000  0.1990317E+03  0.7546771E-02  0.1150559E+00
         21   -1    0    0  501  502  0.00000000000E+00  0.00000000000E+00  0.99986901241E+02  0.99986901241E+02  0.00000000000E+00 0. -1.
         21   -1    0    0  502  503 -0.00000000000E+00 -0.00000000000E+00 -0.46009200944E+03  0.46009200944E+03  0.00000000000E+00 0.  1.
          6    1    1    2  501    0  0.98398206786E+02 -0.15575832037E+01 -0.28441882353E+03  0.34714219038E+03  0.17300000000E+03 0.  1.
         -6    1    1    2    0  503 -0.98398206786E+02  0.15575832037E+01 -0.75686284663E+02  0.21293672030E+03  0.17300000000E+03 0. -1.
<mgrwt>
<rscale>  2 0.19903174E+03</rscale>
<asrwt>0</asrwt>
<pdfrwt beam="1">  1       21 0.15382600E-01 0.19903174E+03</pdfrwt>
<pdfrwt beam="2">  1       21 0.70783385E-01 0.19903174E+03</pdfrwt>
<totfact> 0.67542426E+04</totfact>
</mgrwt>
</event>
<event>
 4    2  0.3944631E+000  0.1940705E+03  0.7546771E-02  0.1154840E+00
         21   -1    0    0  501  502  0.00000000000E+00  0.00000000000E+00  0.31836796353E+03  0.31836796353E+03  0.00000000000E+00 0.  1.
         21   -1    0    0  502  503 -0.00000000000E+00 -0.00000000000E+00 -0.19850506727E+03  0.19850506727E+03  0.00000000000E+00 0.  1.
          6    1    1    2  501    0 -0.11380877196E+02 -0.87205679970E+02  0.22420413788E+03  0.29653136500E+03  0.17300000000E+03 0.  1.
         -6    1    1    2    0  503  0.11380877196E+02  0.87205679970E+02 -0.10434124163E+03  0.22034166580E+03  0.17300000000E+03 0.  1.
<mgrwt>
<rscale>  2 0.19407049E+03</rscale>
<asrwt>0</asrwt>
<pdfrwt beam="1">  1       21 0.48979687E-01 0.19407049E+03</pdfrwt>
<pdfrwt beam="2">  1       21 0.30539241E-01 0.19407049E+03</pdfrwt>
<totfact> 0.40910351E+04</totfact>
</mgrwt>
</event>
<event>
 4    2  0.3944631E+000  0.2524819E+03  0.7546771E-02  0.1111746E+00
         21   -1    0    0  501  502  0.00000000000E+00  0.00000000000E+00  0.53912171623E+03  0.53912171623E+03  0.00000000000E+00 0. -1.
         21   -1    0    0  502  503 -0.00000000000E+00 -0.00000000000E+00 -0.36346384844E+03  0.36346384844E+03  0.00000000000E+00 0. -1.
          6    1    1    2  501    0 -0.97379654777E+02  0.15599780617E+03  0.45851553985E+03  0.52343444000E+03  0.17300000000E+03 0. -1.
         -6    1    1    2    0  503  0.97379654777E+02 -0.15599780617E+03 -0.28285767206E+03  0.37915112467E+03  0.17300000000E+03 0. -1.
<mgrwt>
<rscale>  2 0.25248191E+03</rscale>
<asrwt>0</asrwt>
<pdfrwt beam="1">  1       21 0.82941802E-01 0.25248191E+03</pdfrwt>
<pdfrwt beam="2">  1       21 0.55917515E-01 0.25248191E+03</pdfrwt>
<totfact> 0.36519565E+03</totfact>
</mgrwt>
</event>
<event>
 4    2  0.3944631E+000  0.1828020E+03  0.7546771E-02  0.1165118E+00
         21   -1    0    0  501  502  0.00000000000E+00  0.00000000000E+00  0.72228618801E+02  0.72228618801E+02  0.00000000000E+00 0. -1.
         21   -1    0    0  502  503 -0.00000000000E+00 -0.00000000000E+00 -0.81266429625E+03  0.81266429625E+03  0.00000000000E+00 0. -1.
          6    1    1    2  501    0 -0.28190668418E+02 -0.51892736380E+02 -0.79850322755E+02  0.19948093623E+03  0.17300000000E+03 0. -1.
         -6    1    1    2    0  503  0.28190668418E+02  0.51892736380E+02 -0.66058535469E+03  0.68541197882E+03  0.17300000000E+03 0. -1.
<mgrwt>
<rscale>  2 0.18280200E+03</rscale>
<asrwt>0</asrwt>
<pdfrwt beam="1">  1       21 0.11112096E-01 0.18280200E+03</pdfrwt>
<pdfrwt beam="2">  1       21 0.12502527E+00 0.18280200E+03</pdfrwt>
<totfact> 0.32275131E+04</totfact>
</mgrwt>
</event>
<event>
 4    2  0.3944631E+000  0.1824422E+03  0.7546771E-02  0.1165460E+00
         21   -1    0    0  503  502  0.00000000000E+00  0.00000000000E+00  0.37036867793E+02  0.37036867793E+02  0.00000000000E+00 0. -1.
         21   -1    0    0  501  503 -0.00000000000E+00 -0.00000000000E+00 -0.94385755518E+03  0.94385755518E+03  0.00000000000E+00 0. -1.
          6    1    1    2  501    0  0.30321497453E+02 -0.49363447699E+02 -0.56068322802E+03  0.58961922065E+03  0.17300000000E+03 0. -1.
         -6    1    1    2    0  502 -0.30321497453E+02  0.49363447699E+02 -0.34613745937E+03  0.39127520232E+03  0.17300000000E+03 0. -1.
<mgrwt>
<rscale>  2 0.18244216E+03</rscale>
<asrwt>0</asrwt>
<pdfrwt beam="1">  1       21 0.56979806E-02 0.18244216E+03</pdfrwt>
<pdfrwt beam="2">  1       21 0.14520883E+00 0.18244216E+03</pdfrwt>
<totfact> 0.70458652E+04</totfact>
</mgrwt>
</event>
<event>
 4    2  0.3944631E+000  0.1785395E+03  0.7546771E-02  0.1169224E+00
         21   -1    0    0  501  502  0.00000000000E+00  0.00000000000E+00  0.19710268705E+03  0.19710268705E+03  0.00000000000E+00 0. -1.
         21   -1    0    0  502  503 -0.00000000000E+00 -0.00000000000E+00 -0.24843843647E+03  0.24843843647E+03  0.00000000000E+00 0. -1.
          6    1    1    2  501    0 -0.14751935517E+01 -0.44104179337E+02 -0.15727899516E+03  0.23793494310E+03  0.17300000000E+03 0. -1.
         -6    1    1    2    0  503  0.14751935517E+01  0.44104179337E+02  0.10594324574E+03  0.20760618042E+03  0.17300000000E+03 0. -1.
<mgrwt>
<rscale>  2 0.17853950E+03</rscale>
<asrwt>0</asrwt>
<pdfrwt beam="1">  1       21 0.30323490E-01 0.17853950E+03</pdfrwt>
<pdfrwt beam="2">  1       21 0.38221298E-01 0.17853950E+03</pdfrwt>
<totfact> 0.69303939E+04</totfact>
</mgrwt>
</event>
<event>
 4    2  0.3944631E+000  0.1981651E+03  0.7546771E-02  0.1151296E+00
         21   -1    0    0  501  502  0.00000000000E+00  0.00000000000E+00  0.25493421176E+03  0.25493421176E+03  0.00000000000E+00 0. -1.
         21   -1    0    0  502  503 -0.00000000000E+00 -0.00000000000E+00 -0.19323577643E+03  0.19323577643E+03  0.00000000000E+00 0. -1.
          6    1    1    2  501    0 -0.58786663136E+02  0.76710681039E+02 -0.70076793003E+02  0.21019076399E+03  0.17300000000E+03 0. -1.
         -6    1    1    2    0  503  0.58786663136E+02 -0.76710681039E+02  0.13177522833E+03  0.23797922420E+03  0.17300000000E+03 0. -1.
<mgrwt>
<rscale>  2 0.19816508E+03</rscale>
<asrwt>0</asrwt>
<pdfrwt beam="1">  1       21 0.39220648E-01 0.19816508E+03</pdfrwt>
<pdfrwt beam="2">  1       21 0.29728581E-01 0.19816508E+03</pdfrwt>
<totfact> 0.67812496E+04</totfact>
</mgrwt>
</event>
<event>
 4    2  0.3944631E+000  0.2261150E+03  0.7546771E-02  0.1129404E+00
         21   -1    0    0  503  502  0.00000000000E+00  0.00000000000E+00  0.75623512171E+02  0.75623512171E+02  0.00000000000E+00 0.  1.
         21   -1    0    0  501  503 -0.00000000000E+00 -0.00000000000E+00 -0.17786954687E+04  0.17786954687E+04  0.00000000000E+00 0.  1.
          6    1    1    2  501    0  0.65328617676E+02  0.13011977161E+03 -0.15815220027E+04  0.15976044030E+04  0.17300000000E+03 0.  1.
         -6    1    1    2    0  502 -0.65328617676E+02 -0.13011977161E+03 -0.12154995384E+03  0.25671457794E+03  0.17300000000E+03 0.  1.
<mgrwt>
<rscale>  2 0.22611498E+03</rscale>
<asrwt>0</asrwt>
<pdfrwt beam="1">  1       21 0.11634387E-01 0.22611498E+03</pdfrwt>
<pdfrwt beam="2">  1       21 0.27364546E+00 0.22611498E+03</pdfrwt>
<totfact> 0.28959262E+03</totfact>
</mgrwt>
</event>
<event>
 4    2  0.3944631E+000  0.1791711E+03  0.7546771E-02  0.1168608E+00
         21   -1    0    0  503  502  0.00000000000E+00  0.00000000000E+00  0.82623060529E+02  0.82623060529E+02  0.00000000000E+00 0.  1.
         21   -1    0    0  501  503 -0.00000000000E+00 -0.00000000000E+00 -0.42410007205E+03  0.42410007205E+03  0.00000000000E+00 0.  1.
          6    1    1    2  501    0 -0.41761491117E+02  0.20719004334E+02 -0.24410413670E+03  0.30280212819E+03  0.17300000000E+03 0.  1.
         -6    1    1    2    0  502  0.41761491117E+02 -0.20719004334E+02 -0.97372874818E+02  0.20392100439E+03  0.17300000000E+03 0.  1.
<mgrwt>
<rscale>  2 0.17917115E+03</rscale>
<asrwt>0</asrwt>
<pdfrwt beam="1">  1       21 0.12711240E-01 0.17917115E+03</pdfrwt>
<pdfrwt beam="2">  1       21 0.65246166E-01 0.17917115E+03</pdfrwt>
<totfact> 0.11497600E+05</totfact>
</mgrwt>
</event>
<event>
 4    2  0.3944631E+000  0.2041598E+03  0.7546771E-02  0.1146276E+00
         21   -1    0    0  501  502  0.00000000000E+00  0.00000000000E+00  0.44857278534E+03  0.44857278534E+03  0.00000000000E+00 0. -1.
         21   -1    0    0  502  503 -0.00000000000E+00 -0.00000000000E+00 -0.93151108861E+02  0.93151108861E+02  0.00000000000E+00 0.  1.
          6    1    1    2  501    0  0.83890685506E+02  0.68662655351E+02  0.16420783640E+03  0.26200271161E+03  0.17300000000E+03 0. -1.
         -6    1    1    2    0  503 -0.83890685506E+02 -0.68662655351E+02  0.19121384008E+03  0.27972118260E+03  0.17300000000E+03 0. -1.
<mgrwt>
<rscale>  2 0.20415976E+03</rscale>
<asrwt>0</asrwt>
<pdfrwt beam="1">  1       21 0.69011197E-01 0.20415976E+03</pdfrwt>
<pdfrwt beam="2">  1       21 0.14330940E-01 0.20415976E+03</pdfrwt>
<totfact> 0.81076224E+04</totfact>
</mgrwt>
</event>
<event>
 4    2  0.3944631E+000  0.2022190E+03  0.7546771E-02  0.1147880E+00
         21   -1    0    0  501  502  0.00000000000E+00  0.00000000000E+00  0.22225958923E+03  0.22225958923E+03  0.00000000000E+00 0.  1.
         21   -1    0    0  502  503 -0.00000000000E+00 -0.00000000000E+00 -0.19301695558E+03  0.19301695558E+03  0.00000000000E+00 0.  1.
          6    1    1    2  501    0  0.29392735707E+02  0.10049668524E+03  0.59536301451E+02  0.21080106225E+03  0.17300000000E+03 0.  1.
         -6    1    1    2    0  503 -0.29392735707E+02 -0.10049668524E+03 -0.30293667802E+02  0.20447548256E+03  0.17300000000E+03 0.  1.
<mgrwt>
<rscale>  2 0.20221898E+03</rscale>
<asrwt>0</asrwt>
<pdfrwt beam="1">  1       21 0.34193783E-01 0.20221898E+03</pdfrwt>
<pdfrwt beam="2">  1       21 0.29694916E-01 0.20221898E+03</pdfrwt>
<totfact> 0.89231785E+04</totfact>
</mgrwt>
</event>
<event>
 4    2  0.3944631E+000  0.2915325E+03  0.7546771E-02  0.1089552E+00
         21   -1    0    0  503  502  0.00000000000E+00  0.00000000000E+00  0.15137263037E+03  0.15137263037E+03  0.00000000000E+00 0.  1.
         21   -1    0    0  501  503 -0.00000000000E+00 -0.00000000000E+00 -0.60717234204E+03  0.60717234204E+03  0.00000000000E+00 0.  1.
          6    1    1    2  501    0  0.36398942100E+02 -0.23181310099E+03 -0.12384451212E+03  0.31674699676E+03  0.17300000000E+03 0.  1.
         -6    1    1    2    0  502 -0.36398942100E+02  0.23181310099E+03 -0.33195519956E+03  0.44179797565E+03  0.17300000000E+03 0.  1.
<mgrwt>
<rscale>  2 0.29153250E+03</rscale>
<asrwt>0</asrwt>
<pdfrwt beam="1">  1       21 0.23288097E-01 0.29153250E+03</pdfrwt>
<pdfrwt beam="2">  1       21 0.93411130E-01 0.29153250E+03</pdfrwt>
<totfact> 0.15839637E+04</totfact>
</mgrwt>
</event>
<event>
 4    2  0.3944631E+000  0.1830503E+03  0.7546771E-02  0.1164883E+00
         21   -1    0    0  503  502  0.00000000000E+00  0.00000000000E+00  0.20393182712E+04  0.20393182712E+04  0.00000000000E+00 0.  1.
         21   -1    0    0  501  503 -0.00000000000E+00 -0.00000000000E+00 -0.36844721858E+02  0.36844721858E+02  0.00000000000E+00 0.  1.
          6    1    1    2  501    0  0.14292461036E+02  0.58087312345E+02  0.22854163208E+03  0.29281169357E+03  0.17300000000E+03 0.  1.
         -6    1    1    2    0  502 -0.14292461036E+02 -0.58087312345E+02  0.17739319173E+04  0.17833512995E+04  0.17300000000E+03 0.  1.
<mgrwt>
<rscale>  2 0.18305029E+03</rscale>
<asrwt>0</asrwt>
<pdfrwt beam="1">  1       21 0.31374118E+00 0.18305029E+03</pdfrwt>
<pdfrwt beam="2">  1       21 0.56684204E-02 0.18305029E+03</pdfrwt>
<totfact> 0.62526626E+03</totfact>
</mgrwt>
</event>
<event>
 4    2  0.3944631E+000  0.2696844E+03  0.7546771E-02  0.1101460E+00
         21   -1    0    0  503  502  0.00000000000E+00  0.00000000000E+00  0.19021876413E+03  0.19021876413E+03  0.00000000000E+00 0.  1.
         21   -1    0    0  501  503 -0.00000000000E+00 -0.00000000000E+00 -0.43245126371E+03  0.43245126371E+03  0.00000000000E+00 0.  1.
          6    1    1    2  501    0  0.19312893675E+03 -0.74174738258E+02 -0.22708903501E+03  0.35256078600E+03  0.17300000000E+03 0.  1.
         -6    1    1    2    0  502 -0.19312893675E+03  0.74174738258E+02 -0.15143464570E+02  0.27010924184E+03  0.17300000000E+03 0.  1.
<mgrwt>
<rscale>  2 0.26968440E+03</rscale>
<asrwt>0</asrwt>
<pdfrwt beam="1">  1       21 0.29264426E-01 0.26968440E+03</pdfrwt>
<pdfrwt beam="2">  1       21 0.66530963E-01 0.26968440E+03</pdfrwt>
<totfact> 0.22267549E+04</totfact>
</mgrwt>
</event>
<event>
 4    2  0.3944631E+000  0.2115256E+03  0.7546771E-02  0.1140364E+00
         21   -1    0    0  503  502  0.00000000000E+00  0.00000000000E+00  0.68831151018E+03  0.68831151018E+03  0.00000000000E+00 0.  1.
         21   -1    0    0  501  503 -0.00000000000E+00 -0.00000000000E+00 -0.84074335210E+02  0.84074335210E+02  0.00000000000E+00 0. -1.
          6    1    1    2  501    0  0.10365226850E+03 -0.63798787652E+02  0.11818947088E+03  0.24230523952E+03  0.17300000000E+03 0. -1.
         -6    1    1    2    0  502 -0.10365226850E+03  0.63798787652E+02  0.48604770409E+03  0.53008060587E+03  0.17300000000E+03 0.  1.
<mgrwt>
<rscale>  2 0.21152560E+03</rscale>
<asrwt>0</asrwt>
<pdfrwt beam="1">  1       21 0.10589407E+00 0.21152560E+03</pdfrwt>
<pdfrwt beam="2">  1       21 0.12934514E-01 0.21152560E+03</pdfrwt>
<totfact> 0.36343183E+04</totfact>
</mgrwt>
</event>
<event>
 4    2  0.3944631E+000  0.1978487E+03  0.7546771E-02  0.1151567E+00
         21   -1    0    0  503  502  0.00000000000E+00  0.00000000000E+00  0.59939662908E+02  0.59939662908E+02  0.00000000000E+00 0.  1.
         21   -1    0    0  501  503 -0.00000000000E+00 -0.00000000000E+00 -0.65427043929E+03  0.65427043929E+03  0.00000000000E+00 0.  1.
          6    1    1    2  501    0 -0.79616524235E+02 -0.53631192940E+02 -0.31253593601E+03  0.36989567054E+03  0.17300000000E+03 0.  1.
         -6    1    1    2    0  502  0.79616524235E+02  0.53631192940E+02 -0.28179484037E+03  0.34431443166E+03  0.17300000000E+03 0.  1.
<mgrwt>
<rscale>  2 0.19784867E+03</rscale>
<asrwt>0</asrwt>
<pdfrwt beam="1">  1       21 0.92214866E-02 0.19784867E+03</pdfrwt>
<pdfrwt beam="2">  1       21 0.10065699E+00 0.19784867E+03</pdfrwt>
<totfact> 0.75472815E+04</totfact>
</mgrwt>
</event>
<event>
 4    2  0.3944631E+000  0.2089439E+03  0.7546771E-02  0.1142405E+00
         21   -1    0    0  503  502  0.00000000000E+00  0.00000000000E+00  0.97142669635E+02  0.97142669635E+02  0.00000000000E+00 0. -1.
         21   -1    0    0  501  503 -0.00000000000E+00 -0.00000000000E+00 -0.45434305686E+03  0.45434305686E+03  0.00000000000E+00 0.  1.
          6    1    1    2  501    0 -0.10720451509E+03 -0.47283723670E+02 -0.20731235833E+03  0.29433989281E+03  0.17300000000E+03 0.  1.
         -6    1    1    2    0  502  0.10720451509E+03  0.47283723670E+02 -0.14988802889E+03  0.25714583369E+03  0.17300000000E+03 0. -1.
<mgrwt>
<rscale>  2 0.20894391E+03</rscale>
<asrwt>0</asrwt>
<pdfrwt beam="1">  1       21 0.14945026E-01 0.20894391E+03</pdfrwt>
<pdfrwt beam="2">  1       21 0.69898931E-01 0.20894391E+03</pdfrwt>
<totfact> 0.72874883E+04</totfact>
</mgrwt>
</event>
<event>
 4    2  0.3944631E+000  0.2001150E+03  0.7546771E-02  0.1149642E+00
         21   -1    0    0  501  502  0.00000000000E+00  0.00000000000E+00  0.54207991271E+03  0.54207991271E+03  0.00000000000E+00 0.  1.
         21   -1    0    0  502  503 -0.00000000000E+00 -0.00000000000E+00 -0.79976891607E+02  0.79976891607E+02  0.00000000000E+00 0.  1.
          6    1    1    2  501    0  0.81572715713E+02 -0.58846501064E+02  0.31696451167E+03  0.37484999705E+03  0.17300000000E+03 0.  1.
         -6    1    1    2    0  503 -0.81572715713E+02  0.58846501064E+02  0.14513850944E+03  0.24720680727E+03  0.17300000000E+03 0.  1.
<mgrwt>
<rscale>  2 0.20011501E+03</rscale>
<asrwt>0</asrwt>
<pdfrwt beam="1">  1       21 0.83396908E-01 0.20011501E+03</pdfrwt>
<pdfrwt beam="2">  1       21 0.12304137E-01 0.20011501E+03</pdfrwt>
<totfact> 0.69979636E+04</totfact>
</mgrwt>
</event>
<event>
 4    2  0.3944631E+000  0.3476943E+03  0.7546771E-02  0.1063565E+00
         21   -1    0    0  501  502  0.00000000000E+00  0.00000000000E+00  0.35887602632E+03  0.35887602632E+03  0.00000000000E+00 0.  1.
         21   -1    0    0  502  503 -0.00000000000E+00 -0.00000000000E+00 -0.35287970210E+03  0.35287970210E+03  0.00000000000E+00 0. -1.
          6    1    1    2  501    0  0.13558858205E+03 -0.26940319959E+03 -0.72824827641E+02  0.35523907873E+03  0.17300000000E+03 0.  1.
         -6    1    1    2    0  503 -0.13558858205E+03  0.26940319959E+03  0.78821151859E+02  0.35651664970E+03  0.17300000000E+03 0.  1.
<mgrwt>
<rscale>  2 0.34769433E+03</rscale>
<asrwt>0</asrwt>
<pdfrwt beam="1">  1       21 0.55211696E-01 0.34769433E+03</pdfrwt>
<pdfrwt beam="2">  1       21 0.54289185E-01 0.34769433E+03</pdfrwt>
<totfact> 0.91454186E+03</totfact>
</mgrwt>
</event>
<event>
 4    2  0.3944631E+000  0.2071689E+03  0.7546771E-02  0.1143828E+00
         21   -1    0    0  503  502  0.00000000000E+00  0.00000000000E+00  0.25279384826E+02  0.25279384826E+02  0.00000000000E+00 0. -1.
         21   -1    0    0  501  503 -0.00000000000E+00 -0.00000000000E+00 -0.17063113069E+04  0.17063113069E+04  0.00000000000E+00 0. -1.
          6    1    1    2  501    0  0.71893476467E+02 -0.88438016795E+02 -0.77931302911E+03  0.80637940953E+03  0.17300000000E+03 0. -1.
         -6    1    1    2    0  502 -0.71893476467E+02  0.88438016795E+02 -0.90171889293E+03  0.92521128216E+03  0.17300000000E+03 0. -1.
<mgrwt>
<rscale>  2 0.20716890E+03</rscale>
<asrwt>0</asrwt>
<pdfrwt beam="1">  1       21 0.38891363E-02 0.20716890E+03</pdfrwt>
<pdfrwt beam="2">  1       21 0.26250942E+00 0.20716890E+03</pdfrwt>
<totfact> 0.22788643E+04</totfact>
</mgrwt>
</event>
<event>
 4    2  0.3944631E+000  0.1888457E+03  0.7546771E-02  0.1159507E+00
         21   -1    0    0  503  502  0.00000000000E+00  0.00000000000E+00  0.41084337235E+02  0.41084337235E+02  0.00000000000E+00 0. -1.
         21   -1    0    0  501  503 -0.00000000000E+00 -0.00000000000E+00 -0.87704653579E+03  0.87704653579E+03  0.00000000000E+00 0. -1.
          6    1    1    2  501    0  0.26226883512E+02 -0.71034217690E+02 -0.46451007397E+03  0.50143027264E+03  0.17300000000E+03 0. -1.
         -6    1    1    2    0  502 -0.26226883512E+02  0.71034217690E+02 -0.37145212458E+03  0.41670060038E+03  0.17300000000E+03 0. -1.
<mgrwt>
<rscale>  2 0.18884573E+03</rscale>
<asrwt>0</asrwt>
<pdfrwt beam="1">  1       21 0.63206676E-02 0.18884573E+03</pdfrwt>
<pdfrwt beam="2">  1       21 0.13493023E+00 0.18884573E+03</pdfrwt>
<totfact> 0.71071167E+04</totfact>
</mgrwt>
</event>
<event>
 4    2  0.3944631E+000  0.2025886E+03  0.7546771E-02  0.1147573E+00
         21   -1    0    0  503  502  0.00000000000E+00  0.00000000000E+00  0.61911021420E+02  0.61911021420E+02  0.00000000000E+00 0. -1.
         21   -1    0    0  501  503 -0.00000000000E+00 -0.00000000000E+00 -0.66292609704E+03  0.66292609704E+03  0.00000000000E+00 0. -1.
          6    1    1    2  501    0  0.36131133137E+02 -0.99033656544E+02 -0.29951490896E+03  0.36159549859E+03  0.17300000000E+03 0. -1.
         -6    1    1    2    0  502 -0.36131133137E+02  0.99033656544E+02 -0.30150016666E+03  0.36324161987E+03  0.17300000000E+03 0. -1.
<mgrwt>
<rscale>  2 0.20258856E+03</rscale>
<asrwt>0</asrwt>
<pdfrwt beam="1">  1       21 0.95247733E-02 0.20258856E+03</pdfrwt>
<pdfrwt beam="2">  1       21 0.10198862E+00 0.20258856E+03</pdfrwt>
<totfact> 0.68935533E+04</totfact>
</mgrwt>
</event>
<event>
 4    2  0.3944631E+000  0.1734715E+03  0.7546771E-02  0.1174275E+00
         21   -1    0    0  501  502  0.00000000000E+00  0.00000000000E+00  0.19308933033E+03  0.19308933033E+03  0.00000000000E+00 0.  1.
         21   -1    0    0  502  503 -0.00000000000E+00 -0.00000000000E+00 -0.25761182807E+03  0.25761182807E+03  0.00000000000E+00 0.  1.
          6    1    1    2  501    0  0.13672041822E+01 -0.12708332593E+02 -0.17389764652E+03  0.24562728356E+03  0.17300000000E+03 0.  1.
         -6    1    1    2    0  503 -0.13672041822E+01  0.12708332593E+02  0.10937514879E+03  0.20507387483E+03  0.17300000000E+03 0.  1.
<mgrwt>
<rscale>  2 0.17347153E+03</rscale>
<asrwt>0</asrwt>
<pdfrwt beam="1">  1       21 0.29706051E-01 0.17347153E+03</pdfrwt>
<pdfrwt beam="2">  1       21 0.39632589E-01 0.17347153E+03</pdfrwt>
<totfact> 0.67220858E+04</totfact>
</mgrwt>
</event>
<event>
 4    2  0.3944631E+000  0.1802183E+03  0.7546771E-02  0.1167592E+00
         21   -1    0    0  503  502  0.00000000000E+00  0.00000000000E+00  0.96171782836E+03  0.96171782836E+03  0.00000000000E+00 0. -1.
         21   -1    0    0  501  503 -0.00000000000E+00 -0.00000000000E+00 -0.34000454494E+02  0.34000454494E+02  0.00000000000E+00 0. -1.
          6    1    1    2  501    0  0.48985746294E+02  0.12248982171E+02  0.50471425665E+03  0.53592454858E+03  0.17300000000E+03 0. -1.
         -6    1    1    2    0  502 -0.48985746294E+02 -0.12248982171E+02  0.42300311721E+03  0.45979373427E+03  0.17300000000E+03 0. -1.
<mgrwt>
<rscale>  2 0.18021831E+03</rscale>
<asrwt>0</asrwt>
<pdfrwt beam="1">  1       21 0.14795657E+00 0.18021831E+03</pdfrwt>
<pdfrwt beam="2">  1       21 0.52308399E-02 0.18021831E+03</pdfrwt>
<totfact> 0.77690328E+04</totfact>
</mgrwt>
</event>
<event>
 4    2  0.3944631E+000  0.1879273E+03  0.7546771E-02  0.1160344E+00
         21   -1    0    0  503  502  0.00000000000E+00  0.00000000000E+00  0.85352739213E+03  0.85352739213E+03  0.00000000000E+00 0.  1.
         21   -1    0    0  501  503 -0.00000000000E+00 -0.00000000000E+00 -0.99213431388E+02  0.99213431388E+02  0.00000000000E+00 0.  1.
          6    1    1    2  501    0 -0.51624723612E+02 -0.52178156047E+02  0.13443746065E+02  0.18840755390E+03  0.17300000000E+03 0.  1.
         -6    1    1    2    0  502  0.51624723612E+02  0.52178156047E+02  0.74087021468E+03  0.76433326962E+03  0.17300000000E+03 0.  1.
<mgrwt>
<rscale>  2 0.18792731E+03</rscale>
<asrwt>0</asrwt>
<pdfrwt beam="1">  1       21 0.13131190E+00 0.18792731E+03</pdfrwt>
<pdfrwt beam="2">  1       21 0.15263605E-01 0.18792731E+03</pdfrwt>
<totfact> 0.16066414E+04</totfact>
</mgrwt>
</event>
<event>
 4    2  0.3944631E+000  0.1895413E+03  0.7546771E-02  0.1158876E+00
         21   -1    0    0  501  502  0.00000000000E+00  0.00000000000E+00  0.50000543172E+03  0.50000543172E+03  0.00000000000E+00 0.  1.
         21   -1    0    0  502  503 -0.00000000000E+00 -0.00000000000E+00 -0.72495843278E+02  0.72495843278E+02  0.00000000000E+00 0.  1.
          6    1    1    2  501    0 -0.68821044251E+02  0.35504295297E+02  0.18675773675E+03  0.26609085545E+03  0.17300000000E+03 0.  1.
         -6    1    1    2    0  503  0.68821044251E+02 -0.35504295297E+02  0.24075185169E+03  0.30641041955E+03  0.17300000000E+03 0.  1.
<mgrwt>
<rscale>  2 0.18954126E+03</rscale>
<asrwt>0</asrwt>
<pdfrwt beam="1">  1       21 0.76923911E-01 0.18954126E+03</pdfrwt>
<pdfrwt beam="2">  1       21 0.11153207E-01 0.18954126E+03</pdfrwt>
<totfact> 0.10057935E+05</totfact>
</mgrwt>
</event>
<event>
 4    2  0.3944631E+000  0.2224760E+03  0.7546771E-02  0.1132050E+00
         21   -1    0    0  503  502  0.00000000000E+00  0.00000000000E+00  0.11471991845E+04  0.11471991845E+04  0.00000000000E+00 0. -1.
         21   -1    0    0  501  503 -0.00000000000E+00 -0.00000000000E+00 -0.59430413814E+02  0.59430413814E+02  0.00000000000E+00 0.  1.
          6    1    1    2  501    0  0.87146901307E+02 -0.10941668017E+03  0.22806216720E+03  0.31860311426E+03  0.17300000000E+03 0.  1.
         -6    1    1    2    0  502 -0.87146901307E+02  0.10941668017E+03  0.85970660347E+03  0.88802648404E+03  0.17300000000E+03 0.  1.
<mgrwt>
<rscale>  2 0.22247605E+03</rscale>
<asrwt>0</asrwt>
<pdfrwt beam="1">  1       21 0.17649217E+00 0.22247605E+03</pdfrwt>
<pdfrwt beam="2">  1       21 0.91431414E-02 0.22247605E+03</pdfrwt>
<totfact> 0.17893676E+04</totfact>
</mgrwt>
</event>
<event>
 4    2  0.3944631E+000  0.1857526E+03  0.7546771E-02  0.1162349E+00
         21   -1    0    0  503  502  0.00000000000E+00  0.00000000000E+00  0.75596029991E+02  0.75596029991E+02  0.00000000000E+00 0.  1.
         21   -1    0    0  501  503 -0.00000000000E+00 -0.00000000000E+00 -0.53086768920E+03  0.53086768920E+03  0.00000000000E+00 0. -1.
          6    1    1    2  501    0  0.64541197469E+02 -0.20235400323E+02 -0.34118607943E+03  0.38847390954E+03  0.17300000000E+03 0.  1.
         -6    1    1    2    0  502 -0.64541197469E+02  0.20235400323E+02 -0.11408557977E+03  0.21798980965E+03  0.17300000000E+03 0.  1.
<mgrwt>
<rscale>  2 0.18575262E+03</rscale>
<asrwt>0</asrwt>
<pdfrwt beam="1">  1       21 0.11630158E-01 0.18575262E+03</pdfrwt>
<pdfrwt beam="2">  1       21 0.81671955E-01 0.18575262E+03</pdfrwt>
<totfact> 0.81682255E+04</totfact>
</mgrwt>
</event>
<event>
 4    2  0.3944631E+000  0.2120232E+03  0.7546771E-02  0.1139974E+00
         21   -1    0    0  503  502  0.00000000000E+00  0.00000000000E+00  0.22443581140E+03  0.22443581140E+03  0.00000000000E+00 0. -1.
         21   -1    0    0  501  503 -0.00000000000E+00 -0.00000000000E+00 -0.55303220133E+03  0.55303220133E+03  0.00000000000E+00 0. -1.
          6    1    1    2  501    0 -0.84759601423E+02 -0.88547364389E+02 -0.47475537549E+03  0.51994854777E+03  0.17300000000E+03 0. -1.
         -6    1    1    2    0  502  0.84759601423E+02  0.88547364389E+02  0.14615898555E+03  0.25751946496E+03  0.17300000000E+03 0. -1.
<mgrwt>
<rscale>  2 0.21202317E+03</rscale>
<asrwt>0</asrwt>
<pdfrwt beam="1">  1       21 0.34528587E-01 0.21202317E+03</pdfrwt>
<pdfrwt beam="2">  1       21 0.85081877E-01 0.21202317E+03</pdfrwt>
<totfact> 0.95367994E+03</totfact>
</mgrwt>
</event>
<event>
 4    2  0.3944631E+000  0.1969109E+03  0.7546771E-02  0.1152372E+00
         21   -1    0    0  501  502  0.00000000000E+00  0.00000000000E+00  0.32250602156E+03  0.32250602156E+03  0.00000000000E+00 0. -1.
         21   -1    0    0  502  503 -0.00000000000E+00 -0.00000000000E+00 -0.37498091240E+03  0.37498091240E+03  0.00000000000E+00 0. -1.
          6    1    1    2  501    0  0.33978099858E+02 -0.87694876985E+02  0.26121235215E+03  0.32711740344E+03  0.17300000000E+03 0. -1.
         -6    1    1    2    0  503 -0.33978099858E+02  0.87694876985E+02 -0.31368724299E+03  0.37036953052E+03  0.17300000000E+03 0. -1.
<mgrwt>
<rscale>  2 0.19691090E+03</rscale>
<asrwt>0</asrwt>
<pdfrwt beam="1">  1       21 0.49616311E-01 0.19691090E+03</pdfrwt>
<pdfrwt beam="2">  1       21 0.57689371E-01 0.19691090E+03</pdfrwt>
<totfact> 0.10881775E+04</totfact>
</mgrwt>
</event>
<event>
 4    2  0.3944631E+000  0.2215391E+03  0.7546771E-02  0.1132741E+00
         21   -1    0    0  501  502  0.00000000000E+00  0.00000000000E+00  0.30857002505E+03  0.30857002505E+03  0.00000000000E+00 0. -1.
         21   -1    0    0  502  503 -0.00000000000E+00 -0.00000000000E+00 -0.30874160524E+03  0.30874160524E+03  0.00000000000E+00 0.  1.
          6    1    1    2  501    0 -0.85139469959E+02  0.10909550328E+03  0.21483012427E+03  0.30859607981E+03  0.17300000000E+03 0. -1.
         -6    1    1    2    0  503  0.85139469959E+02 -0.10909550328E+03 -0.21500170447E+03  0.30871555047E+03  0.17300000000E+03 0.  1.
<mgrwt>
<rscale>  2 0.22153907E+03</rscale>
<asrwt>0</asrwt>
<pdfrwt beam="1">  1       21 0.47472312E-01 0.22153907E+03</pdfrwt>
<pdfrwt beam="2">  1       21 0.47498708E-01 0.22153907E+03</pdfrwt>
<totfact> 0.17683895E+04</totfact>
</mgrwt>
</event>
<event>
 4    2  0.3944631E+000  0.2435337E+03  0.7546771E-02  0.1117461E+00
         21   -1    0    0  501  502  0.00000000000E+00  0.00000000000E+00  0.17930704028E+03  0.17930704028E+03  0.00000000000E+00 0. -1.
         21   -1    0    0  502  503 -0.00000000000E+00 -0.00000000000E+00 -0.47286524601E+03  0.47286524601E+03  0.00000000000E+00 0. -1.
          6    1    1    2  501    0 -0.94186445632E+02 -0.14320807954E+03  0.31976558286E+02  0.24562398268E+03  0.17300000000E+03 0. -1.
         -6    1    1    2    0  503  0.94186445632E+02  0.14320807954E+03 -0.32553476401E+03  0.40654830361E+03  0.17300000000E+03 0. -1.
<mgrwt>
<rscale>  2 0.24353365E+03</rscale>
<asrwt>0</asrwt>
<pdfrwt beam="1">  1       21 0.27585698E-01 0.24353365E+03</pdfrwt>
<pdfrwt beam="2">  1       21 0.72748500E-01 0.24353365E+03</pdfrwt>
<totfact> 0.20744139E+04</totfact>
</mgrwt>
</event>
<event>
 4    2  0.3944631E+000  0.2508534E+03  0.7546771E-02  0.1112767E+00
         21   -1    0    0  503  502  0.00000000000E+00  0.00000000000E+00  0.30763135301E+03  0.30763135301E+03  0.00000000000E+00 0.  1.
         21   -1    0    0  501  503 -0.00000000000E+00 -0.00000000000E+00 -0.23397632841E+03  0.23397632841E+03  0.00000000000E+00 0. -1.
          6    1    1    2  501    0  0.16362132147E+03  0.78908199167E+02 -0.59201436121E+02  0.25774454557E+03  0.17300000000E+03 0. -1.
         -6    1    1    2    0  502 -0.16362132147E+03 -0.78908199167E+02  0.13285646072E+03  0.28386313584E+03  0.17300000000E+03 0.  1.
<mgrwt>
<rscale>  2 0.25085342E+03</rscale>
<asrwt>0</asrwt>
<pdfrwt beam="1">  1       21 0.47327901E-01 0.25085342E+03</pdfrwt>
<pdfrwt beam="2">  1       21 0.35996358E-01 0.25085342E+03</pdfrwt>
<totfact> 0.30879840E+04</totfact>
</mgrwt>
</event>
<event>
 4    2  0.3944631E+000  0.2021659E+03  0.7546771E-02  0.1147924E+00
         21   -1    0    0  503  502  0.00000000000E+00  0.00000000000E+00  0.12664570963E+04  0.12664570963E+04  0.00000000000E+00 0. -1.
         21   -1    0    0  501  503 -0.00000000000E+00 -0.00000000000E+00 -0.32396415661E+02  0.32396415661E+02  0.00000000000E+00 0. -1.
          6    1    1    2  501    0 -0.94498269407E+02  0.44856815661E+02  0.57677871649E+03  0.61118306965E+03  0.17300000000E+03 0. -1.
         -6    1    1    2    0  502  0.94498269407E+02 -0.44856815661E+02  0.65728196418E+03  0.68767044234E+03  0.17300000000E+03 0. -1.
<mgrwt>
<rscale>  2 0.20216591E+03</rscale>
<asrwt>0</asrwt>
<pdfrwt beam="1">  1       21 0.19483951E+00 0.20216591E+03</pdfrwt>
<pdfrwt beam="2">  1       21 0.49840649E-02 0.20216591E+03</pdfrwt>
<totfact> 0.38962392E+04</totfact>
</mgrwt>
</event>
<event>
 4    2  0.3944631E+000  0.1942064E+03  0.7546771E-02  0.1154721E+00
         21   -1    0    0  501  502  0.00000000000E+00  0.00000000000E+00  0.10091761736E+03  0.10091761736E+03  0.00000000000E+00 0.  1.
         21   -1    0    0  502  503 -0.00000000000E+00 -0.00000000000E+00 -0.39274108962E+03  0.39274108962E+03  0.00000000000E+00 0. -1.
          6    1    1    2  501    0  0.17531048450E+02  0.86485725100E+02 -0.20021514417E+03  0.27893049719E+03  0.17300000000E+03 0. -1.
         -6    1    1    2    0  503 -0.17531048450E+02 -0.86485725100E+02 -0.91608328087E+02  0.21472820979E+03  0.17300000000E+03 0.  1.
<mgrwt>
<rscale>  2 0.19420638E+03</rscale>
<asrwt>0</asrwt>
<pdfrwt beam="1">  1       21 0.15525787E-01 0.19420638E+03</pdfrwt>
<pdfrwt beam="2">  1       21 0.60421706E-01 0.19420638E+03</pdfrwt>
<totfact> 0.93978408E+04</totfact>
</mgrwt>
</event>
<event>
 4    2  0.3944631E+000  0.1841262E+03  0.7546771E-02  0.1163868E+00
         21   -1    0    0  503  502  0.00000000000E+00  0.00000000000E+00  0.26647223814E+02  0.26647223814E+02  0.00000000000E+00 0.  1.
         21   -1    0    0  501  503 -0.00000000000E+00 -0.00000000000E+00 -0.12987012550E+04  0.12987012550E+04  0.00000000000E+00 0.  1.
          6    1    1    2  501    0  0.19853458464E+02  0.59827236723E+02 -0.54148910326E+03  0.57193785241E+03  0.17300000000E+03 0.  1.
         -6    1    1    2    0  502 -0.19853458464E+02 -0.59827236723E+02 -0.73056492793E+03  0.75341062641E+03  0.17300000000E+03 0.  1.
<mgrwt>
<rscale>  2 0.18412620E+03</rscale>
<asrwt>0</asrwt>
<pdfrwt beam="1">  1       21 0.40995741E-02 0.18412620E+03</pdfrwt>
<pdfrwt beam="2">  1       21 0.19980013E+00 0.18412620E+03</pdfrwt>
<totfact> 0.50919596E+04</totfact>
</mgrwt>
</event>
<event>
 4    2  0.3944631E+000  0.2232635E+03  0.7546771E-02  0.1131473E+00
         21   -1    0    0  503  502  0.00000000000E+00  0.00000000000E+00  0.54488922706E+03  0.54488922706E+03  0.00000000000E+00 0. -1.
         21   -1    0    0  501  503 -0.00000000000E+00 -0.00000000000E+00 -0.11831556978E+03  0.11831556978E+03  0.00000000000E+00 0.  1.
          6    1    1    2  501    0 -0.11888303281E+03  0.76055327884E+02  0.37121162059E+03  0.43317970365E+03  0.17300000000E+03 0. -1.
         -6    1    1    2    0  502  0.11888303281E+03 -0.76055327884E+02  0.55362036686E+02  0.23002509319E+03  0.17300000000E+03 0. -1.
<mgrwt>
<rscale>  2 0.22326350E+03</rscale>
<asrwt>0</asrwt>
<pdfrwt beam="1">  1       21 0.83829110E-01 0.22326350E+03</pdfrwt>
<pdfrwt beam="2">  1       21 0.18202396E-01 0.22326350E+03</pdfrwt>
<totfact> 0.33467261E+04</totfact>
</mgrwt>
</event>
<event>
 4    2  0.3944631E+000  0.1938060E+03  0.7546771E-02  0.1155073E+00
         21   -1    0    0  503  502  0.00000000000E+00  0.00000000000E+00  0.88392915514E+02  0.88392915514E+02  0.00000000000E+00 0. -1.
         21   -1    0    0  501  503 -0.00000000000E+00 -0.00000000000E+00 -0.45097586668E+03  0.45097586668E+03  0.00000000000E+00 0.  1.
          6    1    1    2  501    0  0.82679914972E+02  0.28209774966E+02 -0.24610304132E+03  0.31325303940E+03  0.17300000000E+03 0.  1.
         -6    1    1    2    0  502 -0.82679914972E+02 -0.28209774966E+02 -0.11647990984E+03  0.22611574280E+03  0.17300000000E+03 0. -1.
<mgrwt>
<rscale>  2 0.19380598E+03</rscale>
<asrwt>0</asrwt>
<pdfrwt beam="1">  1       21 0.13598910E-01 0.19380598E+03</pdfrwt>
<pdfrwt beam="2">  1       21 0.69380903E-01 0.19380598E+03</pdfrwt>
<totfact> 0.88514397E+04</totfact>
</mgrwt>
</event>
<event>
 4    2  0.3944631E+000  0.2455168E+03  0.7546771E-02  0.1116171E+00
         21   -1    0    0  503  502  0.00000000000E+00  0.00000000000E+00  0.15652618775E+03  0.15652618775E+03  0.00000000000E+00 0.  1.
         21   -1    0    0  501  503 -0.00000000000E+00 -0.00000000000E+00 -0.48835084736E+03  0.48835084736E+03  0.00000000000E+00 0. -1.
          6    1    1    2  501    0 -0.70441214501E+02 -0.15933462407E+03 -0.31417245629E+03  0.39872649701E+03  0.17300000000E+03 0. -1.
         -6    1    1    2    0  502  0.70441214501E+02  0.15933462407E+03 -0.17652203313E+02  0.24615053810E+03  0.17300000000E+03 0.  1.
<mgrwt>
<rscale>  2 0.24551678E+03</rscale>
<asrwt>0</asrwt>
<pdfrwt beam="1">  1       21 0.24080952E-01 0.24551678E+03</pdfrwt>
<pdfrwt beam="2">  1       21 0.75130900E-01 0.24551678E+03</pdfrwt>
<totfact> 0.25049167E+04</totfact>
</mgrwt>
</event>
<event>
 4    2  0.3944631E+000  0.1855401E+03  0.7546771E-02  0.1162546E+00
         21   -1    0    0  503  502  0.00000000000E+00  0.00000000000E+00  0.20047157646E+04  0.20047157646E+04  0.00000000000E+00 0. -1.
         21   -1    0    0  501  503 -0.00000000000E+00 -0.00000000000E+00 -0.23728401646E+02  0.23728401646E+02  0.00000000000E+00 0. -1.
          6    1    1    2  501    0  0.62803234182E+02 -0.23492391642E+02  0.45736879156E+03  0.49357000535E+03  0.17300000000E+03 0. -1.
         -6    1    1    2    0  502 -0.62803234182E+02  0.23492391642E+02  0.15236185714E+04  0.15348741609E+04  0.17300000000E+03 0. -1.
<mgrwt>
<rscale>  2 0.18554013E+03</rscale>
<asrwt>0</asrwt>
<pdfrwt beam="1">  1       21 0.30841768E+00 0.18554013E+03</pdfrwt>
<pdfrwt beam="2">  1       21 0.36505249E-02 0.18554013E+03</pdfrwt>
<totfact> 0.14047763E+04</totfact>
</mgrwt>
</event>
<event>
 4    2  0.3944631E+000  0.1849786E+03  0.7546771E-02  0.1163070E+00
         21   -1    0    0  503  502  0.00000000000E+00  0.00000000000E+00  0.66458908026E+02  0.66458908026E+02  0.00000000000E+00 0. -1.
         21   -1    0    0  501  503 -0.00000000000E+00 -0.00000000000E+00 -0.12965998437E+04  0.12965998437E+04  0.00000000000E+00 0. -1.
          6    1    1    2  501    0 -0.64040916357E+02 -0.13668524989E+02 -0.11442616250E+04  0.11591167905E+04  0.17300000000E+03 0. -1.
         -6    1    1    2    0  502  0.64040916357E+02  0.13668524989E+02 -0.85879310636E+02  0.20394196120E+03  0.17300000000E+03 0. -1.
<mgrwt>
<rscale>  2 0.18497856E+03</rscale>
<asrwt>0</asrwt>
<pdfrwt beam="1">  1       21 0.10224448E-01 0.18497856E+03</pdfrwt>
<pdfrwt beam="2">  1       21 0.19947689E+00 0.18497856E+03</pdfrwt>
<totfact> 0.10625872E+04</totfact>
</mgrwt>
</event>
<event>
 4    2  0.3944631E+000  0.3553841E+03  0.7546771E-02  0.1060427E+00
         21   -1    0    0  501  502  0.00000000000E+00  0.00000000000E+00  0.37252311262E+03  0.37252311262E+03  0.00000000000E+00 0.  1.
         21   -1    0    0  502  503 -0.00000000000E+00 -0.00000000000E+00 -0.33913106721E+03  0.33913106721E+03  0.00000000000E+00 0.  1.
          6    1    1    2  501    0 -0.31007765854E+03 -0.14855588031E+02  0.10662942642E+02  0.35554400736E+03  0.17300000000E+03 0.  1.
         -6    1    1    2    0  503  0.31007765854E+03  0.14855588031E+02  0.22729102775E+02  0.35611017247E+03  0.17300000000E+03 0.  1.
<mgrwt>
<rscale>  2 0.35538408E+03</rscale>
<asrwt>0</asrwt>
<pdfrwt beam="1">  1       21 0.57311248E-01 0.35538408E+03</pdfrwt>
<pdfrwt beam="2">  1       21 0.52174010E-01 0.35538408E+03</pdfrwt>
<totfact> 0.91592008E+03</totfact>
</mgrwt>
</event>
<event>
 4    2  0.3944631E+000  0.1903223E+03  0.7546771E-02  0.1158171E+00
         21   -1    0    0  503  502  0.00000000000E+00  0.00000000000E+00  0.16897040148E+04  0.16897040148E+04  0.00000000000E+00 0.  1.
         21   -1    0    0  501  503 -0.00000000000E+00 -0.00000000000E+00 -0.34678367298E+02  0.34678367298E+02  0.00000000000E+00 0.  1.
          6    1    1    2  501    0 -0.57557869745E+02 -0.54595630136E+02  0.29474653843E+03  0.35085340688E+03  0.17300000000E+03 0.  1.
         -6    1    1    2    0  502  0.57557869745E+02  0.54595630136E+02  0.13602791091E+04  0.13735289752E+04  0.17300000000E+03 0.  1.
<mgrwt>
<rscale>  2 0.19032233E+03</rscale>
<asrwt>0</asrwt>
<pdfrwt beam="1">  1       21 0.25995440E+00 0.19032233E+03</pdfrwt>
<pdfrwt beam="2">  1       21 0.53351347E-02 0.19032233E+03</pdfrwt>
<totfact> 0.14039450E+04</totfact>
</mgrwt>
</event>
<event>
 4    2  0.3944631E+000  0.4679842E+03  0.7546771E-02  0.1022491E+00
         21   -1    0    0  503  502  0.00000000000E+00  0.00000000000E+00  0.28586519725E+03  0.28586519725E+03  0.00000000000E+00 0. -1.
         21   -1    0    0  501  503 -0.00000000000E+00 -0.00000000000E+00 -0.85525644357E+03  0.85525644357E+03  0.00000000000E+00 0.  1.
          6    1    1    2  501    0 -0.20109775118E+03  0.38553843349E+03 -0.46888439210E+03  0.66246642359E+03  0.17300000000E+03 0.  1.
         -6    1    1    2    0  502  0.20109775118E+03 -0.38553843349E+03 -0.10050685422E+03  0.47865521722E+03  0.17300000000E+03 0. -1.
<mgrwt>
<rscale>  2 0.46798418E+03</rscale>
<asrwt>0</asrwt>
<pdfrwt beam="1">  1       21 0.43979262E-01 0.46798418E+03</pdfrwt>
<pdfrwt beam="2">  1       21 0.13157791E+00 0.46798418E+03</pdfrwt>
<totfact> 0.17726955E+03</totfact>
</mgrwt>
</event>
<event>
 4    2  0.3944631E+000  0.2654445E+03  0.7546771E-02  0.1103916E+00
         21   -1    0    0  501  502  0.00000000000E+00  0.00000000000E+00  0.31818337951E+03  0.31818337951E+03  0.00000000000E+00 0.  1.
         21   -1    0    0  502  503 -0.00000000000E+00 -0.00000000000E+00 -0.31022717319E+03  0.31022717319E+03  0.00000000000E+00 0.  1.
          6    1    1    2  501    0  0.96347435377E+02 -0.17677373132E+03  0.17206403012E+03  0.31633338561E+03  0.17300000000E+03 0.  1.
         -6    1    1    2    0  503 -0.96347435377E+02  0.17677373132E+03 -0.16410782379E+03  0.31207716709E+03  0.17300000000E+03 0.  1.
<mgrwt>
<rscale>  2 0.26544450E+03</rscale>
<asrwt>0</asrwt>
<pdfrwt beam="1">  1       21 0.48951289E-01 0.26544450E+03</pdfrwt>
<pdfrwt beam="2">  1       21 0.47727257E-01 0.26544450E+03</pdfrwt>
<totfact> 0.16057497E+04</totfact>
</mgrwt>
</event>
<event>
 4    2  0.3944631E+000  0.2897006E+03  0.7546771E-02  0.1090506E+00
         21   -1    0    0  503  502  0.00000000000E+00  0.00000000000E+00  0.57824143373E+02  0.57824143373E+02  0.00000000000E+00 0.  1.
         21   -1    0    0  501  503 -0.00000000000E+00 -0.00000000000E+00 -0.25488650015E+04  0.25488650015E+04  0.00000000000E+00 0. -1.
          6    1    1    2  501    0  0.16792963572E+03  0.16061474514E+03 -0.21007436199E+04  0.21206249587E+04  0.17300000000E+03 0. -1.
         -6    1    1    2    0  502 -0.16792963572E+03 -0.16061474514E+03 -0.39029723820E+03  0.48606418615E+03  0.17300000000E+03 0.  1.
<mgrwt>
<rscale>  2 0.28970064E+03</rscale>
<asrwt>0</asrwt>
<pdfrwt beam="1">  1       21 0.88960241E-02 0.28970064E+03</pdfrwt>
<pdfrwt beam="2">  1       21 0.39213299E+00 0.28970064E+03</pdfrwt>
<totfact> 0.86113613E+02</totfact>
</mgrwt>
</event>
<event>
 4    2  0.3944631E+000  0.1930892E+03  0.7546771E-02  0.1155704E+00
         21   -1    0    0  503  502  0.00000000000E+00  0.00000000000E+00  0.49068234938E+02  0.49068234938E+02  0.00000000000E+00 0.  1.
         21   -1    0    0  501  503 -0.00000000000E+00 -0.00000000000E+00 -0.86622339900E+03  0.86622339900E+03  0.00000000000E+00 0.  1.
          6    1    1    2  501    0  0.51768698562E+02  0.68369867235E+02 -0.56896681609E+03  0.60083830995E+03  0.17300000000E+03 0.  1.
         -6    1    1    2    0  502 -0.51768698562E+02 -0.68369867235E+02 -0.24818834798E+03  0.31445332399E+03  0.17300000000E+03 0.  1.
<mgrwt>
<rscale>  2 0.19308919E+03</rscale>
<asrwt>0</asrwt>
<pdfrwt beam="1">  1       21 0.75489591E-02 0.19308919E+03</pdfrwt>
<pdfrwt beam="2">  1       21 0.13326514E+00 0.19308919E+03</pdfrwt>
<totfact> 0.53875577E+04</totfact>
</mgrwt>
</event>
<event>
 4    2  0.3944631E+000  0.1831338E+03  0.7546771E-02  0.1164804E+00
         21   -1    0    0  503  502  0.00000000000E+00  0.00000000000E+00  0.14886234843E+03  0.14886234843E+03  0.00000000000E+00 0.  1.
         21   -1    0    0  501  503 -0.00000000000E+00 -0.00000000000E+00 -0.26412551329E+03  0.26412551329E+03  0.00000000000E+00 0.  1.
          6    1    1    2  501    0  0.74653178763E+01  0.59609309627E+02 -0.13680629628E+03  0.22859125851E+03  0.17300000000E+03 0.  1.
         -6    1    1    2    0  502 -0.74653178763E+01 -0.59609309627E+02  0.21543131423E+02  0.18439660321E+03  0.17300000000E+03 0.  1.
<mgrwt>
<rscale>  2 0.18313383E+03</rscale>
<asrwt>0</asrwt>
<pdfrwt beam="1">  1       21 0.22901900E-01 0.18313383E+03</pdfrwt>
<pdfrwt beam="2">  1       21 0.40634694E-01 0.18313383E+03</pdfrwt>
<totfact> 0.10476558E+05</totfact>
</mgrwt>
</event>
<event>
 4    2  0.3944631E+000  0.1875233E+03  0.7546771E-02  0.1160714E+00
         21   -1    0    0  503  502  0.00000000000E+00  0.00000000000E+00  0.21599834946E+03  0.21599834946E+03  0.00000000000E+00 0.  1.
         21   -1    0    0  501  503 -0.00000000000E+00 -0.00000000000E+00 -0.36323210551E+03  0.36323210551E+03  0.00000000000E+00 0. -1.
          6    1    1    2  501    0  0.97324739410E+01 -0.71702713781E+02 -0.28875163034E+03  0.34430002068E+03  0.17300000000E+03 0. -1.
         -6    1    1    2    0  502 -0.97324739410E+01  0.71702713781E+02  0.14151787430E+03  0.23493043429E+03  0.17300000000E+03 0.  1.
<mgrwt>
<rscale>  2 0.18752333E+03</rscale>
<asrwt>0</asrwt>
<pdfrwt beam="1">  1       21 0.33230516E-01 0.18752333E+03</pdfrwt>
<pdfrwt beam="2">  1       21 0.55881862E-01 0.18752333E+03</pdfrwt>
<totfact> 0.26373396E+04</totfact>
</mgrwt>
</event>
<event>
 4    2  0.3944631E+000  0.1900003E+03  0.7546771E-02  0.1158461E+00
         21   -1    0    0  503  502  0.00000000000E+00  0.00000000000E+00  0.27534264846E+04  0.27534264846E+04  0.00000000000E+00 0.  1.
         21   -1    0    0  501  503 -0.00000000000E+00 -0.00000000000E+00 -0.40023101754E+02  0.40023101754E+02  0.00000000000E+00 0.  1.
          6    1    1    2  501    0 -0.76835634358E+02  0.16351802712E+02  0.21137466510E+03  0.28421707409E+03  0.17300000000E+03 0.  1.
         -6    1    1    2    0  502  0.76835634358E+02 -0.16351802712E+02  0.25020287177E+04  0.25092325122E+04  0.17300000000E+03 0.  1.
<mgrwt>
<rscale>  2 0.19000025E+03</rscale>
<asrwt>0</asrwt>
<pdfrwt beam="1">  1       21 0.42360393E+00 0.19000025E+03</pdfrwt>
<pdfrwt beam="2">  1       21 0.61574024E-02 0.19000025E+03</pdfrwt>
<totfact> 0.11709902E+03</totfact>
</mgrwt>
</event>
<event>
 4    2  0.3944631E+000  0.1838007E+03  0.7546771E-02  0.1164175E+00
         21   -1    0    0  503  502  0.00000000000E+00  0.00000000000E+00  0.52586139886E+03  0.52586139886E+03  0.00000000000E+00 0. -1.
         21   -1    0    0  501  503 -0.00000000000E+00 -0.00000000000E+00 -0.78576377056E+02  0.78576377056E+02  0.00000000000E+00 0. -1.
          6    1    1    2  501    0  0.24856871821E+02  0.56884374859E+02  0.94563349148E+02  0.20670008027E+03  0.17300000000E+03 0. -1.
         -6    1    1    2    0  502 -0.24856871821E+02 -0.56884374859E+02  0.35272167265E+03  0.39773769565E+03  0.17300000000E+03 0. -1.
<mgrwt>
<rscale>  2 0.18380070E+03</rscale>
<asrwt>0</asrwt>
<pdfrwt beam="1">  1       21 0.80901751E-01 0.18380070E+03</pdfrwt>
<pdfrwt beam="2">  1       21 0.12088674E-01 0.18380070E+03</pdfrwt>
<totfact> 0.77950030E+04</totfact>
</mgrwt>
</event>
<event>
 4    2  0.3944631E+000  0.3595434E+03  0.7546771E-02  0.1058765E+00
         21   -1    0    0  503  502  0.00000000000E+00  0.00000000000E+00  0.11499097340E+04  0.11499097340E+04  0.00000000000E+00 0. -1.
         21   -1    0    0  501  503 -0.00000000000E+00 -0.00000000000E+00 -0.11260211306E+03  0.11260211306E+03  0.00000000000E+00 0.  1.
          6    1    1    2  501    0  0.90655334454E+02 -0.30186760664E+03  0.54412566833E+03  0.65218416459E+03  0.17300000000E+03 0.  1.
         -6    1    1    2    0  502 -0.90655334454E+02  0.30186760664E+03  0.49318195256E+03  0.61032768242E+03  0.17300000000E+03 0. -1.
<mgrwt>
<rscale>  2 0.35954338E+03</rscale>
<asrwt>0</asrwt>
<pdfrwt beam="1">  1       21 0.17690918E+00 0.35954338E+03</pdfrwt>
<pdfrwt beam="2">  1       21 0.17323403E-01 0.35954338E+03</pdfrwt>
<totfact> 0.51737526E+03</totfact>
</mgrwt>
</event>
<event>
 4    2  0.3944631E+000  0.2176124E+03  0.7546771E-02  0.1135676E+00
         21   -1    0    0  501  502  0.00000000000E+00  0.00000000000E+00  0.11766989929E+03  0.11766989929E+03  0.00000000000E+00 0.  1.
         21   -1    0    0  502  503 -0.00000000000E+00 -0.00000000000E+00 -0.53477619066E+03  0.53477619066E+03  0.00000000000E+00 0.  1.
          6    1    1    2  501    0  0.21688213491E+01 -0.13199042599E+03 -0.37083370532E+03  0.42996838644E+03  0.17300000000E+03 0.  1.
         -6    1    1    2    0  503 -0.21688213491E+01  0.13199042599E+03 -0.46272586055E+02  0.22247770351E+03  0.17300000000E+03 0.  1.
<mgrwt>
<rscale>  2 0.21761245E+03</rscale>
<asrwt>0</asrwt>
<pdfrwt beam="1">  1       21 0.18103061E-01 0.21761245E+03</pdfrwt>
<pdfrwt beam="2">  1       21 0.82273261E-01 0.21761245E+03</pdfrwt>
<totfact> 0.35387858E+04</totfact>
</mgrwt>
</event>
<event>
 4    2  0.3944631E+000  0.2670026E+03  0.7546771E-02  0.1103007E+00
         21   -1    0    0  501  502  0.00000000000E+00  0.00000000000E+00  0.12150590036E+04  0.12150590036E+04  0.00000000000E+00 0. -1.
         21   -1    0    0  502  503 -0.00000000000E+00 -0.00000000000E+00 -0.60322374046E+02  0.60322374046E+02  0.00000000000E+00 0. -1.
          6    1    1    2  501    0  0.15053262100E+03  0.13675281032E+03  0.68283427673E+03  0.73318009425E+03  0.17300000000E+03 0. -1.
         -6    1    1    2    0  503 -0.15053262100E+03 -0.13675281032E+03  0.47190235279E+03  0.54220128336E+03  0.17300000000E+03 0. -1.
<mgrwt>
<rscale>  2 0.26700262E+03</rscale>
<asrwt>0</asrwt>
<pdfrwt beam="1">  1       21 0.18693214E+00 0.26700262E+03</pdfrwt>
<pdfrwt beam="2">  1       21 0.92803662E-02 0.26700262E+03</pdfrwt>
<totfact> 0.14388938E+04</totfact>
</mgrwt>
</event>
<event>
 4    2  0.3944631E+000  0.1754546E+03  0.7546771E-02  0.1172276E+00
         21   -1    0    0  501  502  0.00000000000E+00  0.00000000000E+00  0.50834558906E+02  0.50834558906E+02  0.00000000000E+00 0.  1.
         21   -1    0    0  502  503 -0.00000000000E+00 -0.00000000000E+00 -0.64382574143E+03  0.64382574143E+03  0.00000000000E+00 0.  1.
          6    1    1    2  501    0 -0.67405277227E+01 -0.28458632582E+02 -0.21183974167E+03  0.27506436453E+03  0.17300000000E+03 0.  1.
         -6    1    1    2    0  503  0.67405277227E+01  0.28458632582E+02 -0.38115144085E+03  0.41959593580E+03  0.17300000000E+03 0.  1.
<mgrwt>
<rscale>  2 0.17545463E+03</rscale>
<asrwt>0</asrwt>
<pdfrwt beam="1">  1       21 0.78207022E-02 0.17545463E+03</pdfrwt>
<pdfrwt beam="2">  1       21 0.99050104E-01 0.17545463E+03</pdfrwt>
<totfact> 0.10555670E+05</totfact>
</mgrwt>
</event>
<event>
 4    2  0.3944631E+000  0.2173639E+03  0.7546771E-02  0.1135864E+00
         21   -1    0    0  501  502  0.00000000000E+00  0.00000000000E+00  0.14512884850E+03  0.14512884850E+03  0.00000000000E+00 0. -1.
         21   -1    0    0  502  503 -0.00000000000E+00 -0.00000000000E+00 -0.36738936028E+03  0.36738936028E+03  0.00000000000E+00 0. -1.
          6    1    1    2  501    0  0.11114900737E+03  0.70455403134E+02 -0.19760620483E+03  0.29376057914E+03  0.17300000000E+03 0. -1.
         -6    1    1    2    0  503 -0.11114900737E+03 -0.70455403134E+02 -0.24654306953E+02  0.21875762963E+03  0.17300000000E+03 0. -1.
<mgrwt>
<rscale>  2 0.21736390E+03</rscale>
<asrwt>0</asrwt>
<pdfrwt beam="1">  1       21 0.22327515E-01 0.21736390E+03</pdfrwt>
<pdfrwt beam="2">  1       21 0.56521440E-01 0.21736390E+03</pdfrwt>
<totfact> 0.54627652E+04</totfact>
</mgrwt>
</event>
<event>
 4    2  0.3944631E+000  0.2008722E+03  0.7546771E-02  0.1149005E+00
         21   -1    0    0  503  502  0.00000000000E+00  0.00000000000E+00  0.17402110052E+03  0.17402110052E+03  0.00000000000E+00 0.  1.
         21   -1    0    0  501  503 -0.00000000000E+00 -0.00000000000E+00 -0.27836048091E+03  0.27836048091E+03  0.00000000000E+00 0.  1.
          6    1    1    2  501    0  0.89852850340E+02 -0.48446993181E+02 -0.14461182573E+03  0.24751207244E+03  0.17300000000E+03 0.  1.
         -6    1    1    2    0  502 -0.89852850340E+02  0.48446993181E+02  0.40272445341E+02  0.20486950900E+03  0.17300000000E+03 0.  1.
<mgrwt>
<rscale>  2 0.20087221E+03</rscale>
<asrwt>0</asrwt>
<pdfrwt beam="1">  1       21 0.26772477E-01 0.20087221E+03</pdfrwt>
<pdfrwt beam="2">  1       21 0.42824689E-01 0.20087221E+03</pdfrwt>
<totfact> 0.69408943E+04</totfact>
</mgrwt>
</event>
<event>
 4    2  0.3944631E+000  0.1820675E+03  0.7546771E-02  0.1165817E+00
         21   -1    0    0  501  502  0.00000000000E+00  0.00000000000E+00  0.27857685364E+03  0.27857685364E+03  0.00000000000E+00 0. -1.
         21   -1    0    0  502  503 -0.00000000000E+00 -0.00000000000E+00 -0.11899617422E+03  0.11899617422E+03  0.00000000000E+00 0. -1.
          6    1    1    2  501    0  0.45906465873E+02  0.33349231355E+02  0.78695818710E+02  0.19834718733E+03  0.17300000000E+03 0. -1.
         -6    1    1    2    0  503 -0.45906465873E+02 -0.33349231355E+02  0.80884860715E+02  0.19922584053E+03  0.17300000000E+03 0. -1.
<mgrwt>
<rscale>  2 0.18206750E+03</rscale>
<asrwt>0</asrwt>
<pdfrwt beam="1">  1       21 0.42857977E-01 0.18206750E+03</pdfrwt>
<pdfrwt beam="2">  1       21 0.18307104E-01 0.18206750E+03</pdfrwt>
<totfact> 0.14297192E+05</totfact>
</mgrwt>
</event>
<event>
 4    2  0.3944631E+000  0.2185368E+03  0.7546771E-02  0.1134979E+00
         21   -1    0    0  503  502  0.00000000000E+00  0.00000000000E+00  0.10648439097E+04  0.10648439097E+04  0.00000000000E+00 0.  1.
         21   -1    0    0  501  503 -0.00000000000E+00 -0.00000000000E+00 -0.11944824180E+03  0.11944824180E+03  0.00000000000E+00 0. -1.
          6    1    1    2  501    0 -0.12471413989E+03  0.47704378131E+02  0.47439400519E+01  0.21858826444E+03  0.17300000000E+03 0. -1.
         -6    1    1    2    0  502  0.12471413989E+03 -0.47704378131E+02  0.94065172781E+03  0.96570388702E+03  0.17300000000E+03 0.  1.
<mgrwt>
<rscale>  2 0.21853678E+03</rscale>
<asrwt>0</asrwt>
<pdfrwt beam="1">  1       21 0.16382213E+00 0.21853678E+03</pdfrwt>
<pdfrwt beam="2">  1       21 0.18376653E-01 0.21853678E+03</pdfrwt>
<totfact> 0.62480164E+03</totfact>
</mgrwt>
</event>
<event>
 4    2  0.3944631E+000  0.1905432E+03  0.7546771E-02  0.1157972E+00
         21   -1    0    0  501  502  0.00000000000E+00  0.00000000000E+00  0.79826470297E+02  0.79826470297E+02  0.00000000000E+00 0.  1.
         21   -1    0    0  502  503 -0.00000000000E+00 -0.00000000000E+00 -0.65058559397E+03  0.65058559397E+03  0.00000000000E+00 0. -1.
          6    1    1    2  501    0  0.68181160526E+02 -0.41581564576E+02 -0.85046052285E+02  0.20866127617E+03  0.17300000000E+03 0.  1.
         -6    1    1    2    0  503 -0.68181160526E+02  0.41581564576E+02 -0.48571307139E+03  0.52175078810E+03  0.17300000000E+03 0. -1.
<mgrwt>
<rscale>  2 0.19054316E+03</rscale>
<asrwt>0</asrwt>
<pdfrwt beam="1">  1       21 0.12280995E-01 0.19054316E+03</pdfrwt>
<pdfrwt beam="2">  1       21 0.10009009E+00 0.19054316E+03</pdfrwt>
<totfact> 0.46172095E+04</totfact>
</mgrwt>
</event>
<event>
 4    2  0.3944631E+000  0.1731182E+03  0.7546771E-02  0.1174635E+00
         21   -1    0    0  501  502  0.00000000000E+00  0.00000000000E+00  0.29830495651E+03  0.29830495651E+03  0.00000000000E+00 0.  1.
         21   -1    0    0  502  503 -0.00000000000E+00 -0.00000000000E+00 -0.10106435140E+03  0.10106435140E+03  0.00000000000E+00 0.  1.
          6    1    1    2  501    0  0.56521025726E+01  0.29950323461E+01  0.11396730640E+03  0.20726423572E+03  0.17300000000E+03 0. -1.
         -6    1    1    2    0  503 -0.56521025726E+01 -0.29950323461E+01  0.83273298701E+02  0.19210507218E+03  0.17300000000E+03 0. -1.
<mgrwt>
<rscale>  2 0.17311822E+03</rscale>
<asrwt>0</asrwt>
<pdfrwt beam="1">  1       21 0.45893070E-01 0.17311822E+03</pdfrwt>
<pdfrwt beam="2">  1       21 0.15548362E-01 0.17311822E+03</pdfrwt>
<totfact> 0.16823847E+05</totfact>
</mgrwt>
</event>
<event>
 4    2  0.3944631E+000  0.2498195E+03  0.7546771E-02  0.1113419E+00
         21   -1    0    0  503  502  0.00000000000E+00  0.00000000000E+00  0.11867447090E+03  0.11867447090E+03  0.00000000000E+00 0. -1.
         21   -1    0    0  501  503 -0.00000000000E+00 -0.00000000000E+00 -0.58457987556E+03  0.58457987556E+03  0.00000000000E+00 0. -1.
          6    1    1    2  501    0 -0.12389253323E+03  0.13088697655E+03 -0.12153844867E+03  0.27781532522E+03  0.17300000000E+03 0. -1.
         -6    1    1    2    0  502  0.12389253323E+03 -0.13088697655E+03 -0.34436695599E+03  0.42543902124E+03  0.17300000000E+03 0. -1.
<mgrwt>
<rscale>  2 0.24981946E+03</rscale>
<asrwt>0</asrwt>
<pdfrwt beam="1">  1       21 0.18257611E-01 0.24981946E+03</pdfrwt>
<pdfrwt beam="2">  1       21 0.89935365E-01 0.24981946E+03</pdfrwt>
<totfact> 0.27931861E+04</totfact>
</mgrwt>
</event>
<event>
 4    2  0.3944631E+000  0.1903964E+03  0.7546771E-02  0.1158104E+00
         21   -1    0    0  503  502  0.00000000000E+00  0.00000000000E+00  0.21639602089E+03  0.21639602089E+03  0.00000000000E+00 0. -1.
         21   -1    0    0  501  503 -0.00000000000E+00 -0.00000000000E+00 -0.16820968994E+03  0.16820968994E+03  0.00000000000E+00 0. -1.
          6    1    1    2  501    0  0.67516924484E+02 -0.41991117297E+02  0.11784770186E+02  0.19076076597E+03  0.17300000000E+03 0. -1.
         -6    1    1    2    0  502 -0.67516924484E+02  0.41991117297E+02  0.36401560756E+02  0.19384494486E+03  0.17300000000E+03 0. -1.
<mgrwt>
<rscale>  2 0.19039640E+03</rscale>
<asrwt>0</asrwt>
<pdfrwt beam="1">  1       21 0.33291696E-01 0.19039640E+03</pdfrwt>
<pdfrwt beam="2">  1       21 0.25878414E-01 0.19039640E+03</pdfrwt>
<totfact> 0.12329202E+05</totfact>
</mgrwt>
</event>
<event>
 4    2  0.3944631E+000  0.2326085E+03  0.7546771E-02  0.1124817E+00
         21   -1    0    0  501  502  0.00000000000E+00  0.00000000000E+00  0.50728223155E+03  0.50728223155E+03  0.00000000000E+00 0. -1.
         21   -1    0    0  502  503 -0.00000000000E+00 -0.00000000000E+00 -0.15252811590E+03  0.15252811590E+03  0.00000000000E+00 0. -1.
          6    1    1    2  501    0  0.39436479294E+02  0.15040774643E+03  0.35828998213E+03  0.42717494938E+03  0.17300000000E+03 0. -1.
         -6    1    1    2    0  503 -0.39436479294E+02 -0.15040774643E+03 -0.35358664798E+01  0.23263539807E+03  0.17300000000E+03 0. -1.
<mgrwt>
<rscale>  2 0.23260853E+03</rscale>
<asrwt>0</asrwt>
<pdfrwt beam="1">  1       21 0.78043420E-01 0.23260853E+03</pdfrwt>
<pdfrwt beam="2">  1       21 0.23465864E-01 0.23260853E+03</pdfrwt>
<totfact> 0.24307232E+04</totfact>
</mgrwt>
</event>
<event>
 4    2  0.3944631E+000  0.1881584E+03  0.7546771E-02  0.1160133E+00
         21   -1    0    0  503  502  0.00000000000E+00  0.00000000000E+00  0.54365084256E+02  0.54365084256E+02  0.00000000000E+00 0. -1.
         21   -1    0    0  501  503 -0.00000000000E+00 -0.00000000000E+00 -0.75739062837E+03  0.75739062837E+03  0.00000000000E+00 0. -1.
          6    1    1    2  501    0  0.50288304636E+02  0.54273929262E+02 -0.50347643027E+03  0.53748682664E+03  0.17300000000E+03 0. -1.
         -6    1    1    2    0  502 -0.50288304636E+02 -0.54273929262E+02 -0.19954911384E+03  0.27426888598E+03  0.17300000000E+03 0. -1.
<mgrwt>
<rscale>  2 0.18815837E+03</rscale>
<asrwt>0</asrwt>
<pdfrwt beam="1">  1       21 0.83638596E-02 0.18815837E+03</pdfrwt>
<pdfrwt beam="2">  1       21 0.11652163E+00 0.18815837E+03</pdfrwt>
<totfact> 0.63185689E+04</totfact>
</mgrwt>
</event>
<event>
 4    2  0.3944631E+000  0.2487892E+03  0.7546771E-02  0.1114072E+00
         21   -1    0    0  503  502  0.00000000000E+00  0.00000000000E+00  0.11058667739E+03  0.11058667739E+03  0.00000000000E+00 0.  1.
         21   -1    0    0  501  503 -0.00000000000E+00 -0.00000000000E+00 -0.77926243777E+03  0.77926243777E+03  0.00000000000E+00 0. -1.
          6    1    1    2  501    0 -0.92873718498E+02  0.15277937336E+03 -0.57050381665E+03  0.62239109033E+03  0.17300000000E+03 0. -1.
         -6    1    1    2    0  502  0.92873718498E+02 -0.15277937336E+03 -0.98171943728E+02  0.26745802483E+03  0.17300000000E+03 0.  1.
<mgrwt>
<rscale>  2 0.24878920E+03</rscale>
<asrwt>0</asrwt>
<pdfrwt beam="1">  1       21 0.17013335E-01 0.24878920E+03</pdfrwt>
<pdfrwt beam="2">  1       21 0.11988653E+00 0.24878920E+03</pdfrwt>
<totfact> 0.15939865E+04</totfact>
</mgrwt>
</event>
<event>
 4    2  0.3944631E+000  0.2016516E+03  0.7546771E-02  0.1148353E+00
         21   -1    0    0  501  502  0.00000000000E+00  0.00000000000E+00  0.62835609863E+03  0.62835609863E+03  0.00000000000E+00 0.  1.
         21   -1    0    0  502  503 -0.00000000000E+00 -0.00000000000E+00 -0.12271649740E+03  0.12271649740E+03  0.00000000000E+00 0. -1.
          6    1    1    2  501    0 -0.10354152956E+03  0.36741615803E+01  0.51100082564E+03  0.54934978985E+03  0.17300000000E+03 0.  1.
         -6    1    1    2    0  503  0.10354152956E+03 -0.36741615803E+01 -0.53612244149E+01  0.20172280618E+03  0.17300000000E+03 0. -1.
<mgrwt>
<rscale>  2 0.20165155E+03</rscale>
<asrwt>0</asrwt>
<pdfrwt beam="1">  1       21 0.96670167E-01 0.20165155E+03</pdfrwt>
<pdfrwt beam="2">  1       21 0.18879462E-01 0.20165155E+03</pdfrwt>
<totfact> 0.22730001E+04</totfact>
</mgrwt>
</event>
<event>
 4    2  0.3944631E+000  0.2268768E+03  0.7546771E-02  0.1128858E+00
         21   -1    0    0  503  502  0.00000000000E+00  0.00000000000E+00  0.33928264845E+03  0.33928264845E+03  0.00000000000E+00 0. -1.
         21   -1    0    0  501  503 -0.00000000000E+00 -0.00000000000E+00 -0.15731500104E+03  0.15731500104E+03  0.00000000000E+00 0. -1.
          6    1    1    2  501    0 -0.14434307603E+03 -0.26629793000E+02  0.44121861335E+02  0.23112725526E+03  0.17300000000E+03 0. -1.
         -6    1    1    2    0  502  0.14434307603E+03  0.26629793000E+02  0.13784578608E+03  0.26547039423E+03  0.17300000000E+03 0. -1.
<mgrwt>
<rscale>  2 0.22687677E+03</rscale>
<asrwt>0</asrwt>
<pdfrwt beam="1">  1       21 0.52197330E-01 0.22687677E+03</pdfrwt>
<pdfrwt beam="2">  1       21 0.24202308E-01 0.22687677E+03</pdfrwt>
<totfact> 0.55242472E+04</totfact>
</mgrwt>
</event>
<event>
 4    2  0.3944631E+000  0.1753734E+03  0.7546771E-02  0.1172357E+00
         21   -1    0    0  503  502  0.00000000000E+00  0.00000000000E+00  0.29874650060E+03  0.29874650060E+03  0.00000000000E+00 0.  1.
         21   -1    0    0  501  503 -0.00000000000E+00 -0.00000000000E+00 -0.11559926809E+03  0.11559926809E+03  0.00000000000E+00 0.  1.
          6    1    1    2  501    0  0.24371995641E+02  0.15259218394E+02  0.23041421883E+02  0.17688059543E+03  0.17300000000E+03 0.  1.
         -6    1    1    2    0  502 -0.24371995641E+02 -0.15259218394E+02  0.16010581062E+03  0.23746517326E+03  0.17300000000E+03 0.  1.
<mgrwt>
<rscale>  2 0.17537342E+03</rscale>
<asrwt>0</asrwt>
<pdfrwt beam="1">  1       21 0.45961000E-01 0.17537342E+03</pdfrwt>
<pdfrwt beam="2">  1       21 0.17784503E-01 0.17537342E+03</pdfrwt>
<totfact> 0.13102839E+05</totfact>
</mgrwt>
</event>
<event>
 4    2  0.3944631E+000  0.2057735E+03  0.7546771E-02  0.1144957E+00
         21   -1    0    0  503  502  0.00000000000E+00  0.00000000000E+00  0.68593409873E+03  0.68593409873E+03  0.00000000000E+00 0.  1.
         21   -1    0    0  501  503 -0.00000000000E+00 -0.00000000000E+00 -0.65450408631E+02  0.65450408631E+02  0.00000000000E+00 0.  1.
          6    1    1    2  501    0 -0.10685685359E+03 -0.31549338472E+02  0.39981302955E+03  0.44965898914E+03  0.17300000000E+03 0.  1.
         -6    1    1    2    0  502  0.10685685359E+03  0.31549338472E+02  0.22067066055E+03  0.30172551822E+03  0.17300000000E+03 0.  1.
<mgrwt>
<rscale>  2 0.20577354E+03</rscale>
<asrwt>0</asrwt>
<pdfrwt beam="1">  1       21 0.10552832E+00 0.20577354E+03</pdfrwt>
<pdfrwt beam="2">  1       21 0.10069294E-01 0.20577354E+03</pdfrwt>
<totfact> 0.57486088E+04</totfact>
</mgrwt>
</event>
<event>
 4    2  0.3944631E+000  0.1731282E+03  0.7546771E-02  0.1174624E+00
         21   -1    0    0  501  502  0.00000000000E+00  0.00000000000E+00  0.20726030057E+02  0.20726030057E+02  0.00000000000E+00 0. -1.
         21   -1    0    0  502  503 -0.00000000000E+00 -0.00000000000E+00 -0.21163722629E+04  0.21163722629E+04  0.00000000000E+00 0. -1.
          6    1    1    2  501    0  0.97767000814E+00  0.65899767757E+01 -0.44650942587E+03  0.47889878996E+03  0.17300000000E+03 0. -1.
         -6    1    1    2    0  503 -0.97767000814E+00 -0.65899767757E+01 -0.16491368070E+04  0.16581995030E+04  0.17300000000E+03 0. -1.
<mgrwt>
<rscale>  2 0.17312823E+03</rscale>
<asrwt>0</asrwt>
<pdfrwt beam="1">  1       21 0.31886231E-02 0.17312823E+03</pdfrwt>
<pdfrwt beam="2">  1       21 0.32559542E+00 0.17312823E+03</pdfrwt>
<totfact> 0.14208453E+04</totfact>
</mgrwt>
</event>
<event>
 4    2  0.3944631E+000  0.2313012E+03  0.7546771E-02  0.1125727E+00
         21   -1    0    0  503  502  0.00000000000E+00  0.00000000000E+00  0.20845892449E+03  0.20845892449E+03  0.00000000000E+00 0.  1.
         21   -1    0    0  501  503 -0.00000000000E+00 -0.00000000000E+00 -0.26610501309E+03  0.26610501309E+03  0.00000000000E+00 0.  1.
          6    1    1    2  501    0  0.11930560592E+03  0.96630292838E+02 -0.73558410250E+02  0.24271604977E+03  0.17300000000E+03 0.  1.
         -6    1    1    2    0  502 -0.11930560592E+03 -0.96630292838E+02  0.15912321649E+02  0.23184788780E+03  0.17300000000E+03 0.  1.
<mgrwt>
<rscale>  2 0.23130119E+03</rscale>
<asrwt>0</asrwt>
<pdfrwt beam="1">  1       21 0.32070604E-01 0.23130119E+03</pdfrwt>
<pdfrwt beam="2">  1       21 0.40939233E-01 0.23130119E+03</pdfrwt>
<totfact> 0.52807117E+04</totfact>
</mgrwt>
</event>
<event>
 4    2  0.3944631E+000  0.3158634E+03  0.7546771E-02  0.1077569E+00
         21   -1    0    0  501  502  0.00000000000E+00  0.00000000000E+00  0.72335178767E+02  0.72335178767E+02  0.00000000000E+00 0. -1.
         21   -1    0    0  502  503 -0.00000000000E+00 -0.00000000000E+00 -0.13952928918E+04  0.13952928918E+04  0.00000000000E+00 0.  1.
          6    1    1    2  501    0 -0.11542029418E+03  0.23773693298E+03 -0.74011692575E+03  0.80470041468E+03  0.17300000000E+03 0.  1.
         -6    1    1    2    0  503  0.11542029418E+03 -0.23773693298E+03 -0.58284078725E+03  0.66292765585E+03  0.17300000000E+03 0. -1.
<mgrwt>
<rscale>  2 0.31586341E+03</rscale>
<asrwt>0</asrwt>
<pdfrwt beam="1">  1       21 0.11128490E-01 0.31586341E+03</pdfrwt>
<pdfrwt beam="2">  1       21 0.21466042E+00 0.31586341E+03</pdfrwt>
<totfact> 0.66662877E+03</totfact>
</mgrwt>
</event>
<event>
 4    2  0.3944631E+000  0.1933421E+03  0.7546771E-02  0.1155481E+00
         21   -1    0    0  501  502  0.00000000000E+00  0.00000000000E+00  0.23618826435E+02  0.23618826435E+02  0.00000000000E+00 0.  1.
         21   -1    0    0  502  503 -0.00000000000E+00 -0.00000000000E+00 -0.20929997749E+04  0.20929997749E+04  0.00000000000E+00 0.  1.
          6    1    1    2  501    0  0.29811781636E+02 -0.81014850630E+02 -0.51211701965E+03  0.54739838341E+03  0.17300000000E+03 0.  1.
         -6    1    1    2    0  503 -0.29811781636E+02  0.81014850630E+02 -0.15572639288E+04  0.15692202179E+04  0.17300000000E+03 0.  1.
<mgrwt>
<rscale>  2 0.19334205E+03</rscale>
<asrwt>0</asrwt>
<pdfrwt beam="1">  1       21 0.36336632E-02 0.19334205E+03</pdfrwt>
<pdfrwt beam="2">  1       21 0.32200018E+00 0.19334205E+03</pdfrwt>
<totfact> 0.11717087E+04</totfact>
</mgrwt>
</event>
<event>
 4    2  0.3944631E+000  0.2053113E+03  0.7546771E-02  0.1145334E+00
         21   -1    0    0  503  502  0.00000000000E+00  0.00000000000E+00  0.31467557069E+02  0.31467557069E+02  0.00000000000E+00 0. -1.
         21   -1    0    0  501  503 -0.00000000000E+00 -0.00000000000E+00 -0.13610598951E+04  0.13610598951E+04  0.00000000000E+00 0.  1.
          6    1    1    2  501    0 -0.95482756388E+02  0.55738270497E+02 -0.75230329701E+03  0.77981597974E+03  0.17300000000E+03 0. -1.
         -6    1    1    2    0  502  0.95482756388E+02 -0.55738270497E+02 -0.57728904106E+03  0.61271147247E+03  0.17300000000E+03 0.  1.
<mgrwt>
<rscale>  2 0.20531126E+03</rscale>
<asrwt>0</asrwt>
<pdfrwt beam="1">  1       21 0.48411629E-02 0.20531126E+03</pdfrwt>
<pdfrwt beam="2">  1       21 0.20939382E+00 0.20531126E+03</pdfrwt>
<totfact> 0.32957758E+04</totfact>
</mgrwt>
</event>
<event>
 4    2  0.3944631E+000  0.1831281E+03  0.7546771E-02  0.1164810E+00
         21   -1    0    0  503  502  0.00000000000E+00  0.00000000000E+00  0.44978569775E+02  0.44978569775E+02  0.00000000000E+00 0.  1.
         21   -1    0    0  501  503 -0.00000000000E+00 -0.00000000000E+00 -0.12840584786E+04  0.12840584786E+04  0.00000000000E+00 0.  1.
          6    1    1    2  501    0 -0.56425609686E+02 -0.20567942273E+02 -0.10498604023E+04  0.10657123224E+04  0.17300000000E+03 0.  1.
         -6    1    1    2    0  502  0.56425609686E+02  0.20567942273E+02 -0.18921950644E+03  0.26332472595E+03  0.17300000000E+03 0.  1.
<mgrwt>
<rscale>  2 0.18312807E+03</rscale>
<asrwt>0</asrwt>
<pdfrwt beam="1">  1       21 0.69197811E-02 0.18312807E+03</pdfrwt>
<pdfrwt beam="2">  1       21 0.19754743E+00 0.18312807E+03</pdfrwt>
<totfact> 0.21640587E+04</totfact>
</mgrwt>
</event>
<event>
 4    2  0.3944631E+000  0.1904438E+03  0.7546771E-02  0.1158062E+00
         21   -1    0    0  503  502  0.00000000000E+00  0.00000000000E+00  0.34154272894E+03  0.34154272894E+03  0.00000000000E+00 0. -1.
         21   -1    0    0  501  503 -0.00000000000E+00 -0.00000000000E+00 -0.11553470268E+04  0.11553470268E+04  0.00000000000E+00 0.  1.
          6    1    1    2  501    0 -0.71722014580E+02  0.34580505076E+02 -0.11201222547E+04  0.11361966045E+04  0.17300000000E+03 0.  1.
         -6    1    1    2    0  502  0.71722014580E+02 -0.34580505076E+02  0.30631795679E+03  0.36069315125E+03  0.17300000000E+03 0. -1.
<mgrwt>
<rscale>  2 0.19044385E+03</rscale>
<asrwt>0</asrwt>
<pdfrwt beam="1">  1       21 0.52545035E-01 0.19044385E+03</pdfrwt>
<pdfrwt beam="2">  1       21 0.17774570E+00 0.19044385E+03</pdfrwt>
<totfact> 0.64915147E+02</totfact>
</mgrwt>
</event>
<event>
 4    2  0.3944631E+000  0.1743132E+03  0.7546771E-02  0.1173423E+00
         21   -1    0    0  503  502  0.00000000000E+00  0.00000000000E+00  0.57572813564E+02  0.57572813564E+02  0.00000000000E+00 0. -1.
         21   -1    0    0  501  503 -0.00000000000E+00 -0.00000000000E+00 -0.63491652128E+03  0.63491652128E+03  0.00000000000E+00 0. -1.
          6    1    1    2  501    0 -0.14313675973E+02  0.15850105734E+02 -0.43091037198E+03  0.46483207274E+03  0.17300000000E+03 0. -1.
         -6    1    1    2    0  502  0.14313675973E+02 -0.15850105734E+02 -0.14643333573E+03  0.22765726210E+03  0.17300000000E+03 0. -1.
<mgrwt>
<rscale>  2 0.17431324E+03</rscale>
<asrwt>0</asrwt>
<pdfrwt beam="1">  1       21 0.88573564E-02 0.17431324E+03</pdfrwt>
<pdfrwt beam="2">  1       21 0.97679460E-01 0.17431324E+03</pdfrwt>
<totfact> 0.87864893E+04</totfact>
</mgrwt>
</event>
<event>
 4    2  0.3944631E+000  0.1846605E+03  0.7546771E-02  0.1163367E+00
         21   -1    0    0  503  502  0.00000000000E+00  0.00000000000E+00  0.20272561232E+03  0.20272561232E+03  0.00000000000E+00 0.  1.
         21   -1    0    0  501  503 -0.00000000000E+00 -0.00000000000E+00 -0.22229772444E+03  0.22229772444E+03  0.00000000000E+00 0.  1.
          6    1    1    2  501    0  0.52649016214E+02 -0.37397587954E+02 -0.11461566606E+03  0.21733901950E+03  0.17300000000E+03 0.  1.
         -6    1    1    2    0  502 -0.52649016214E+02  0.37397587954E+02  0.95043553936E+02  0.20768431726E+03  0.17300000000E+03 0.  1.
<mgrwt>
<rscale>  2 0.18466050E+03</rscale>
<asrwt>0</asrwt>
<pdfrwt beam="1">  1       21 0.31188556E-01 0.18466050E+03</pdfrwt>
<pdfrwt beam="2">  1       21 0.34199650E-01 0.18466050E+03</pdfrwt>
<totfact> 0.81636866E+04</totfact>
</mgrwt>
</event>
<event>
 4    2  0.3944631E+000  0.2445121E+03  0.7546771E-02  0.1116823E+00
         21   -1    0    0  501  502  0.00000000000E+00  0.00000000000E+00  0.54663366766E+02  0.54663366766E+02  0.00000000000E+00 0.  1.
         21   -1    0    0  502  503 -0.00000000000E+00 -0.00000000000E+00 -0.11214739869E+04  0.11214739869E+04  0.00000000000E+00 0.  1.
          6    1    1    2  501    0 -0.16641032519E+03  0.46527221117E+02 -0.44088643982E+03  0.50414981052E+03  0.17300000000E+03 0.  1.
         -6    1    1    2    0  503  0.16641032519E+03 -0.46527221117E+02 -0.62592418031E+03  0.67198754314E+03  0.17300000000E+03 0.  1.
<mgrwt>
<rscale>  2 0.24451212E+03</rscale>
<asrwt>0</asrwt>
<pdfrwt beam="1">  1       21 0.84097488E-02 0.24451212E+03</pdfrwt>
<pdfrwt beam="2">  1       21 0.17253446E+00 0.24451212E+03</pdfrwt>
<totfact> 0.21794849E+04</totfact>
</mgrwt>
</event>
<event>
 4    2  0.3944631E+000  0.2229536E+03  0.7546771E-02  0.1131700E+00
         21   -1    0    0  501  502  0.00000000000E+00  0.00000000000E+00  0.35577888247E+03  0.35577888247E+03  0.00000000000E+00 0.  1.
         21   -1    0    0  502  503 -0.00000000000E+00 -0.00000000000E+00 -0.18829025817E+03  0.18829025817E+03  0.00000000000E+00 0. -1.
          6    1    1    2  501    0  0.14061232393E+03 -0.27350179791E+01  0.22191294036E+03  0.31456900525E+03  0.17300000000E+03 0.  1.
         -6    1    1    2    0  503 -0.14061232393E+03  0.27350179791E+01 -0.54424316065E+02  0.22950013539E+03  0.17300000000E+03 0. -1.
<mgrwt>
<rscale>  2 0.22295360E+03</rscale>
<asrwt>0</asrwt>
<pdfrwt beam="1">  1       21 0.54735213E-01 0.22295360E+03</pdfrwt>
<pdfrwt beam="2">  1       21 0.28967732E-01 0.22295360E+03</pdfrwt>
<totfact> 0.35392400E+04</totfact>
</mgrwt>
</event>
<event>
 4    2  0.3944631E+000  0.3204905E+03  0.7546771E-02  0.1075424E+00
         21   -1    0    0  503  502  0.00000000000E+00  0.00000000000E+00  0.20307731483E+03  0.20307731483E+03  0.00000000000E+00 0.  1.
         21   -1    0    0  501  503 -0.00000000000E+00 -0.00000000000E+00 -0.57111393853E+03  0.57111393853E+03  0.00000000000E+00 0. -1.
          6    1    1    2  501    0  0.26971061477E+03  0.64285038210E+01 -0.53100563373E+02  0.32485967927E+03  0.17300000000E+03 0.  1.
         -6    1    1    2    0  502 -0.26971061477E+03 -0.64285038210E+01 -0.31493606033E+03  0.44933157409E+03  0.17300000000E+03 0. -1.
<mgrwt>
<rscale>  2 0.32049047E+03</rscale>
<asrwt>0</asrwt>
<pdfrwt beam="1">  1       21 0.31242663E-01 0.32049047E+03</pdfrwt>
<pdfrwt beam="2">  1       21 0.87863684E-01 0.32049047E+03</pdfrwt>
<totfact> 0.10193614E+04</totfact>
</mgrwt>
</event>
<event>
 4    2  0.3944631E+000  0.1790496E+03  0.7546771E-02  0.1168726E+00
         21   -1    0    0  503  502  0.00000000000E+00  0.00000000000E+00  0.12183821248E+03  0.12183821248E+03  0.00000000000E+00 0. -1.
         21   -1    0    0  501  503 -0.00000000000E+00 -0.00000000000E+00 -0.29101077657E+03  0.29101077657E+03  0.00000000000E+00 0. -1.
          6    1    1    2  501    0 -0.46106798099E+02 -0.19767195963E+01 -0.14848526373E+03  0.23260829262E+03  0.17300000000E+03 0. -1.
         -6    1    1    2    0  502  0.46106798099E+02  0.19767195963E+01 -0.20687300363E+02  0.18024069642E+03  0.17300000000E+03 0. -1.
<mgrwt>
<rscale>  2 0.17904956E+03</rscale>
<asrwt>0</asrwt>
<pdfrwt beam="1">  1       21 0.18744340E-01 0.17904956E+03</pdfrwt>
<pdfrwt beam="2">  1       21 0.44770888E-01 0.17904956E+03</pdfrwt>
<totfact> 0.12531319E+05</totfact>
</mgrwt>
</event>
<event>
 4    2  0.3944631E+000  0.1860525E+03  0.7546771E-02  0.1162071E+00
         21   -1    0    0  501  502  0.00000000000E+00  0.00000000000E+00  0.15377420394E+03  0.15377420394E+03  0.00000000000E+00 0.  1.
         21   -1    0    0  502  503 -0.00000000000E+00 -0.00000000000E+00 -0.46132251257E+03  0.46132251257E+03  0.00000000000E+00 0.  1.
          6    1    1    2  501    0  0.68442729984E+02 -0.14565633653E+01  0.66298468111E+02  0.19751206479E+03  0.17300000000E+03 0.  1.
         -6    1    1    2    0  503 -0.68442729984E+02  0.14565633653E+01 -0.37384677674E+03  0.41758465171E+03  0.17300000000E+03 0.  1.
<mgrwt>
<rscale>  2 0.18605249E+03</rscale>
<asrwt>0</asrwt>
<pdfrwt beam="1">  1       21 0.23657570E-01 0.18605249E+03</pdfrwt>
<pdfrwt beam="2">  1       21 0.70972695E-01 0.18605249E+03</pdfrwt>
<totfact> 0.30347840E+04</totfact>
</mgrwt>
</event>
<event>
 4    2  0.3944631E+000  0.1912455E+03  0.7546771E-02  0.1157343E+00
         21   -1    0    0  501  502  0.00000000000E+00  0.00000000000E+00  0.13075415602E+04  0.13075415602E+04  0.00000000000E+00 0.  1.
         21   -1    0    0  502  503 -0.00000000000E+00 -0.00000000000E+00 -0.36099078706E+02  0.36099078706E+02  0.00000000000E+00 0.  1.
          6    1    1    2  501    0 -0.63363724680E+02  0.51292121550E+02  0.95448311082E+03  0.97345408325E+03  0.17300000000E+03 0.  1.
         -6    1    1    2    0  503  0.63363724680E+02 -0.51292121550E+02  0.31695937069E+03  0.37018655568E+03  0.17300000000E+03 0.  1.
<mgrwt>
<rscale>  2 0.19124551E+03</rscale>
<asrwt>0</asrwt>
<pdfrwt beam="1">  1       21 0.20116020E+00 0.19124551E+03</pdfrwt>
<pdfrwt beam="2">  1       21 0.55537054E-02 0.19124551E+03</pdfrwt>
<totfact> 0.29728904E+04</totfact>
</mgrwt>
</event>
<event>
 4    2  0.3944631E+000  0.2126778E+03  0.7546771E-02  0.1139463E+00
         21   -1    0    0  501  502  0.00000000000E+00  0.00000000000E+00  0.41580175045E+03  0.41580175045E+03  0.00000000000E+00 0.  1.
         21   -1    0    0  502  503 -0.00000000000E+00 -0.00000000000E+00 -0.12328238312E+03  0.12328238312E+03  0.00000000000E+00 0.  1.
          6    1    1    2  501    0 -0.99007248309E+02 -0.74164624762E+02  0.23870030871E+03  0.31970246193E+03  0.17300000000E+03 0.  1.
         -6    1    1    2    0  503  0.99007248309E+02  0.74164624762E+02  0.53819058626E+02  0.21938167165E+03  0.17300000000E+03 0.  1.
<mgrwt>
<rscale>  2 0.21267775E+03</rscale>
<asrwt>0</asrwt>
<pdfrwt beam="1">  1       21 0.63969500E-01 0.21267775E+03</pdfrwt>
<pdfrwt beam="2">  1       21 0.18966521E-01 0.21267775E+03</pdfrwt>
<totfact> 0.56961373E+04</totfact>
</mgrwt>
</event>
<event>
 4    2  0.3944631E+000  0.1969260E+03  0.7546771E-02  0.1152359E+00
         21   -1    0    0  503  502  0.00000000000E+00  0.00000000000E+00  0.44695897659E+02  0.44695897659E+02  0.00000000000E+00 0. -1.
         21   -1    0    0  501  503 -0.00000000000E+00 -0.00000000000E+00 -0.88884661005E+03  0.88884661005E+03  0.00000000000E+00 0. -1.
          6    1    1    2  501    0  0.89546966853E+01 -0.93651875766E+02 -0.34997348653E+03  0.40157353213E+03  0.17300000000E+03 0. -1.
         -6    1    1    2    0  502 -0.89546966853E+01  0.93651875766E+02 -0.49417722585E+03  0.53196897558E+03  0.17300000000E+03 0. -1.
<mgrwt>
<rscale>  2 0.19692603E+03</rscale>
<asrwt>0</asrwt>
<pdfrwt beam="1">  1       21 0.68762924E-02 0.19692603E+03</pdfrwt>
<pdfrwt beam="2">  1       21 0.13674562E+00 0.19692603E+03</pdfrwt>
<totfact> 0.59172454E+04</totfact>
</mgrwt>
</event>
<event>
 4    2  0.3944631E+000  0.1816772E+03  0.7546771E-02  0.1166190E+00
         21   -1    0    0  503  502  0.00000000000E+00  0.00000000000E+00  0.26137434417E+03  0.26137434417E+03  0.00000000000E+00 0. -1.
         21   -1    0    0  501  503 -0.00000000000E+00 -0.00000000000E+00 -0.60253111498E+03  0.60253111498E+03  0.00000000000E+00 0. -1.
          6    1    1    2  501    0 -0.92532210205E+01  0.54698906746E+02 -0.55460742548E+03  0.58360602198E+03  0.17300000000E+03 0. -1.
         -6    1    1    2    0  502  0.92532210205E+01 -0.54698906746E+02  0.21345065467E+03  0.28029943717E+03  0.17300000000E+03 0. -1.
<mgrwt>
<rscale>  2 0.18167717E+03</rscale>
<asrwt>0</asrwt>
<pdfrwt beam="1">  1       21 0.40211438E-01 0.18167717E+03</pdfrwt>
<pdfrwt beam="2">  1       21 0.92697094E-01 0.18167717E+03</pdfrwt>
<totfact> 0.58963107E+03</totfact>
</mgrwt>
</event>
<event>
 4    2  0.3944631E+000  0.1884313E+03  0.7546771E-02  0.1159884E+00
         21   -1    0    0  501  502  0.00000000000E+00  0.00000000000E+00  0.59288823587E+02  0.59288823587E+02  0.00000000000E+00 0. -1.
         21   -1    0    0  502  503 -0.00000000000E+00 -0.00000000000E+00 -0.66275823063E+03  0.66275823063E+03  0.00000000000E+00 0.  1.
          6    1    1    2  501    0  0.59287388949E+02  0.45413195226E+02 -0.18964512999E+03  0.26734178147E+03  0.17300000000E+03 0.  1.
         -6    1    1    2    0  503 -0.59287388949E+02 -0.45413195226E+02 -0.41382427706E+03  0.45470527275E+03  0.17300000000E+03 0.  1.
<mgrwt>
<rscale>  2 0.18843129E+03</rscale>
<asrwt>0</asrwt>
<pdfrwt beam="1">  1       21 0.91213571E-02 0.18843129E+03</pdfrwt>
<pdfrwt beam="2">  1       21 0.10196281E+00 0.18843129E+03</pdfrwt>
<totfact> 0.74927554E+04</totfact>
</mgrwt>
</event>
<event>
 4    2  0.3944631E+000  0.1933144E+03  0.7546771E-02  0.1155506E+00
         21   -1    0    0  501  502  0.00000000000E+00  0.00000000000E+00  0.16600461691E+03  0.16600461691E+03  0.00000000000E+00 0.  1.
         21   -1    0    0  502  503 -0.00000000000E+00 -0.00000000000E+00 -0.69715732290E+03  0.69715732290E+03  0.00000000000E+00 0.  1.
          6    1    1    2  501    0  0.19350540872E+02 -0.84065448752E+02  0.89552934356E+02  0.21304969176E+03  0.17300000000E+03 0.  1.
         -6    1    1    2    0  503 -0.19350540872E+02  0.84065448752E+02 -0.62070564035E+03  0.65011224805E+03  0.17300000000E+03 0.  1.
<mgrwt>
<rscale>  2 0.19331436E+03</rscale>
<asrwt>0</asrwt>
<pdfrwt beam="1">  1       21 0.25539172E-01 0.19331436E+03</pdfrwt>
<pdfrwt beam="2">  1       21 0.10725497E+00 0.19331436E+03</pdfrwt>
<totfact> 0.10090676E+04</totfact>
</mgrwt>
</event>
<event>
 4    2  0.3944631E+000  0.1833459E+03  0.7546771E-02  0.1164604E+00
         21   -1    0    0  503  502  0.00000000000E+00  0.00000000000E+00  0.33246693337E+03  0.33246693337E+03  0.00000000000E+00 0. -1.
         21   -1    0    0  501  503 -0.00000000000E+00 -0.00000000000E+00 -0.14450484051E+03  0.14450484051E+03  0.00000000000E+00 0. -1.
          6    1    1    2  501    0  0.54716666575E+02 -0.26320962470E+02 -0.36708517869E+02  0.18698455003E+03  0.17300000000E+03 0. -1.
         -6    1    1    2    0  502 -0.54716666575E+02  0.26320962470E+02  0.22467061074E+03  0.28998722385E+03  0.17300000000E+03 0. -1.
<mgrwt>
<rscale>  2 0.18334587E+03</rscale>
<asrwt>0</asrwt>
<pdfrwt beam="1">  1       21 0.51148759E-01 0.18334587E+03</pdfrwt>
<pdfrwt beam="2">  1       21 0.22231514E-01 0.18334587E+03</pdfrwt>
<totfact> 0.69047172E+04</totfact>
</mgrwt>
</event>
<event>
 4    2  0.3944631E+000  0.2293418E+03  0.7546771E-02  0.1127104E+00
         21   -1    0    0  503  502  0.00000000000E+00  0.00000000000E+00  0.64119384575E+03  0.64119384575E+03  0.00000000000E+00 0. -1.
         21   -1    0    0  501  503 -0.00000000000E+00 -0.00000000000E+00 -0.99140661517E+02  0.99140661517E+02  0.00000000000E+00 0.  1.
          6    1    1    2  501    0  0.79467120926E+02  0.12788134269E+03  0.11724831126E+03  0.25757489709E+03  0.17300000000E+03 0.  1.
         -6    1    1    2    0  502 -0.79467120926E+02 -0.12788134269E+03  0.42480487298E+03  0.48275961018E+03  0.17300000000E+03 0. -1.
<mgrwt>
<rscale>  2 0.22934180E+03</rscale>
<asrwt>0</asrwt>
<pdfrwt beam="1">  1       21 0.98645205E-01 0.22934180E+03</pdfrwt>
<pdfrwt beam="2">  1       21 0.15252410E-01 0.22934180E+03</pdfrwt>
<totfact> 0.31633177E+04</totfact>
</mgrwt>
</event>
<event>
 4    2  0.3944631E+000  0.2721868E+03  0.7546771E-02  0.1100035E+00
         21   -1    0    0  501  502  0.00000000000E+00  0.00000000000E+00  0.69554551113E+03  0.69554551113E+03  0.00000000000E+00 0.  1.
         21   -1    0    0  502  503 -0.00000000000E+00 -0.00000000000E+00 -0.12937260136E+03  0.12937260136E+03  0.00000000000E+00 0.  1.
          6    1    1    2  501    0 -0.18161645952E+03  0.10569818570E+03  0.45645898128E+03  0.53145126439E+03  0.17300000000E+03 0.  1.
         -6    1    1    2    0  503  0.18161645952E+03 -0.10569818570E+03  0.10971392848E+03  0.29346684810E+03  0.17300000000E+03 0.  1.
<mgrwt>
<rscale>  2 0.27218678E+03</rscale>
<asrwt>0</asrwt>
<pdfrwt beam="1">  1       21 0.10700700E+00 0.27218678E+03</pdfrwt>
<pdfrwt beam="2">  1       21 0.19903477E-01 0.27218678E+03</pdfrwt>
<totfact> 0.15541062E+04</totfact>
</mgrwt>
</event>
<event>
 4    2  0.3944631E+000  0.2423981E+03  0.7546771E-02  0.1118206E+00
         21   -1    0    0  503  502  0.00000000000E+00  0.00000000000E+00  0.53226415086E+03  0.53226415086E+03  0.00000000000E+00 0.  1.
         21   -1    0    0  501  503 -0.00000000000E+00 -0.00000000000E+00 -0.12085179530E+03  0.12085179530E+03  0.00000000000E+00 0.  1.
          6    1    1    2  501    0  0.16248661058E+03 -0.49253775050E+02  0.30178536205E+03  0.38708040214E+03  0.17300000000E+03 0.  1.
         -6    1    1    2    0  502 -0.16248661058E+03  0.49253775050E+02  0.10962699351E+03  0.26603554402E+03  0.17300000000E+03 0.  1.
<mgrwt>
<rscale>  2 0.24239809E+03</rscale>
<asrwt>0</asrwt>
<pdfrwt beam="1">  1       21 0.81886791E-01 0.24239809E+03</pdfrwt>
<pdfrwt beam="2">  1       21 0.18592584E-01 0.24239809E+03</pdfrwt>
<totfact> 0.33637873E+04</totfact>
</mgrwt>
</event>
<event>
 4    2  0.3944631E+000  0.1850397E+03  0.7546771E-02  0.1163013E+00
         21   -1    0    0  501  502  0.00000000000E+00  0.00000000000E+00  0.90411151470E+03  0.90411151470E+03  0.00000000000E+00 0. -1.
         21   -1    0    0  502  503 -0.00000000000E+00 -0.00000000000E+00 -0.83135737519E+02  0.83135737519E+02  0.00000000000E+00 0. -1.
          6    1    1    2  501    0 -0.11319271282E+02 -0.64672846382E+02  0.77472278824E+03  0.79651434486E+03  0.17300000000E+03 0. -1.
         -6    1    1    2    0  503  0.11319271282E+02  0.64672846382E+02  0.46252988944E+02  0.19073290735E+03  0.17300000000E+03 0. -1.
<mgrwt>
<rscale>  2 0.18503973E+03</rscale>
<asrwt>0</asrwt>
<pdfrwt beam="1">  1       21 0.13909407E+00 0.18503973E+03</pdfrwt>
<pdfrwt beam="2">  1       21 0.12790114E-01 0.18503973E+03</pdfrwt>
<totfact> 0.19142122E+04</totfact>
</mgrwt>
</event>
<event>
 4    2  0.3944631E+000  0.1970253E+03  0.7546771E-02  0.1152273E+00
         21   -1    0    0  501  502  0.00000000000E+00  0.00000000000E+00  0.53809618139E+02  0.53809618139E+02  0.00000000000E+00 0.  1.
         21   -1    0    0  502  503 -0.00000000000E+00 -0.00000000000E+00 -0.78493615770E+03  0.78493615770E+03  0.00000000000E+00 0.  1.
          6    1    1    2  501    0 -0.77335788525E+02 -0.53936469732E+02 -0.24626101375E+03  0.31537827104E+03  0.17300000000E+03 0.  1.
         -6    1    1    2    0  503  0.77335788525E+02  0.53936469732E+02 -0.48486552582E+03  0.52336750480E+03  0.17300000000E+03 0.  1.
<mgrwt>
<rscale>  2 0.19702530E+03</rscale>
<asrwt>0</asrwt>
<pdfrwt beam="1">  1       21 0.82784037E-02 0.19702530E+03</pdfrwt>
<pdfrwt beam="2">  1       21 0.12075940E+00 0.19702530E+03</pdfrwt>
<totfact> 0.58646794E+04</totfact>
</mgrwt>
</event>
<event>
 4    2  0.3944631E+000  0.5208931E+03  0.7546771E-02  0.1008465E+00
         21   -1    0    0  503  502  0.00000000000E+00  0.00000000000E+00  0.33143948506E+03  0.33143948506E+03  0.00000000000E+00 0.  1.
         21   -1    0    0  501  503 -0.00000000000E+00 -0.00000000000E+00 -0.99794595786E+03  0.99794595786E+03  0.00000000000E+00 0. -1.
          6    1    1    2  501    0 -0.33710918237E+02 -0.49016754108E+03 -0.61500372825E+03  0.80595237458E+03  0.17300000000E+03 0. -1.
         -6    1    1    2    0  502  0.33710918237E+02  0.49016754108E+03 -0.51502744548E+02  0.52343306834E+03  0.17300000000E+03 0.  1.
<mgrwt>
<rscale>  2 0.52089312E+03</rscale>
<asrwt>0</asrwt>
<pdfrwt beam="1">  1       21 0.50990691E-01 0.52089312E+03</pdfrwt>
<pdfrwt beam="2">  1       21 0.15353014E+00 0.52089312E+03</pdfrwt>
<totfact> 0.84078021E+02</totfact>
</mgrwt>
</event>
<event>
 4    2  0.3944631E+000  0.1943788E+03  0.7546771E-02  0.1154570E+00
         21   -1    0    0  503  502  0.00000000000E+00  0.00000000000E+00  0.44500995260E+03  0.44500995260E+03  0.00000000000E+00 0.  1.
         21   -1    0    0  501  503 -0.00000000000E+00 -0.00000000000E+00 -0.10358304637E+03  0.10358304637E+03  0.00000000000E+00 0. -1.
          6    1    1    2  501    0  0.88283059147E+02 -0.77607092712E+01  0.54232954732E+02  0.20180272674E+03  0.17300000000E+03 0. -1.
         -6    1    1    2    0  502 -0.88283059147E+02  0.77607092712E+01  0.28719395149E+03  0.34679027223E+03  0.17300000000E+03 0.  1.
<mgrwt>
<rscale>  2 0.19437882E+03</rscale>
<asrwt>0</asrwt>
<pdfrwt beam="1">  1       21 0.68463069E-01 0.19437882E+03</pdfrwt>
<pdfrwt beam="2">  1       21 0.15935854E-01 0.19437882E+03</pdfrwt>
<totfact> 0.68292633E+04</totfact>
</mgrwt>
</event>
<event>
 4    2  0.3944631E+000  0.2155797E+03  0.7546771E-02  0.1137222E+00
         21   -1    0    0  501  502  0.00000000000E+00  0.00000000000E+00  0.92850656850E+03  0.92850656850E+03  0.00000000000E+00 0. -1.
         21   -1    0    0  502  503 -0.00000000000E+00 -0.00000000000E+00 -0.77121810292E+02  0.77121810292E+02  0.00000000000E+00 0. -1.
          6    1    1    2  501    0  0.58340398907E+02  0.11463850748E+03  0.72358041929E+03  0.75501206131E+03  0.17300000000E+03 0. -1.
         -6    1    1    2    0  503 -0.58340398907E+02 -0.11463850748E+03  0.12780433891E+03  0.25061631748E+03  0.17300000000E+03 0. -1.
<mgrwt>
<rscale>  2 0.21557966E+03</rscale>
<asrwt>0</asrwt>
<pdfrwt beam="1">  1       21 0.14284716E+00 0.21557966E+03</pdfrwt>
<pdfrwt beam="2">  1       21 0.11864895E-01 0.21557966E+03</pdfrwt>
<totfact> 0.20037941E+04</totfact>
</mgrwt>
</event>
<event>
 4    2  0.3944631E+000  0.1750584E+03  0.7546771E-02  0.1172673E+00
         21   -1    0    0  501  502  0.00000000000E+00  0.00000000000E+00  0.98763621202E+03  0.98763621202E+03  0.00000000000E+00 0.  1.
         21   -1    0    0  502  503 -0.00000000000E+00 -0.00000000000E+00 -0.38015353234E+02  0.38015353234E+02  0.00000000000E+00 0.  1.
          6    1    1    2  501    0  0.12802446828E+02  0.23505988825E+02  0.69465381279E+03  0.71637235694E+03  0.17300000000E+03 0.  1.
         -6    1    1    2    0  503 -0.12802446828E+02 -0.23505988825E+02  0.25496704599E+03  0.30927920832E+03  0.17300000000E+03 0.  1.
<mgrwt>
<rscale>  2 0.17505837E+03</rscale>
<asrwt>0</asrwt>
<pdfrwt beam="1">  1       21 0.15194401E+00 0.17505837E+03</pdfrwt>
<pdfrwt beam="2">  1       21 0.58485166E-02 0.17505837E+03</pdfrwt>
<totfact> 0.60092998E+04</totfact>
</mgrwt>
</event>
<event>
 4    2  0.3944631E+000  0.2741685E+03  0.7546771E-02  0.1098917E+00
         21   -1    0    0  503  502  0.00000000000E+00  0.00000000000E+00  0.10240177577E+03  0.10240177577E+03  0.00000000000E+00 0. -1.
         21   -1    0    0  501  503 -0.00000000000E+00 -0.00000000000E+00 -0.76228535324E+03  0.76228535324E+03  0.00000000000E+00 0.  1.
          6    1    1    2  501    0 -0.21202645481E+03  0.16856299039E+02 -0.24673818732E+03  0.36884696751E+03  0.17300000000E+03 0.  1.
         -6    1    1    2    0  502  0.21202645481E+03 -0.16856299039E+02 -0.41314539015E+03  0.49584016150E+03  0.17300000000E+03 0.  1.
<mgrwt>
<rscale>  2 0.27416847E+03</rscale>
<asrwt>0</asrwt>
<pdfrwt beam="1">  1       21 0.15754119E-01 0.27416847E+03</pdfrwt>
<pdfrwt beam="2">  1       21 0.11727467E+00 0.27416847E+03</pdfrwt>
<totfact> 0.19163003E+04</totfact>
</mgrwt>
</event>
<event>
 4    2  0.3944631E+000  0.1823162E+03  0.7546771E-02  0.1165580E+00
         21   -1    0    0  501  502  0.00000000000E+00  0.00000000000E+00  0.23995366274E+02  0.23995366274E+02  0.00000000000E+00 0. -1.
         21   -1    0    0  502  503 -0.00000000000E+00 -0.00000000000E+00 -0.14499239786E+04  0.14499239786E+04  0.00000000000E+00 0.  1.
          6    1    1    2  501    0 -0.39631439302E+02 -0.41708053862E+02 -0.55730057429E+03  0.58636434308E+03  0.17300000000E+03 0. -1.
         -6    1    1    2    0  503  0.39631439302E+02  0.41708053862E+02 -0.86862803805E+03  0.88755500180E+03  0.17300000000E+03 0.  1.
<mgrwt>
<rscale>  2 0.18231624E+03</rscale>
<asrwt>0</asrwt>
<pdfrwt beam="1">  1       21 0.36915941E-02 0.18231624E+03</pdfrwt>
<pdfrwt beam="2">  1       21 0.22306527E+00 0.18231624E+03</pdfrwt>
<totfact> 0.43504599E+04</totfact>
</mgrwt>
</event>
<event>
 4    2  0.3944631E+000  0.2281213E+03  0.7546771E-02  0.1127969E+00
         21   -1    0    0  503  502  0.00000000000E+00  0.00000000000E+00  0.15277017703E+03  0.15277017703E+03  0.00000000000E+00 0. -1.
         21   -1    0    0  501  503 -0.00000000000E+00 -0.00000000000E+00 -0.34810179487E+03  0.34810179487E+03  0.00000000000E+00 0.  1.
          6    1    1    2  501    0 -0.64217976821E+02 -0.13411327864E+03 -0.60994629325E+02  0.23613484466E+03  0.17300000000E+03 0.  1.
         -6    1    1    2    0  502  0.64217976821E+02  0.13411327864E+03 -0.13433698852E+03  0.26473712724E+03  0.17300000000E+03 0.  1.
<mgrwt>
<rscale>  2 0.22812128E+03</rscale>
<asrwt>0</asrwt>
<pdfrwt beam="1">  1       21 0.23503104E-01 0.22812128E+03</pdfrwt>
<pdfrwt beam="2">  1       21 0.53554122E-01 0.22812128E+03</pdfrwt>
<totfact> 0.55309171E+04</totfact>
</mgrwt>
</event>
<event>
 4    2  0.3944631E+000  0.1885557E+03  0.7546771E-02  0.1159771E+00
         21   -1    0    0  501  502  0.00000000000E+00  0.00000000000E+00  0.66083031342E+02  0.66083031342E+02  0.00000000000E+00 0.  1.
         21   -1    0    0  502  503 -0.00000000000E+00 -0.00000000000E+00 -0.98249360126E+03  0.98249360126E+03  0.00000000000E+00 0.  1.
          6    1    1    2  501    0 -0.58947219882E+01 -0.74762862529E+02 -0.10556338506E+03  0.21609456640E+03  0.17300000000E+03 0.  1.
         -6    1    1    2    0  503  0.58947219882E+01  0.74762862529E+02 -0.81084718486E+03  0.83248206621E+03  0.17300000000E+03 0.  1.
<mgrwt>
<rscale>  2 0.18855565E+03</rscale>
<asrwt>0</asrwt>
<pdfrwt beam="1">  1       21 0.10166620E-01 0.18855565E+03</pdfrwt>
<pdfrwt beam="2">  1       21 0.15115286E+00 0.18855565E+03</pdfrwt>
<totfact> 0.23147794E+04</totfact>
</mgrwt>
</event>
<event>
 4    2  0.3944631E+000  0.4957575E+03  0.7546771E-02  0.1014892E+00
         21   -1    0    0  501  502  0.00000000000E+00  0.00000000000E+00  0.19926472231E+04  0.19926472231E+04  0.00000000000E+00 0.  1.
         21   -1    0    0  502  503 -0.00000000000E+00 -0.00000000000E+00 -0.27605785701E+03  0.27605785701E+03  0.00000000000E+00 0. -1.
          6    1    1    2  501    0  0.25464336282E+03 -0.38859137160E+03  0.17020008013E+04  0.17727329816E+04  0.17300000000E+03 0.  1.
         -6    1    1    2    0  503 -0.25464336282E+03  0.38859137160E+03  0.14588564798E+02  0.49597209854E+03  0.17300000000E+03 0. -1.
<mgrwt>
<rscale>  2 0.49575750E+03</rscale>
<asrwt>0</asrwt>
<pdfrwt beam="1">  1       21 0.30656110E+00 0.49575750E+03</pdfrwt>
<pdfrwt beam="2">  1       21 0.42470441E-01 0.49575750E+03</pdfrwt>
<totfact> 0.12580725E+02</totfact>
</mgrwt>
</event>
<event>
 4    2  0.3944631E+000  0.3178519E+03  0.7546771E-02  0.1076642E+00
         21   -1    0    0  503  502  0.00000000000E+00  0.00000000000E+00  0.15063438617E+03  0.15063438617E+03  0.00000000000E+00 0.  1.
         21   -1    0    0  501  503 -0.00000000000E+00 -0.00000000000E+00 -0.10368208618E+04  0.10368208618E+04  0.00000000000E+00 0. -1.
          6    1    1    2  501    0 -0.47195883986E+02  0.26243738610E+03 -0.79591079456E+03  0.85703198656E+03  0.17300000000E+03 0. -1.
         -6    1    1    2    0  502  0.47195883986E+02 -0.26243738610E+03 -0.90275681067E+02  0.33042326141E+03  0.17300000000E+03 0.  1.
<mgrwt>
<rscale>  2 0.31785190E+03</rscale>
<asrwt>0</asrwt>
<pdfrwt beam="1">  1       21 0.23174520E-01 0.31785190E+03</pdfrwt>
<pdfrwt beam="2">  1       21 0.15951091E+00 0.31785190E+03</pdfrwt>
<totfact> 0.40731556E+03</totfact>
</mgrwt>
</event>
<event>
 4    2  0.3944631E+000  0.1865204E+03  0.7546771E-02  0.1161638E+00
         21   -1    0    0  503  502  0.00000000000E+00  0.00000000000E+00  0.23328316067E+03  0.23328316067E+03  0.00000000000E+00 0. -1.
         21   -1    0    0  501  503 -0.00000000000E+00 -0.00000000000E+00 -0.50812971501E+03  0.50812971501E+03  0.00000000000E+00 0. -1.
          6    1    1    2  501    0 -0.32249695134E+02 -0.61812756166E+02 -0.44901721319E+03  0.48621632778E+03  0.17300000000E+03 0. -1.
         -6    1    1    2    0  502  0.32249695134E+02  0.61812756166E+02  0.17417065884E+03  0.25519654791E+03  0.17300000000E+03 0. -1.
<mgrwt>
<rscale>  2 0.18652040E+03</rscale>
<asrwt>0</asrwt>
<pdfrwt beam="1">  1       21 0.35889717E-01 0.18652040E+03</pdfrwt>
<pdfrwt beam="2">  1       21 0.78173801E-01 0.18652040E+03</pdfrwt>
<totfact> 0.10892112E+04</totfact>
</mgrwt>
</event>
<event>
 4    2  0.3944631E+000  0.1982058E+03  0.7546771E-02  0.1151262E+00
         21   -1    0    0  503  502  0.00000000000E+00  0.00000000000E+00  0.43428542755E+03  0.43428542755E+03  0.00000000000E+00 0.  1.
         21   -1    0    0  501  503 -0.00000000000E+00 -0.00000000000E+00 -0.18641434245E+03  0.18641434245E+03  0.00000000000E+00 0.  1.
          6    1    1    2  501    0  0.65942273629E+02 -0.70768343617E+02 -0.98725283536E+02  0.22143220976E+03  0.17300000000E+03 0.  1.
         -6    1    1    2    0  502 -0.65942273629E+02  0.70768343617E+02  0.34659636863E+03  0.39926756024E+03  0.17300000000E+03 0.  1.
<mgrwt>
<rscale>  2 0.19820581E+03</rscale>
<asrwt>0</asrwt>
<pdfrwt beam="1">  1       21 0.66813142E-01 0.19820581E+03</pdfrwt>
<pdfrwt beam="2">  1       21 0.28679130E-01 0.19820581E+03</pdfrwt>
<totfact> 0.23795818E+04</totfact>
</mgrwt>
</event>
<event>
 4    2  0.3944631E+000  0.5235492E+03  0.7546771E-02  0.1007809E+00
         21   -1    0    0  501  502  0.00000000000E+00  0.00000000000E+00  0.17037625050E+04  0.17037625050E+04  0.00000000000E+00 0. -1.
         21   -1    0    0  502  503 -0.00000000000E+00 -0.00000000000E+00 -0.16094929275E+03  0.16094929275E+03  0.00000000000E+00 0.  1.
          6    1    1    2  501    0  0.11144850921E+03 -0.48140839203E+03  0.75226684319E+03  0.91652016534E+03  0.17300000000E+03 0. -1.
         -6    1    1    2    0  503 -0.11144850921E+03  0.48140839203E+03  0.79054636906E+03  0.94819163240E+03  0.17300000000E+03 0.  1.
<mgrwt>
<rscale>  2 0.52354924E+03</rscale>
<asrwt>0</asrwt>
<pdfrwt beam="1">  1       21 0.26211730E+00 0.52354924E+03</pdfrwt>
<pdfrwt beam="2">  1       21 0.24761431E-01 0.52354924E+03</pdfrwt>
<totfact> 0.68344568E+02</totfact>
</mgrwt>
</event>
<event>
 4    2  0.3944631E+000  0.1735707E+03  0.7546771E-02  0.1174175E+00
         21   -1    0    0  501  502  0.00000000000E+00  0.00000000000E+00  0.34141770392E+02  0.34141770392E+02  0.00000000000E+00 0.  1.
         21   -1    0    0  502  503 -0.00000000000E+00 -0.00000000000E+00 -0.88853784380E+03  0.88853784380E+03  0.00000000000E+00 0.  1.
          6    1    1    2  501    0 -0.88104192629E+01  0.10961646724E+02 -0.38886220714E+03  0.42584104703E+03  0.17300000000E+03 0. -1.
         -6    1    1    2    0  503  0.88104192629E+01 -0.10961646724E+02 -0.46553386626E+03  0.49683856717E+03  0.17300000000E+03 0. -1.
<mgrwt>
<rscale>  2 0.17357068E+03</rscale>
<asrwt>0</asrwt>
<pdfrwt beam="1">  1       21 0.52525812E-02 0.17357068E+03</pdfrwt>
<pdfrwt beam="2">  1       21 0.13669810E+00 0.17357068E+03</pdfrwt>
<totfact> 0.94985835E+04</totfact>
</mgrwt>
</event>
<event>
 4    2  0.3944631E+000  0.2051127E+03  0.7546771E-02  0.1145496E+00
         21   -1    0    0  501  502  0.00000000000E+00  0.00000000000E+00  0.26152283536E+03  0.26152283536E+03  0.00000000000E+00 0. -1.
         21   -1    0    0  502  503 -0.00000000000E+00 -0.00000000000E+00 -0.29706104382E+03  0.29706104382E+03  0.00000000000E+00 0. -1.
          6    1    1    2  501    0 -0.10956944549E+03  0.11694880277E+02  0.17133871617E+03  0.26726052696E+03  0.17300000000E+03 0. -1.
         -6    1    1    2    0  503  0.10956944549E+03 -0.11694880277E+02 -0.20687692463E+03  0.29132335223E+03  0.17300000000E+03 0. -1.
<mgrwt>
<rscale>  2 0.20511273E+03</rscale>
<asrwt>0</asrwt>
<pdfrwt beam="1">  1       21 0.40234282E-01 0.20511273E+03</pdfrwt>
<pdfrwt beam="2">  1       21 0.45701699E-01 0.20511273E+03</pdfrwt>
<totfact> 0.27134689E+04</totfact>
</mgrwt>
</event>
<event>
 4    2  0.3944631E+000  0.2664794E+03  0.7546771E-02  0.1103312E+00
         21   -1    0    0  503  502  0.00000000000E+00  0.00000000000E+00  0.30332803207E+03  0.30332803207E+03  0.00000000000E+00 0.  1.
         21   -1    0    0  501  503 -0.00000000000E+00 -0.00000000000E+00 -0.37055951797E+03  0.37055951797E+03  0.00000000000E+00 0.  1.
          6    1    1    2  501    0  0.20196597873E+03  0.17088818844E+02 -0.23808069151E+03  0.35734255269E+03  0.17300000000E+03 0.  1.
         -6    1    1    2    0  502 -0.20196597873E+03 -0.17088818844E+02  0.17084920560E+03  0.31654499735E+03  0.17300000000E+03 0.  1.
<mgrwt>
<rscale>  2 0.26647943E+03</rscale>
<asrwt>0</asrwt>
<pdfrwt beam="1">  1       21 0.46665851E-01 0.26647943E+03</pdfrwt>
<pdfrwt beam="2">  1       21 0.57009157E-01 0.26647943E+03</pdfrwt>
<totfact> 0.12177083E+04</totfact>
</mgrwt>
</event>
<event>
 4    2  0.3944631E+000  0.3053008E+03  0.7546771E-02  0.1082620E+00
         21   -1    0    0  501  502  0.00000000000E+00  0.00000000000E+00  0.58865125865E+03  0.58865125865E+03  0.00000000000E+00 0. -1.
         21   -1    0    0  502  503 -0.00000000000E+00 -0.00000000000E+00 -0.20350772666E+03  0.20350772666E+03  0.00000000000E+00 0. -1.
          6    1    1    2  501    0 -0.64284429332E+02 -0.24320178428E+03  0.37916389417E+03  0.48679960392E+03  0.17300000000E+03 0. -1.
         -6    1    1    2    0  503  0.64284429332E+02  0.24320178428E+03  0.59796378080E+01  0.30535938139E+03  0.17300000000E+03 0. -1.
<mgrwt>
<rscale>  2 0.30530083E+03</rscale>
<asrwt>0</asrwt>
<pdfrwt beam="1">  1       21 0.90561731E-01 0.30530083E+03</pdfrwt>
<pdfrwt beam="2">  1       21 0.31308881E-01 0.30530083E+03</pdfrwt>
<totfact> 0.95203421E+03</totfact>
</mgrwt>
</event>
<event>
 4    2  0.3944631E+000  0.1869880E+03  0.7546771E-02  0.1161206E+00
         21   -1    0    0  503  502  0.00000000000E+00  0.00000000000E+00  0.17769973250E+03  0.17769973250E+03  0.00000000000E+00 0. -1.
         21   -1    0    0  501  503 -0.00000000000E+00 -0.00000000000E+00 -0.56789247561E+03  0.56789247561E+03  0.00000000000E+00 0. -1.
          6    1    1    2  501    0 -0.19636299188E+02  0.68190325257E+02 -0.49646759541E+03  0.53051350407E+03  0.17300000000E+03 0. -1.
         -6    1    1    2    0  502  0.19636299188E+02 -0.68190325257E+02  0.10627485230E+03  0.21507870405E+03  0.17300000000E+03 0. -1.
<mgrwt>
<rscale>  2 0.18698798E+03</rscale>
<asrwt>0</asrwt>
<pdfrwt beam="1">  1       21 0.27338420E-01 0.18698798E+03</pdfrwt>
<pdfrwt beam="2">  1       21 0.87368073E-01 0.18698798E+03</pdfrwt>
<totfact> 0.14407746E+04</totfact>
</mgrwt>
</event>
<event>
 4    2  0.3944631E+000  0.1926406E+03  0.7546771E-02  0.1156101E+00
         21   -1    0    0  501  502  0.00000000000E+00  0.00000000000E+00  0.21867989482E+03  0.21867989482E+03  0.00000000000E+00 0. -1.
         21   -1    0    0  502  503 -0.00000000000E+00 -0.00000000000E+00 -0.31195903810E+03  0.31195903810E+03  0.00000000000E+00 0. -1.
          6    1    1    2  501    0  0.81598988327E+01 -0.84349339110E+02  0.13252715264E+03  0.23382438099E+03  0.17300000000E+03 0. -1.
         -6    1    1    2    0  503 -0.81598988327E+01  0.84349339110E+02 -0.22580629593E+03  0.29681455193E+03  0.17300000000E+03 0. -1.
<mgrwt>
<rscale>  2 0.19264058E+03</rscale>
<asrwt>0</asrwt>
<pdfrwt beam="1">  1       21 0.33643061E-01 0.19264058E+03</pdfrwt>
<pdfrwt beam="2">  1       21 0.47993698E-01 0.19264058E+03</pdfrwt>
<totfact> 0.35312016E+04</totfact>
</mgrwt>
</event>
<event>
 4    2  0.3944631E+000  0.2493324E+03  0.7546771E-02  0.1113727E+00
         21   -1    0    0  503  502  0.00000000000E+00  0.00000000000E+00  0.29614805699E+02  0.29614805699E+02  0.00000000000E+00 0. -1.
         21   -1    0    0  501  503 -0.00000000000E+00 -0.00000000000E+00 -0.26669525695E+04  0.26669525695E+04  0.00000000000E+00 0. -1.
          6    1    1    2  501    0  0.83195285886E+01 -0.17935555185E+03 -0.19407731100E+04  0.19567235096E+04  0.17300000000E+03 0. -1.
         -6    1    1    2    0  502 -0.83195285886E+01  0.17935555185E+03 -0.69656465382E+03  0.73984386561E+03  0.17300000000E+03 0. -1.
<mgrwt>
<rscale>  2 0.24933237E+03</rscale>
<asrwt>0</asrwt>
<pdfrwt beam="1">  1       21 0.45561223E-02 0.24933237E+03</pdfrwt>
<pdfrwt beam="2">  1       21 0.41030054E+00 0.24933237E+03</pdfrwt>
<totfact> 0.21981893E+03</totfact>
</mgrwt>
</event>
<event>
 4    2  0.3944631E+000  0.2365069E+03  0.7546771E-02  0.1122142E+00
         21   -1    0    0  503  502  0.00000000000E+00  0.00000000000E+00  0.20978888120E+03  0.20978888120E+03  0.00000000000E+00 0.  1.
         21   -1    0    0  501  503 -0.00000000000E+00 -0.00000000000E+00 -0.26666156925E+03  0.26666156925E+03  0.00000000000E+00 0. -1.
          6    1    1    2  501    0 -0.15139359785E+03 -0.55556273282E+02 -0.31122250191E+02  0.23854583507E+03  0.17300000000E+03 0.  1.
         -6    1    1    2    0  502  0.15139359785E+03  0.55556273282E+02 -0.25750437857E+02  0.23790461539E+03  0.17300000000E+03 0.  1.
<mgrwt>
<rscale>  2 0.23650692E+03</rscale>
<asrwt>0</asrwt>
<pdfrwt beam="1">  1       21 0.32275213E-01 0.23650692E+03</pdfrwt>
<pdfrwt beam="2">  1       21 0.41024857E-01 0.23650692E+03</pdfrwt>
<totfact> 0.51814657E+04</totfact>
</mgrwt>
</event>
<event>
 4    2  0.3944631E+000  0.1821556E+03  0.7546771E-02  0.1165733E+00
         21   -1    0    0  501  502  0.00000000000E+00  0.00000000000E+00  0.61905027603E+02  0.61905027603E+02  0.00000000000E+00 0. -1.
         21   -1    0    0  502  503 -0.00000000000E+00 -0.00000000000E+00 -0.58867097399E+03  0.58867097399E+03  0.00000000000E+00 0. -1.
          6    1    1    2  501    0  0.45557747322E+02 -0.34295358062E+02 -0.16607576011E+03  0.24649916434E+03  0.17300000000E+03 0. -1.
         -6    1    1    2    0  503 -0.45557747322E+02  0.34295358062E+02 -0.36069018627E+03  0.40407683725E+03  0.17300000000E+03 0. -1.
<mgrwt>
<rscale>  2 0.18215565E+03</rscale>
<asrwt>0</asrwt>
<pdfrwt beam="1">  1       21 0.95238505E-02 0.18215565E+03</pdfrwt>
<pdfrwt beam="2">  1       21 0.90564765E-01 0.18215565E+03</pdfrwt>
<totfact> 0.91970314E+04</totfact>
</mgrwt>
</event>
<event>
 4    2  0.3944631E+000  0.2075325E+03  0.7546771E-02  0.1143535E+00
         21   -1    0    0  503  502  0.00000000000E+00  0.00000000000E+00  0.53018671111E+03  0.53018671111E+03  0.00000000000E+00 0. -1.
         21   -1    0    0  501  503 -0.00000000000E+00 -0.00000000000E+00 -0.93734404642E+02  0.93734404642E+02  0.00000000000E+00 0.  1.
          6    1    1    2  501    0  0.24437763389E+02  0.11199797178E+03  0.10430777987E+03  0.23227109787E+03  0.17300000000E+03 0.  1.
         -6    1    1    2    0  502 -0.24437763389E+02 -0.11199797178E+03  0.33214452659E+03  0.39165001788E+03  0.17300000000E+03 0. -1.
<mgrwt>
<rscale>  2 0.20753253E+03</rscale>
<asrwt>0</asrwt>
<pdfrwt beam="1">  1       21 0.81567185E-01 0.20753253E+03</pdfrwt>
<pdfrwt beam="2">  1       21 0.14420678E-01 0.20753253E+03</pdfrwt>
<totfact> 0.55066846E+04</totfact>
</mgrwt>
</event>
<event>
 4    2  0.3944631E+000  0.2206194E+03  0.7546771E-02  0.1133422E+00
         21   -1    0    0  501  502  0.00000000000E+00  0.00000000000E+00  0.29842668642E+03  0.29842668642E+03  0.00000000000E+00 0.  1.
         21   -1    0    0  502  503 -0.00000000000E+00 -0.00000000000E+00 -0.18246095418E+03  0.18246095418E+03  0.00000000000E+00 0.  1.
          6    1    1    2  501    0  0.98920874008E+02 -0.94649803959E+02 -0.20343794268E+02  0.22155539865E+03  0.17300000000E+03 0.  1.
         -6    1    1    2    0  503 -0.98920874008E+02  0.94649803959E+02  0.13630952651E+03  0.25933224196E+03  0.17300000000E+03 0.  1.
<mgrwt>
<rscale>  2 0.22061941E+03</rscale>
<asrwt>0</asrwt>
<pdfrwt beam="1">  1       21 0.45911798E-01 0.22061941E+03</pdfrwt>
<pdfrwt beam="2">  1       21 0.28070916E-01 0.22061941E+03</pdfrwt>
<totfact> 0.54420208E+04</totfact>
</mgrwt>
</event>
<event>
 4    2  0.3944631E+000  0.2016578E+03  0.7546771E-02  0.1148348E+00
         21   -1    0    0  503  502  0.00000000000E+00  0.00000000000E+00  0.45891973726E+02  0.45891973726E+02  0.00000000000E+00 0.  1.
         21   -1    0    0  501  503 -0.00000000000E+00 -0.00000000000E+00 -0.18813362752E+04  0.18813362752E+04  0.00000000000E+00 0. -1.
          6    1    1    2  501    0 -0.46719912125E+02 -0.92488408632E+02 -0.16185774980E+04  0.16310913441E+04  0.17300000000E+03 0. -1.
         -6    1    1    2    0  502  0.46719912125E+02  0.92488408632E+02 -0.21686680346E+03  0.29613690476E+03  0.17300000000E+03 0.  1.
<mgrwt>
<rscale>  2 0.20165777E+03</rscale>
<asrwt>0</asrwt>
<pdfrwt beam="1">  1       21 0.70603026E-02 0.20165777E+03</pdfrwt>
<pdfrwt beam="2">  1       21 0.28943639E+00 0.20165777E+03</pdfrwt>
<totfact> 0.57946271E+03</totfact>
</mgrwt>
</event>
<event>
 4    2  0.3944631E+000  0.2474482E+03  0.7546771E-02  0.1114928E+00
         21   -1    0    0  501  502  0.00000000000E+00  0.00000000000E+00  0.24901112930E+03  0.24901112930E+03  0.00000000000E+00 0. -1.
         21   -1    0    0  502  503 -0.00000000000E+00 -0.00000000000E+00 -0.47133136659E+03  0.47133136659E+03  0.00000000000E+00 0.  1.
          6    1    1    2  501    0  0.15352674364E+03  0.87927078782E+02  0.13793068889E+03  0.28329402947E+03  0.17300000000E+03 0. -1.
         -6    1    1    2    0  503 -0.15352674364E+03 -0.87927078782E+02 -0.36025092618E+03  0.43704846643E+03  0.17300000000E+03 0.  1.
<mgrwt>
<rscale>  2 0.24744824E+03</rscale>
<asrwt>0</asrwt>
<pdfrwt beam="1">  1       21 0.38309405E-01 0.24744824E+03</pdfrwt>
<pdfrwt beam="2">  1       21 0.72512518E-01 0.24744824E+03</pdfrwt>
<totfact> 0.10885759E+04</totfact>
</mgrwt>
</event>
<event>
 4    2  0.3944631E+000  0.2008165E+03  0.7546771E-02  0.1149052E+00
         21   -1    0    0  501  502  0.00000000000E+00  0.00000000000E+00  0.18762969699E+03  0.18762969699E+03  0.00000000000E+00 0.  1.
         21   -1    0    0  502  503 -0.00000000000E+00 -0.00000000000E+00 -0.21567395856E+03  0.21567395856E+03  0.00000000000E+00 0. -1.
          6    1    1    2  501    0 -0.68348761888E+02  0.75675088817E+02 -0.25864651754E+02  0.20247531338E+03  0.17300000000E+03 0.  1.
         -6    1    1    2    0  503  0.68348761888E+02 -0.75675088817E+02 -0.21796098092E+01  0.20082834217E+03  0.17300000000E+03 0. -1.
<mgrwt>
<rscale>  2 0.20081651E+03</rscale>
<asrwt>0</asrwt>
<pdfrwt beam="1">  1       21 0.28866107E-01 0.20081651E+03</pdfrwt>
<pdfrwt beam="2">  1       21 0.33180609E-01 0.20081651E+03</pdfrwt>
<totfact> 0.10012111E+05</totfact>
</mgrwt>
</event>
<event>
 4    2  0.3944631E+000  0.1983191E+03  0.7546771E-02  0.1151165E+00
         21   -1    0    0  501  502  0.00000000000E+00  0.00000000000E+00  0.14014594604E+04  0.14014594604E+04  0.00000000000E+00 0. -1.
         21   -1    0    0  502  503 -0.00000000000E+00 -0.00000000000E+00 -0.11073423242E+03  0.11073423242E+03  0.00000000000E+00 0. -1.
          6    1    1    2  501    0 -0.75306139077E+02  0.61077279555E+02  0.12986605132E+04  0.13137159424E+04  0.17300000000E+03 0. -1.
         -6    1    1    2    0  503  0.75306139077E+02 -0.61077279555E+02 -0.79352852543E+01  0.19847775042E+03  0.17300000000E+03 0. -1.
<mgrwt>
<rscale>  2 0.19831906E+03</rscale>
<asrwt>0</asrwt>
<pdfrwt beam="1">  1       21 0.21560913E+00 0.19831906E+03</pdfrwt>
<pdfrwt beam="2">  1       21 0.17036037E-01 0.19831906E+03</pdfrwt>
<totfact> 0.33083210E+03</totfact>
</mgrwt>
</event>
<event>
 4    2  0.3944631E+000  0.2471362E+03  0.7546771E-02  0.1115128E+00
         21   -1    0    0  503  502  0.00000000000E+00  0.00000000000E+00  0.43796439140E+03  0.43796439140E+03  0.00000000000E+00 0.  1.
         21   -1    0    0  501  503 -0.00000000000E+00 -0.00000000000E+00 -0.17110300617E+03  0.17110300617E+03  0.00000000000E+00 0. -1.
          6    1    1    2  501    0 -0.63895058649E+02  0.16451362434E+03  0.24582522157E+01  0.24714844551E+03  0.17300000000E+03 0. -1.
         -6    1    1    2    0  502  0.63895058649E+02 -0.16451362434E+03  0.26440313302E+03  0.36191895206E+03  0.17300000000E+03 0.  1.
<mgrwt>
<rscale>  2 0.24713622E+03</rscale>
<asrwt>0</asrwt>
<pdfrwt beam="1">  1       21 0.67379136E-01 0.24713622E+03</pdfrwt>
<pdfrwt beam="2">  1       21 0.26323540E-01 0.24713622E+03</pdfrwt>
<totfact> 0.26879064E+04</totfact>
</mgrwt>
</event>
<event>
 4    2  0.3944631E+000  0.2090660E+03  0.7546771E-02  0.1142308E+00
         21   -1    0    0  503  502  0.00000000000E+00  0.00000000000E+00  0.58918685083E+03  0.58918685083E+03  0.00000000000E+00 0. -1.
         21   -1    0    0  501  503 -0.00000000000E+00 -0.00000000000E+00 -0.99351052587E+02  0.99351052587E+02  0.00000000000E+00 0. -1.
          6    1    1    2  501    0  0.55542312134E+02  0.10341492798E+03  0.41818756986E+03  0.46753549529E+03  0.17300000000E+03 0. -1.
         -6    1    1    2    0  502 -0.55542312134E+02 -0.10341492798E+03  0.71648228375E+02  0.22100240812E+03  0.17300000000E+03 0. -1.
<mgrwt>
<rscale>  2 0.20906601E+03</rscale>
<asrwt>0</asrwt>
<pdfrwt beam="1">  1       21 0.90644129E-01 0.20906601E+03</pdfrwt>
<pdfrwt beam="2">  1       21 0.15284778E-01 0.20906601E+03</pdfrwt>
<totfact> 0.38831486E+04</totfact>
</mgrwt>
</event>
<event>
 4    2  0.3944631E+000  0.2139047E+03  0.7546771E-02  0.1138511E+00
         21   -1    0    0  501  502  0.00000000000E+00  0.00000000000E+00  0.71466314387E+03  0.71466314387E+03  0.00000000000E+00 0.  1.
         21   -1    0    0  502  503 -0.00000000000E+00 -0.00000000000E+00 -0.74720051642E+02  0.74720051642E+02  0.00000000000E+00 0.  1.
          6    1    1    2  501    0 -0.11640370344E+03  0.47711705983E+02  0.46930647061E+03  0.51575555491E+03  0.17300000000E+03 0.  1.
         -6    1    1    2    0  503  0.11640370344E+03 -0.47711705983E+02  0.17063662161E+03  0.27362764060E+03  0.17300000000E+03 0.  1.
<mgrwt>
<rscale>  2 0.21390472E+03</rscale>
<asrwt>0</asrwt>
<pdfrwt beam="1">  1       21 0.10994817E+00 0.21390472E+03</pdfrwt>
<pdfrwt beam="2">  1       21 0.11495393E-01 0.21390472E+03</pdfrwt>
<totfact> 0.40960727E+04</totfact>
</mgrwt>
</event>
<event>
 4    2  0.3944631E+000  0.3930915E+03  0.7546771E-02  0.1046198E+00
         21   -1    0    0  503  502  0.00000000000E+00  0.00000000000E+00  0.16091523152E+03  0.16091523152E+03  0.00000000000E+00 0. -1.
         21   -1    0    0  501  503 -0.00000000000E+00 -0.00000000000E+00 -0.16155675470E+04  0.16155675470E+04  0.00000000000E+00 0. -1.
          6    1    1    2  501    0  0.33605360170E+03 -0.10798095917E+03 -0.12930312691E+04  0.13514624574E+04  0.17300000000E+03 0. -1.
         -6    1    1    2    0  502 -0.33605360170E+03  0.10798095917E+03 -0.16162104636E+03  0.42502032115E+03  0.17300000000E+03 0. -1.
<mgrwt>
<rscale>  2 0.39309148E+03</rscale>
<asrwt>0</asrwt>
<pdfrwt beam="1">  1       21 0.24756189E-01 0.39309148E+03</pdfrwt>
<pdfrwt beam="2">  1       21 0.24854886E+00 0.39309148E+03</pdfrwt>
<totfact> 0.88435650E+02</totfact>
</mgrwt>
</event>
<event>
 4    2  0.3944631E+000  0.1761623E+03  0.7546771E-02  0.1171570E+00
         21   -1    0    0  501  502  0.00000000000E+00  0.00000000000E+00  0.20030309309E+03  0.20030309309E+03  0.00000000000E+00 0.  1.
         21   -1    0    0  502  503 -0.00000000000E+00 -0.00000000000E+00 -0.17234696960E+03  0.17234696960E+03  0.00000000000E+00 0.  1.
          6    1    1    2  501    0 -0.33085053116E+02 -0.30863931819E+01  0.73208364194E+02  0.19076847525E+03  0.17300000000E+03 0.  1.
         -6    1    1    2    0  503  0.33085053116E+02  0.30863931819E+01 -0.45252240705E+02  0.18188158744E+03  0.17300000000E+03 0.  1.
<mgrwt>
<rscale>  2 0.17616227E+03</rscale>
<asrwt>0</asrwt>
<pdfrwt beam="1">  1       21 0.30815860E-01 0.17616227E+03</pdfrwt>
<pdfrwt beam="2">  1       21 0.26514918E-01 0.17616227E+03</pdfrwt>
<totfact> 0.13760751E+05</totfact>
</mgrwt>
</event>
<event>
 4    2  0.3944631E+000  0.2267749E+03  0.7546771E-02  0.1128931E+00
         21   -1    0    0  503  502  0.00000000000E+00  0.00000000000E+00  0.57629875223E+03  0.57629875223E+03  0.00000000000E+00 0.  1.
         21   -1    0    0  501  503 -0.00000000000E+00 -0.00000000000E+00 -0.10232297763E+03  0.10232297763E+03  0.00000000000E+00 0.  1.
          6    1    1    2  501    0 -0.14628311459E+03  0.99542274032E+01  0.35833345787E+03  0.42406332461E+03  0.17300000000E+03 0.  1.
         -6    1    1    2    0  502  0.14628311459E+03 -0.99542274032E+01  0.11564231674E+03  0.25455840524E+03  0.17300000000E+03 0.  1.
<mgrwt>
<rscale>  2 0.22677486E+03</rscale>
<asrwt>0</asrwt>
<pdfrwt beam="1">  1       21 0.88661345E-01 0.22677486E+03</pdfrwt>
<pdfrwt beam="2">  1       21 0.15741997E-01 0.22677486E+03</pdfrwt>
<totfact> 0.38389161E+04</totfact>
</mgrwt>
</event>
<event>
 4    2  0.3944631E+000  0.1970699E+03  0.7546771E-02  0.1152235E+00
         21   -1    0    0  503  502  0.00000000000E+00  0.00000000000E+00  0.81157376403E+03  0.81157376403E+03  0.00000000000E+00 0. -1.
         21   -1    0    0  501  503 -0.00000000000E+00 -0.00000000000E+00 -0.48127257837E+02  0.48127257837E+02  0.00000000000E+00 0. -1.
          6    1    1    2  501    0 -0.88132915551E+02  0.33765972567E+02  0.34929702403E+03  0.40105481259E+03  0.17300000000E+03 0. -1.
         -6    1    1    2    0  502  0.88132915551E+02 -0.33765972567E+02  0.41414948216E+03  0.45864620927E+03  0.17300000000E+03 0. -1.
<mgrwt>
<rscale>  2 0.19706992E+03</rscale>
<asrwt>0</asrwt>
<pdfrwt beam="1">  1       21 0.12485749E+00 0.19706992E+03</pdfrwt>
<pdfrwt beam="2">  1       21 0.74041941E-02 0.19706992E+03</pdfrwt>
<totfact> 0.65520929E+04</totfact>
</mgrwt>
</event>
<event>
 4    2  0.3944631E+000  0.1736610E+03  0.7546771E-02  0.1174083E+00
         21   -1    0    0  501  502  0.00000000000E+00  0.00000000000E+00  0.87824352137E+03  0.87824352137E+03  0.00000000000E+00 0.  1.
         21   -1    0    0  502  503 -0.00000000000E+00 -0.00000000000E+00 -0.12205367295E+03  0.12205367295E+03  0.00000000000E+00 0.  1.
          6    1    1    2  501    0  0.13845870339E+02 -0.61193304400E+01  0.80208855207E+03  0.82067301631E+03  0.17300000000E+03 0.  1.
         -6    1    1    2    0  503 -0.13845870339E+02  0.61193304400E+01 -0.45898703646E+02  0.17962417801E+03  0.17300000000E+03 0.  1.
<mgrwt>
<rscale>  2 0.17366103E+03</rscale>
<asrwt>0</asrwt>
<pdfrwt beam="1">  1       21 0.13511438E+00 0.17366103E+03</pdfrwt>
<pdfrwt beam="2">  1       21 0.18777489E-01 0.17366103E+03</pdfrwt>
<totfact> 0.10322955E+04</totfact>
</mgrwt>
</event>
<event>
 4    2  0.3944631E+000  0.1747643E+03  0.7546771E-02  0.1172969E+00
         21   -1    0    0  501  502  0.00000000000E+00  0.00000000000E+00  0.33187533830E+03  0.33187533830E+03  0.00000000000E+00 0.  1.
         21   -1    0    0  502  503 -0.00000000000E+00 -0.00000000000E+00 -0.18319815238E+03  0.18319815238E+03  0.00000000000E+00 0.  1.
          6    1    1    2  501    0 -0.18418722077E+02 -0.16562384906E+02  0.25601548848E+03  0.30997821255E+03  0.17300000000E+03 0.  1.
         -6    1    1    2    0  503  0.18418722077E+02  0.16562384906E+02 -0.10733830256E+03  0.20509527813E+03  0.17300000000E+03 0.  1.
<mgrwt>
<rscale>  2 0.17476430E+03</rscale>
<asrwt>0</asrwt>
<pdfrwt beam="1">  1       21 0.51057744E-01 0.17476430E+03</pdfrwt>
<pdfrwt beam="2">  1       21 0.28184331E-01 0.17476430E+03</pdfrwt>
<totfact> 0.44267017E+04</totfact>
</mgrwt>
</event>
<event>
 4    2  0.3944631E+000  0.2182398E+03  0.7546771E-02  0.1135202E+00
         21   -1    0    0  503  502  0.00000000000E+00  0.00000000000E+00  0.36257720256E+03  0.36257720256E+03  0.00000000000E+00 0.  1.
         21   -1    0    0  501  503 -0.00000000000E+00 -0.00000000000E+00 -0.14096198049E+03  0.14096198049E+03  0.00000000000E+00 0. -1.
          6    1    1    2  501    0  0.97430008952E+02  0.90592545435E+02  0.45101905323E+02  0.22285151513E+03  0.17300000000E+03 0. -1.
         -6    1    1    2    0  502 -0.97430008952E+02 -0.90592545435E+02  0.17651331675E+03  0.28068766792E+03  0.17300000000E+03 0. -1.
<mgrwt>
<rscale>  2 0.21823981E+03</rscale>
<asrwt>0</asrwt>
<pdfrwt beam="1">  1       21 0.55781108E-01 0.21823981E+03</pdfrwt>
<pdfrwt beam="2">  1       21 0.21686459E-01 0.21823981E+03</pdfrwt>
<totfact> 0.59340834E+04</totfact>
</mgrwt>
</event>
<event>
 4    2  0.3944631E+000  0.2358915E+03  0.7546771E-02  0.1122560E+00
         21   -1    0    0  503  502  0.00000000000E+00  0.00000000000E+00  0.52557853862E+03  0.52557853862E+03  0.00000000000E+00 0.  1.
         21   -1    0    0  501  503 -0.00000000000E+00 -0.00000000000E+00 -0.19387842099E+03  0.19387842099E+03  0.00000000000E+00 0. -1.
          6    1    1    2  501    0  0.10162759874E+03 -0.12404684184E+03  0.40821165627E+03  0.47146743696E+03  0.17300000000E+03 0.  1.
         -6    1    1    2    0  502 -0.10162759874E+03  0.12404684184E+03 -0.76511538650E+02  0.24798952265E+03  0.17300000000E+03 0. -1.
<mgrwt>
<rscale>  2 0.23589147E+03</rscale>
<asrwt>0</asrwt>
<pdfrwt beam="1">  1       21 0.80858236E-01 0.23589147E+03</pdfrwt>
<pdfrwt beam="2">  1       21 0.29827450E-01 0.23589147E+03</pdfrwt>
<totfact> 0.14091370E+04</totfact>
</mgrwt>
</event>
<event>
 4    2  0.3944631E+000  0.2784500E+03  0.7546771E-02  0.1096539E+00
         21   -1    0    0  501  502  0.00000000000E+00  0.00000000000E+00  0.70229592620E+02  0.70229592620E+02  0.00000000000E+00 0. -1.
         21   -1    0    0  502  503 -0.00000000000E+00 -0.00000000000E+00 -0.11445046724E+04  0.11445046724E+04  0.00000000000E+00 0.  1.
          6    1    1    2  501    0  0.21469362111E+03  0.38884795119E+02 -0.42289555492E+03  0.50633489768E+03  0.17300000000E+03 0. -1.
         -6    1    1    2    0  503 -0.21469362111E+03 -0.38884795119E+02 -0.65137952484E+03  0.70839936732E+03  0.17300000000E+03 0. -1.
<mgrwt>
<rscale>  2 0.27844996E+03</rscale>
<asrwt>0</asrwt>
<pdfrwt beam="1">  1       21 0.10804553E-01 0.27844996E+03</pdfrwt>
<pdfrwt beam="2">  1       21 0.17607764E+00 0.27844996E+03</pdfrwt>
<totfact> 0.12949689E+04</totfact>
</mgrwt>
</event>
<event>
 4    2  0.3944631E+000  0.1746093E+03  0.7546771E-02  0.1173125E+00
         21   -1    0    0  503  502  0.00000000000E+00  0.00000000000E+00  0.72456906254E+02  0.72456906254E+02  0.00000000000E+00 0.  1.
         21   -1    0    0  501  503 -0.00000000000E+00 -0.00000000000E+00 -0.55972675425E+03  0.55972675425E+03  0.00000000000E+00 0.  1.
          6    1    1    2  501    0 -0.61291668429E+01 -0.22843943018E+02 -0.40112367557E+03  0.43747984584E+03  0.17300000000E+03 0.  1.
         -6    1    1    2    0  502  0.61291668429E+01  0.22843943018E+02 -0.86146172428E+02  0.19470381466E+03  0.17300000000E+03 0.  1.
<mgrwt>
<rscale>  2 0.17460931E+03</rscale>
<asrwt>0</asrwt>
<pdfrwt beam="1">  1       21 0.11147216E-01 0.17460931E+03</pdfrwt>
<pdfrwt beam="2">  1       21 0.86111810E-01 0.17460931E+03</pdfrwt>
<totfact> 0.78461527E+04</totfact>
</mgrwt>
</event>
<event>
 4    2  0.3944631E+000  0.2433978E+03  0.7546771E-02  0.1117550E+00
         21   -1    0    0  503  502  0.00000000000E+00  0.00000000000E+00  0.17277454973E+03  0.17277454973E+03  0.00000000000E+00 0. -1.
         21   -1    0    0  501  503 -0.00000000000E+00 -0.00000000000E+00 -0.51302477957E+03  0.51302477957E+03  0.00000000000E+00 0. -1.
          6    1    1    2  501    0 -0.15830764643E+03  0.65208778855E+02 -0.36759264470E+03  0.44087055719E+03  0.17300000000E+03 0. -1.
         -6    1    1    2    0  502  0.15830764643E+03 -0.65208778855E+02  0.27342414861E+02  0.24492877211E+03  0.17300000000E+03 0. -1.
<mgrwt>
<rscale>  2 0.24339781E+03</rscale>
<asrwt>0</asrwt>
<pdfrwt beam="1">  1       21 0.26580700E-01 0.24339781E+03</pdfrwt>
<pdfrwt beam="2">  1       21 0.78926888E-01 0.24339781E+03</pdfrwt>
<totfact> 0.18554478E+04</totfact>
</mgrwt>
</event>
<event>
 4    2  0.3944631E+000  0.2177982E+03  0.7546771E-02  0.1135535E+00
         21   -1    0    0  503  502  0.00000000000E+00  0.00000000000E+00  0.61893620261E+03  0.61893620261E+03  0.00000000000E+00 0.  1.
         21   -1    0    0  501  503 -0.00000000000E+00 -0.00000000000E+00 -0.18733356924E+03  0.18733356924E+03  0.00000000000E+00 0.  1.
          6    1    1    2  501    0  0.51492125822E+02 -0.12188358773E+03 -0.94084222164E+02  0.23725068775E+03  0.17300000000E+03 0.  1.
         -6    1    1    2    0  502 -0.51492125822E+02  0.12188358773E+03  0.52568685554E+03  0.56901908410E+03  0.17300000000E+03 0.  1.
<mgrwt>
<rscale>  2 0.21779818E+03</rscale>
<asrwt>0</asrwt>
<pdfrwt beam="1">  1       21 0.95220953E-01 0.21779818E+03</pdfrwt>
<pdfrwt beam="2">  1       21 0.28820549E-01 0.21779818E+03</pdfrwt>
<totfact> 0.10434872E+04</totfact>
</mgrwt>
</event>
<event>
 4    2  0.3944631E+000  0.1911799E+03  0.7546771E-02  0.1157401E+00
         21   -1    0    0  503  502  0.00000000000E+00  0.00000000000E+00  0.31699767987E+03  0.31699767987E+03  0.00000000000E+00 0. -1.
         21   -1    0    0  501  503 -0.00000000000E+00 -0.00000000000E+00 -0.12116277456E+03  0.12116277456E+03  0.00000000000E+00 0. -1.
          6    1    1    2  501    0 -0.77354778101E+02  0.25238451996E+02  0.49724798348E+02  0.19754062044E+03  0.17300000000E+03 0. -1.
         -6    1    1    2    0  502  0.77354778101E+02 -0.25238451996E+02  0.14611010696E+03  0.24061983399E+03  0.17300000000E+03 0. -1.
<mgrwt>
<rscale>  2 0.19117987E+03</rscale>
<asrwt>0</asrwt>
<pdfrwt beam="1">  1       21 0.48768874E-01 0.19117987E+03</pdfrwt>
<pdfrwt beam="2">  1       21 0.18640427E-01 0.19117987E+03</pdfrwt>
<totfact> 0.10567633E+05</totfact>
</mgrwt>
</event>
<event>
 4    2  0.3944631E+000  0.1886818E+03  0.7546771E-02  0.1159656E+00
         21   -1    0    0  501  502  0.00000000000E+00  0.00000000000E+00  0.66161596074E+03  0.66161596074E+03  0.00000000000E+00 0.  1.
         21   -1    0    0  502  503 -0.00000000000E+00 -0.00000000000E+00 -0.18280738511E+03  0.18280738511E+03  0.00000000000E+00 0.  1.
          6    1    1    2  501    0  0.24739588067E+02 -0.71131978979E+02  0.59407532703E+03  0.62331877867E+03  0.17300000000E+03 0.  1.
         -6    1    1    2    0  503 -0.24739588067E+02  0.71131978979E+02 -0.11526675140E+03  0.22110456719E+03  0.17300000000E+03 0.  1.
<mgrwt>
<rscale>  2 0.18868176E+03</rscale>
<asrwt>0</asrwt>
<pdfrwt beam="1">  1       21 0.10178707E+00 0.18868176E+03</pdfrwt>
<pdfrwt beam="2">  1       21 0.28124214E-01 0.18868176E+03</pdfrwt>
<totfact> 0.95342313E+03</totfact>
</mgrwt>
</event>
<event>
 4    2  0.3944631E+000  0.2317601E+03  0.7546771E-02  0.1125407E+00
         21   -1    0    0  501  502  0.00000000000E+00  0.00000000000E+00  0.55577111206E+02  0.55577111206E+02  0.00000000000E+00 0.  1.
         21   -1    0    0  502  503 -0.00000000000E+00 -0.00000000000E+00 -0.16019302295E+04  0.16019302295E+04  0.00000000000E+00 0. -1.
          6    1    1    2  501    0 -0.15000612615E+03  0.35803803331E+02 -0.25119742286E+03  0.34177901555E+03  0.17300000000E+03 0.  1.
         -6    1    1    2    0  503  0.15000612615E+03 -0.35803803331E+02 -0.12951556954E+04  0.13157283252E+04  0.17300000000E+03 0. -1.
<mgrwt>
<rscale>  2 0.23176011E+03</rscale>
<asrwt>0</asrwt>
<pdfrwt beam="1">  1       21 0.85503266E-02 0.23176011E+03</pdfrwt>
<pdfrwt beam="2">  1       21 0.24645075E+00 0.23176011E+03</pdfrwt>
<totfact> 0.71924321E+03</totfact>
</mgrwt>
</event>
<event>
 4    2  0.3944631E+000  0.1899880E+03  0.7546771E-02  0.1158472E+00
         21   -1    0    0  503  502  0.00000000000E+00  0.00000000000E+00  0.15809477915E+03  0.15809477915E+03  0.00000000000E+00 0. -1.
         21   -1    0    0  501  503 -0.00000000000E+00 -0.00000000000E+00 -0.23030970253E+03  0.23030970253E+03  0.00000000000E+00 0. -1.
          6    1    1    2  501    0  0.72113516693E+02 -0.31081625392E+02 -0.54180256939E+02  0.19756246346E+03  0.17300000000E+03 0. -1.
         -6    1    1    2    0  502 -0.72113516693E+02  0.31081625392E+02 -0.18034666441E+02  0.19084201823E+03  0.17300000000E+03 0. -1.
<mgrwt>
<rscale>  2 0.18998796E+03</rscale>
<asrwt>0</asrwt>
<pdfrwt beam="1">  1       21 0.24322274E-01 0.18998796E+03</pdfrwt>
<pdfrwt beam="2">  1       21 0.35432262E-01 0.18998796E+03</pdfrwt>
<totfact> 0.12269892E+05</totfact>
</mgrwt>
</event>
<event>
 4    2  0.3944631E+000  0.2059527E+03  0.7546771E-02  0.1144812E+00
         21   -1    0    0  501  502  0.00000000000E+00  0.00000000000E+00  0.55989505850E+02  0.55989505850E+02  0.00000000000E+00 0.  1.
         21   -1    0    0  502  503 -0.00000000000E+00 -0.00000000000E+00 -0.11846641303E+04  0.11846641303E+04  0.00000000000E+00 0. -1.
          6    1    1    2  501    0 -0.31860792362E+02 -0.10710934319E+03 -0.19187723368E+03  0.28148427007E+03  0.17300000000E+03 0.  1.
         -6    1    1    2    0  503  0.31860792362E+02  0.10710934319E+03 -0.93679739080E+03  0.95916936612E+03  0.17300000000E+03 0. -1.
<mgrwt>
<rscale>  2 0.20595272E+03</rscale>
<asrwt>0</asrwt>
<pdfrwt beam="1">  1       21 0.86137698E-02 0.20595272E+03</pdfrwt>
<pdfrwt beam="2">  1       21 0.18225603E+00 0.20595272E+03</pdfrwt>
<totfact> 0.18350238E+04</totfact>
</mgrwt>
</event>
<event>
 4    2  0.3944631E+000  0.1759539E+03  0.7546771E-02  0.1171777E+00
         21   -1    0    0  503  502  0.00000000000E+00  0.00000000000E+00  0.58372885696E+02  0.58372885696E+02  0.00000000000E+00 0. -1.
         21   -1    0    0  501  503 -0.00000000000E+00 -0.00000000000E+00 -0.62695728498E+03  0.62695728498E+03  0.00000000000E+00 0. -1.
          6    1    1    2  501    0 -0.26263062899E+02 -0.18467307043E+02 -0.41878195154E+03  0.45424455180E+03  0.17300000000E+03 0. -1.
         -6    1    1    2    0  502  0.26263062899E+02  0.18467307043E+02 -0.14980244774E+03  0.23108561888E+03  0.17300000000E+03 0. -1.
<mgrwt>
<rscale>  2 0.17595394E+03</rscale>
<asrwt>0</asrwt>
<pdfrwt beam="1">  1       21 0.89804441E-02 0.17595394E+03</pdfrwt>
<pdfrwt beam="2">  1       21 0.96454965E-01 0.17595394E+03</pdfrwt>
<totfact> 0.88280418E+04</totfact>
</mgrwt>
</event>
<event>
 4    2  0.3944631E+000  0.1748081E+03  0.7546771E-02  0.1172924E+00
         21   -1    0    0  503  502  0.00000000000E+00  0.00000000000E+00  0.11165719951E+03  0.11165719951E+03  0.00000000000E+00 0. -1.
         21   -1    0    0  501  503 -0.00000000000E+00 -0.00000000000E+00 -0.34132523873E+03  0.34132523873E+03  0.00000000000E+00 0. -1.
          6    1    1    2  501    0  0.49711910014E+00  0.25072583736E+02 -0.14001868635E+02  0.17536799568E+03  0.17300000000E+03 0. -1.
         -6    1    1    2    0  502 -0.49711910014E+00 -0.25072583736E+02 -0.21566617059E+03  0.27761444256E+03  0.17300000000E+03 0. -1.
<mgrwt>
<rscale>  2 0.17480813E+03</rscale>
<asrwt>0</asrwt>
<pdfrwt beam="1">  1       21 0.17178031E-01 0.17480813E+03</pdfrwt>
<pdfrwt beam="2">  1       21 0.52511575E-01 0.17480813E+03</pdfrwt>
<totfact> 0.10595638E+05</totfact>
</mgrwt>
</event>
<event>
 4    2  0.3944631E+000  0.1744587E+03  0.7546771E-02  0.1173276E+00
         21   -1    0    0  503  502  0.00000000000E+00  0.00000000000E+00  0.44589524032E+03  0.44589524032E+03  0.00000000000E+00 0. -1.
         21   -1    0    0  501  503 -0.00000000000E+00 -0.00000000000E+00 -0.69098053167E+02  0.69098053167E+02  0.00000000000E+00 0. -1.
          6    1    1    2  501    0  0.14117052766E+02  0.17537302490E+02  0.21679295763E+03  0.27827151244E+03  0.17300000000E+03 0. -1.
         -6    1    1    2    0  502 -0.14117052766E+02 -0.17537302490E+02  0.16000422952E+03  0.23672178105E+03  0.17300000000E+03 0. -1.
<mgrwt>
<rscale>  2 0.17445873E+03</rscale>
<asrwt>0</asrwt>
<pdfrwt beam="1">  1       21 0.68599266E-01 0.17445873E+03</pdfrwt>
<pdfrwt beam="2">  1       21 0.10630470E-01 0.17445873E+03</pdfrwt>
<totfact> 0.14195918E+05</totfact>
</mgrwt>
</event>
<event>
 4    2  0.3944631E+000  0.2474448E+03  0.7546771E-02  0.1114930E+00
         21   -1    0    0  503  502  0.00000000000E+00  0.00000000000E+00  0.85323486184E+03  0.85323486184E+03  0.00000000000E+00 0.  1.
         21   -1    0    0  501  503 -0.00000000000E+00 -0.00000000000E+00 -0.10187101703E+03  0.10187101703E+03  0.00000000000E+00 0. -1.
          6    1    1    2  501    0 -0.17436000173E+03  0.29975441964E+02  0.11605356758E+03  0.27330819210E+03  0.17300000000E+03 0. -1.
         -6    1    1    2    0  502  0.17436000173E+03 -0.29975441964E+02  0.63531027723E+03  0.68179768677E+03  0.17300000000E+03 0.  1.
<mgrwt>
<rscale>  2 0.24744482E+03</rscale>
<asrwt>0</asrwt>
<pdfrwt beam="1">  1       21 0.13126690E+00 0.24744482E+03</pdfrwt>
<pdfrwt beam="2">  1       21 0.15672465E-01 0.24744482E+03</pdfrwt>
<totfact> 0.14759710E+04</totfact>
</mgrwt>
</event>
<event>
 4    2  0.3944631E+000  0.2715584E+03  0.7546771E-02  0.1100391E+00
         21   -1    0    0  501  502  0.00000000000E+00  0.00000000000E+00  0.23193149058E+03  0.23193149058E+03  0.00000000000E+00 0.  1.
         21   -1    0    0  502  503 -0.00000000000E+00 -0.00000000000E+00 -0.70935445060E+03  0.70935445060E+03  0.00000000000E+00 0.  1.
          6    1    1    2  501    0  0.12156533980E+03  0.17040194160E+03  0.11088706088E+03  0.29332557647E+03  0.17300000000E+03 0.  1.
         -6    1    1    2    0  503 -0.12156533980E+03 -0.17040194160E+03 -0.58831002090E+03  0.64796036471E+03  0.17300000000E+03 0.  1.
<mgrwt>
<rscale>  2 0.27155838E+03</rscale>
<asrwt>0</asrwt>
<pdfrwt beam="1">  1       21 0.35681768E-01 0.27155838E+03</pdfrwt>
<pdfrwt beam="2">  1       21 0.10913145E+00 0.27155838E+03</pdfrwt>
<totfact> 0.47741051E+03</totfact>
</mgrwt>
</event>
<event>
 4    2  0.3944631E+000  0.2302118E+03  0.7546771E-02  0.1126491E+00
         21   -1    0    0  501  502  0.00000000000E+00  0.00000000000E+00  0.56738220333E+03  0.56738220333E+03  0.00000000000E+00 0. -1.
         21   -1    0    0  502  503 -0.00000000000E+00 -0.00000000000E+00 -0.95970956981E+02  0.95970956981E+02  0.00000000000E+00 0. -1.
          6    1    1    2  501    0  0.13357262895E+03 -0.72296630191E+02  0.28991859012E+03  0.37020296978E+03  0.17300000000E+03 0. -1.
         -6    1    1    2    0  503 -0.13357262895E+03  0.72296630191E+02  0.18149265623E+03  0.29315019053E+03  0.17300000000E+03 0. -1.
<mgrwt>
<rscale>  2 0.23021175E+03</rscale>
<asrwt>0</asrwt>
<pdfrwt beam="1">  1       21 0.87289568E-01 0.23021175E+03</pdfrwt>
<pdfrwt beam="2">  1       21 0.14764763E-01 0.23021175E+03</pdfrwt>
<totfact> 0.44682503E+04</totfact>
</mgrwt>
</event>
<event>
 4    2  0.3944631E+000  0.2065540E+03  0.7546771E-02  0.1144324E+00
         21   -1    0    0  501  502  0.00000000000E+00  0.00000000000E+00  0.14826163997E+04  0.14826163997E+04  0.00000000000E+00 0. -1.
         21   -1    0    0  502  503 -0.00000000000E+00 -0.00000000000E+00 -0.15584580173E+03  0.15584580173E+03  0.00000000000E+00 0.  1.
          6    1    1    2  501    0  0.38848791219E+02  0.10595428232E+03  0.14031254085E+04  0.14182473164E+04  0.17300000000E+03 0. -1.
         -6    1    1    2    0  503 -0.38848791219E+02 -0.10595428232E+03 -0.76354810480E+02  0.22021488506E+03  0.17300000000E+03 0.  1.
<mgrwt>
<rscale>  2 0.20655396E+03</rscale>
<asrwt>0</asrwt>
<pdfrwt beam="1">  1       21 0.22809482E+00 0.20655396E+03</pdfrwt>
<pdfrwt beam="2">  1       21 0.23976278E-01 0.20655396E+03</pdfrwt>
<totfact> 0.14504138E+03</totfact>
</mgrwt>
</event>
<event>
 4    2  0.3944631E+000  0.2708407E+03  0.7546771E-02  0.1100799E+00
         21   -1    0    0  501  502  0.00000000000E+00  0.00000000000E+00  0.33279946225E+03  0.33279946225E+03  0.00000000000E+00 0. -1.
         21   -1    0    0  502  503 -0.00000000000E+00 -0.00000000000E+00 -0.29948081915E+03  0.29948081915E+03  0.00000000000E+00 0. -1.
          6    1    1    2  501    0 -0.36421460983E+02  0.20518080004E+03  0.17909589841E+03  0.32469989891E+03  0.17300000000E+03 0. -1.
         -6    1    1    2    0  503  0.36421460983E+02 -0.20518080004E+03 -0.14577725531E+03  0.30758038249E+03  0.17300000000E+03 0. -1.
<mgrwt>
<rscale>  2 0.27084070E+03</rscale>
<asrwt>0</asrwt>
<pdfrwt beam="1">  1       21 0.51199917E-01 0.27084070E+03</pdfrwt>
<pdfrwt beam="2">  1       21 0.46073972E-01 0.27084070E+03</pdfrwt>
<totfact> 0.15683837E+04</totfact>
</mgrwt>
</event>
<event>
 4    2  0.3944631E+000  0.1813048E+03  0.7546771E-02  0.1166546E+00
         21   -1    0    0  501  502  0.00000000000E+00  0.00000000000E+00  0.36455867429E+03  0.36455867429E+03  0.00000000000E+00 0. -1.
         21   -1    0    0  502  503 -0.00000000000E+00 -0.00000000000E+00 -0.16953267235E+03  0.16953267235E+03  0.00000000000E+00 0.  1.
          6    1    1    2  501    0  0.12228631698E+01 -0.54230533056E+02  0.28022752019E+03  0.33376475125E+03  0.17300000000E+03 0. -1.
         -6    1    1    2    0  503 -0.12228631698E+01  0.54230533056E+02 -0.85201518244E+02  0.20032659539E+03  0.17300000000E+03 0.  1.
<mgrwt>
<rscale>  2 0.18130484E+03</rscale>
<asrwt>0</asrwt>
<pdfrwt beam="1">  1       21 0.56085950E-01 0.18130484E+03</pdfrwt>
<pdfrwt beam="2">  1       21 0.26081950E-01 0.18130484E+03</pdfrwt>
<totfact> 0.42034125E+04</totfact>
</mgrwt>
</event>
<event>
 4    2  0.3944631E+000  0.2108634E+03  0.7546771E-02  0.1140884E+00
         21   -1    0    0  501  502  0.00000000000E+00  0.00000000000E+00  0.18925892608E+03  0.18925892608E+03  0.00000000000E+00 0. -1.
         21   -1    0    0  502  503 -0.00000000000E+00 -0.00000000000E+00 -0.23860779265E+03  0.23860779265E+03  0.00000000000E+00 0. -1.
          6    1    1    2  501    0 -0.11825986884E+03  0.23430324661E+02 -0.51219708118E+02  0.21699501191E+03  0.17300000000E+03 0.  1.
         -6    1    1    2    0  503  0.11825986884E+03 -0.23430324661E+02  0.18708415494E+01  0.21087170683E+03  0.17300000000E+03 0.  1.
<mgrwt>
<rscale>  2 0.21086341E+03</rscale>
<asrwt>0</asrwt>
<pdfrwt beam="1">  1       21 0.29116758E-01 0.21086341E+03</pdfrwt>
<pdfrwt beam="2">  1       21 0.36708891E-01 0.21086341E+03</pdfrwt>
<totfact> 0.80208213E+04</totfact>
</mgrwt>
</event>
<event>
 4    2  0.3944631E+000  0.1756705E+03  0.7546771E-02  0.1172060E+00
         21   -1    0    0  503  502  0.00000000000E+00  0.00000000000E+00  0.23242576548E+03  0.23242576548E+03  0.00000000000E+00 0.  1.
         21   -1    0    0  501  503 -0.00000000000E+00 -0.00000000000E+00 -0.14183859367E+03  0.14183859367E+03  0.00000000000E+00 0.  1.
          6    1    1    2  501    0 -0.30072990947E+02 -0.51712880757E+01 -0.20130983502E+01  0.17568204111E+03  0.17300000000E+03 0.  1.
         -6    1    1    2    0  502  0.30072990947E+02  0.51712880757E+01  0.92600270157E+02  0.19858231804E+03  0.17300000000E+03 0.  1.
<mgrwt>
<rscale>  2 0.17567051E+03</rscale>
<asrwt>0</asrwt>
<pdfrwt beam="1">  1       21 0.35757810E-01 0.17567051E+03</pdfrwt>
<pdfrwt beam="2">  1       21 0.21821322E-01 0.17567051E+03</pdfrwt>
<totfact> 0.14864485E+05</totfact>
</mgrwt>
</event>
<event>
 4    2  0.3944631E+000  0.2617188E+03  0.7546771E-02  0.1106115E+00
         21   -1    0    0  501  502  0.00000000000E+00  0.00000000000E+00  0.13111604150E+04  0.13111604150E+04  0.00000000000E+00 0. -1.
         21   -1    0    0  502  503 -0.00000000000E+00 -0.00000000000E+00 -0.75711369606E+02  0.75711369606E+02  0.00000000000E+00 0.  1.
          6    1    1    2  501    0  0.31399531170E+02 -0.19386021403E+03  0.10038096172E+04  0.10373670810E+04  0.17300000000E+03 0. -1.
         -6    1    1    2    0  503 -0.31399531170E+02  0.19386021403E+03  0.23163942813E+03  0.34950470355E+03  0.17300000000E+03 0.  1.
<mgrwt>
<rscale>  2 0.26171877E+03</rscale>
<asrwt>0</asrwt>
<pdfrwt beam="1">  1       21 0.20171697E+00 0.26171877E+03</pdfrwt>
<pdfrwt beam="2">  1       21 0.11647904E-01 0.26171877E+03</pdfrwt>
<totfact> 0.76841546E+03</totfact>
</mgrwt>
</event>
<event>
 4    2  0.3944631E+000  0.2159261E+03  0.7546771E-02  0.1136957E+00
         21   -1    0    0  503  502  0.00000000000E+00  0.00000000000E+00  0.58362176295E+02  0.58362176295E+02  0.00000000000E+00 0. -1.
         21   -1    0    0  501  503 -0.00000000000E+00 -0.00000000000E+00 -0.87943285260E+03  0.87943285260E+03  0.00000000000E+00 0. -1.
          6    1    1    2  501    0  0.12919701758E+03 -0.17885789777E+01 -0.26861938073E+03  0.34464538307E+03  0.17300000000E+03 0. -1.
         -6    1    1    2    0  502 -0.12919701758E+03  0.17885789777E+01 -0.55245129558E+03  0.59314964583E+03  0.17300000000E+03 0. -1.
<mgrwt>
<rscale>  2 0.21592607E+03</rscale>
<asrwt>0</asrwt>
<pdfrwt beam="1">  1       21 0.89787968E-02 0.21592607E+03</pdfrwt>
<pdfrwt beam="2">  1       21 0.13529736E+00 0.21592607E+03</pdfrwt>
<totfact> 0.37813957E+04</totfact>
</mgrwt>
</event>
<event>
 4    2  0.3944631E+000  0.2630547E+03  0.7546771E-02  0.1105322E+00
         21   -1    0    0  503  502  0.00000000000E+00  0.00000000000E+00  0.75507384776E+02  0.75507384776E+02  0.00000000000E+00 0.  1.
         21   -1    0    0  501  503 -0.00000000000E+00 -0.00000000000E+00 -0.92103702173E+03  0.92103702173E+03  0.00000000000E+00 0.  1.
          6    1    1    2  501    0 -0.88204173706E+02  0.17745089762E+03 -0.38755324274E+03  0.46839653424E+03  0.17300000000E+03 0.  1.
         -6    1    1    2    0  502  0.88204173706E+02 -0.17745089762E+03 -0.45797639422E+03  0.52814787227E+03  0.17300000000E+03 0.  1.
<mgrwt>
<rscale>  2 0.26305474E+03</rscale>
<asrwt>0</asrwt>
<pdfrwt beam="1">  1       21 0.11616521E-01 0.26305474E+03</pdfrwt>
<pdfrwt beam="2">  1       21 0.14169800E+00 0.26305474E+03</pdfrwt>
<totfact> 0.20704039E+04</totfact>
</mgrwt>
</event>
<event>
 4    2  0.3944631E+000  0.2259469E+03  0.7546771E-02  0.1129526E+00
         21   -1    0    0  501  502  0.00000000000E+00  0.00000000000E+00  0.31791694784E+03  0.31791694784E+03  0.00000000000E+00 0. -1.
         21   -1    0    0  502  503 -0.00000000000E+00 -0.00000000000E+00 -0.16235168708E+03  0.16235168708E+03  0.00000000000E+00 0.  1.
          6    1    1    2  501    0  0.14061975680E+03 -0.36729647972E+02  0.10284833851E+03  0.24825342651E+03  0.17300000000E+03 0. -1.
         -6    1    1    2    0  503 -0.14061975680E+03  0.36729647972E+02  0.52716922247E+02  0.23201520841E+03  0.17300000000E+03 0. -1.
<mgrwt>
<rscale>  2 0.22594686E+03</rscale>
<asrwt>0</asrwt>
<pdfrwt beam="1">  1       21 0.48910300E-01 0.22594686E+03</pdfrwt>
<pdfrwt beam="2">  1       21 0.24977183E-01 0.22594686E+03</pdfrwt>
<totfact> 0.59633524E+04</totfact>
</mgrwt>
</event>
<event>
 4    2  0.3944631E+000  0.1759311E+03  0.7546771E-02  0.1171800E+00
         21   -1    0    0  501  502  0.00000000000E+00  0.00000000000E+00  0.63274000019E+03  0.63274000019E+03  0.00000000000E+00 0.  1.
         21   -1    0    0  502  503 -0.00000000000E+00 -0.00000000000E+00 -0.54448848560E+02  0.54448848560E+02  0.00000000000E+00 0.  1.
          6    1    1    2  501    0 -0.15507025556E+01 -0.31942663057E+02  0.39866399305E+03  0.43575763648E+03  0.17300000000E+03 0. -1.
         -6    1    1    2    0  503  0.15507025556E+01  0.31942663057E+02  0.17962715859E+03  0.25143121227E+03  0.17300000000E+03 0. -1.
<mgrwt>
<rscale>  2 0.17593106E+03</rscale>
<asrwt>0</asrwt>
<pdfrwt beam="1">  1       21 0.97344610E-01 0.17593106E+03</pdfrwt>
<pdfrwt beam="2">  1       21 0.83767464E-02 0.17593106E+03</pdfrwt>
<totfact> 0.97562593E+04</totfact>
</mgrwt>
</event>
<event>
 4    2  0.3944631E+000  0.3055676E+03  0.7546771E-02  0.1082490E+00
         21   -1    0    0  503  502  0.00000000000E+00  0.00000000000E+00  0.10872549234E+04  0.10872549234E+04  0.00000000000E+00 0.  1.
         21   -1    0    0  501  503 -0.00000000000E+00 -0.00000000000E+00 -0.86028978938E+02  0.86028978938E+02  0.00000000000E+00 0. -1.
          6    1    1    2  501    0 -0.22991566665E+03 -0.10286571285E+03  0.47605884513E+03  0.56568860045E+03  0.17300000000E+03 0.  1.
         -6    1    1    2    0  502  0.22991566665E+03  0.10286571285E+03  0.52516709930E+03  0.60759530186E+03  0.17300000000E+03 0. -1.
<mgrwt>
<rscale>  2 0.30556762E+03</rscale>
<asrwt>0</asrwt>
<pdfrwt beam="1">  1       21 0.16726998E+00 0.30556762E+03</pdfrwt>
<pdfrwt beam="2">  1       21 0.13235228E-01 0.30556762E+03</pdfrwt>
<totfact> 0.10226242E+04</totfact>
</mgrwt>
</event>
<event>
 4    2  0.3944631E+000  0.2035469E+03  0.7546771E-02  0.1146781E+00
         21   -1    0    0  501  502  0.00000000000E+00  0.00000000000E+00  0.19774292307E+04  0.19774292307E+04  0.00000000000E+00 0.  1.
         21   -1    0    0  502  503 -0.00000000000E+00 -0.00000000000E+00 -0.23428443232E+02  0.23428443232E+02  0.00000000000E+00 0.  1.
          6    1    1    2  501    0  0.10078995993E+03  0.36657011606E+02  0.65175035712E+03  0.68279563599E+03  0.17300000000E+03 0.  1.
         -6    1    1    2    0  503 -0.10078995993E+03 -0.36657011606E+02  0.13022504303E+04  0.13180620379E+04  0.17300000000E+03 0.  1.
<mgrwt>
<rscale>  2 0.20354693E+03</rscale>
<asrwt>0</asrwt>
<pdfrwt beam="1">  1       21 0.30421975E+00 0.20354693E+03</pdfrwt>
<pdfrwt beam="2">  1       21 0.36043774E-02 0.20354693E+03</pdfrwt>
<totfact> 0.14888803E+04</totfact>
</mgrwt>
</event>
<event>
 4    2  0.3944631E+000  0.1738737E+03  0.7546771E-02  0.1173867E+00
         21   -1    0    0  503  502  0.00000000000E+00  0.00000000000E+00  0.23707896680E+04  0.23707896680E+04  0.00000000000E+00 0.  1.
         21   -1    0    0  501  503 -0.00000000000E+00 -0.00000000000E+00 -0.19829614841E+02  0.19829614841E+02  0.00000000000E+00 0.  1.
          6    1    1    2  501    0 -0.18950351958E+01 -0.17305555026E+02  0.46136231337E+03  0.49303879928E+03  0.17300000000E+03 0.  1.
         -6    1    1    2    0  502  0.18950351958E+01  0.17305555026E+02  0.18895977398E+04  0.18975804835E+04  0.17300000000E+03 0.  1.
<mgrwt>
<rscale>  2 0.17387373E+03</rscale>
<asrwt>0</asrwt>
<pdfrwt beam="1">  1       21 0.36473665E+00 0.17387373E+03</pdfrwt>
<pdfrwt beam="2">  1       21 0.30507119E-02 0.17387373E+03</pdfrwt>
<totfact> 0.90145527E+03</totfact>
</mgrwt>
</event>
<event>
 4    2  0.3944631E+000  0.1851445E+03  0.7546771E-02  0.1162915E+00
         21   -1    0    0  501  502  0.00000000000E+00  0.00000000000E+00  0.13171063421E+03  0.13171063421E+03  0.00000000000E+00 0.  1.
         21   -1    0    0  502  503 -0.00000000000E+00 -0.00000000000E+00 -0.40569554284E+03  0.40569554284E+03  0.00000000000E+00 0.  1.
          6    1    1    2  501    0 -0.63388200742E+02 -0.18204757338E+02  0.23891915756E+02  0.18667967437E+03  0.17300000000E+03 0.  1.
         -6    1    1    2    0  503  0.63388200742E+02  0.18204757338E+02 -0.29787682438E+03  0.35072650268E+03  0.17300000000E+03 0.  1.
<mgrwt>
<rscale>  2 0.18514448E+03</rscale>
<asrwt>0</asrwt>
<pdfrwt beam="1">  1       21 0.20263175E-01 0.18514448E+03</pdfrwt>
<pdfrwt beam="2">  1       21 0.62414698E-01 0.18514448E+03</pdfrwt>
<totfact> 0.53799257E+04</totfact>
</mgrwt>
</event>
<event>
 4    2  0.3944631E+000  0.2153583E+03  0.7546771E-02  0.1137392E+00
         21   -1    0    0  503  502  0.00000000000E+00  0.00000000000E+00  0.59610066302E+02  0.59610066302E+02  0.00000000000E+00 0. -1.
         21   -1    0    0  501  503 -0.00000000000E+00 -0.00000000000E+00 -0.91143621880E+03  0.91143621880E+03  0.00000000000E+00 0. -1.
          6    1    1    2  501    0  0.35900117014E+02  0.12313157719E+03 -0.24016966058E+03  0.32258436039E+03  0.17300000000E+03 0. -1.
         -6    1    1    2    0  502 -0.35900117014E+02 -0.12313157719E+03 -0.61165649191E+03  0.64846192471E+03  0.17300000000E+03 0. -1.
<mgrwt>
<rscale>  2 0.21535831E+03</rscale>
<asrwt>0</asrwt>
<pdfrwt beam="1">  1       21 0.91707791E-02 0.21535831E+03</pdfrwt>
<pdfrwt beam="2">  1       21 0.14022096E+00 0.21535831E+03</pdfrwt>
<totfact> 0.33233927E+04</totfact>
</mgrwt>
</event>
<event>
 4    2  0.3944631E+000  0.1974977E+03  0.7546771E-02  0.1151868E+00
         21   -1    0    0  503  502  0.00000000000E+00  0.00000000000E+00  0.19315759496E+03  0.19315759496E+03  0.00000000000E+00 0. -1.
         21   -1    0    0  501  503 -0.00000000000E+00 -0.00000000000E+00 -0.69914341453E+03  0.69914341453E+03  0.00000000000E+00 0.  1.
          6    1    1    2  501    0 -0.75042985628E+02 -0.58693254259E+02 -0.62923495999E+03  0.65950131361E+03  0.17300000000E+03 0.  1.
         -6    1    1    2    0  502  0.75042985628E+02  0.58693254259E+02  0.12324914042E+03  0.23279969588E+03  0.17300000000E+03 0. -1.
<mgrwt>
<rscale>  2 0.19749772E+03</rscale>
<asrwt>0</asrwt>
<pdfrwt beam="1">  1       21 0.29716553E-01 0.19749772E+03</pdfrwt>
<pdfrwt beam="2">  1       21 0.10756052E+00 0.19749772E+03</pdfrwt>
<totfact> 0.74571063E+03</totfact>
</mgrwt>
</event>
<event>
 4    2  0.3944631E+000  0.1938746E+03  0.7546771E-02  0.1155012E+00
         21   -1    0    0  503  502  0.00000000000E+00  0.00000000000E+00  0.40204507441E+02  0.40204507441E+02  0.00000000000E+00 0. -1.
         21   -1    0    0  501  503 -0.00000000000E+00 -0.00000000000E+00 -0.95406636153E+03  0.95406636153E+03  0.00000000000E+00 0. -1.
          6    1    1    2  501    0  0.11169737308E+02 -0.86796340458E+02 -0.38647682244E+03  0.43237911841E+03  0.17300000000E+03 0. -1.
         -6    1    1    2    0  502 -0.11169737308E+02  0.86796340458E+02 -0.52738503165E+03  0.56189175056E+03  0.17300000000E+03 0. -1.
<mgrwt>
<rscale>  2 0.19387462E+03</rscale>
<asrwt>0</asrwt>
<pdfrwt beam="1">  1       21 0.61853088E-02 0.19387462E+03</pdfrwt>
<pdfrwt beam="2">  1       21 0.14677944E+00 0.19387462E+03</pdfrwt>
<totfact> 0.59186622E+04</totfact>
</mgrwt>
</event>
<event>
 4    2  0.3944631E+000  0.2030501E+03  0.7546771E-02  0.1147191E+00
         21   -1    0    0  501  502  0.00000000000E+00  0.00000000000E+00  0.17400047135E+04  0.17400047135E+04  0.00000000000E+00 0. -1.
         21   -1    0    0  502  503 -0.00000000000E+00 -0.00000000000E+00 -0.27135789183E+02  0.27135789183E+02  0.00000000000E+00 0. -1.
          6    1    1    2  501    0 -0.35363614685E+02 -0.10024849894E+03  0.11710652684E+04  0.11885382660E+04  0.17300000000E+03 0. -1.
         -6    1    1    2    0  503  0.35363614685E+02  0.10024849894E+03  0.54180365589E+03  0.57860223671E+03  0.17300000000E+03 0. -1.
<mgrwt>
<rscale>  2 0.20305011E+03</rscale>
<asrwt>0</asrwt>
<pdfrwt beam="1">  1       21 0.26769295E+00 0.20305011E+03</pdfrwt>
<pdfrwt beam="2">  1       21 0.41747382E-02 0.20305011E+03</pdfrwt>
<totfact> 0.18940133E+04</totfact>
</mgrwt>
</event>
<event>
 4    2  0.3944631E+000  0.2070212E+03  0.7546771E-02  0.1143947E+00
         21   -1    0    0  501  502  0.00000000000E+00  0.00000000000E+00  0.25659716877E+03  0.25659716877E+03  0.00000000000E+00 0. -1.
         21   -1    0    0  502  503 -0.00000000000E+00 -0.00000000000E+00 -0.20010753682E+03  0.20010753682E+03  0.00000000000E+00 0. -1.
          6    1    1    2  501    0 -0.13981003492E+02 -0.11284202504E+03  0.12109486756E+03  0.23983694049E+03  0.17300000000E+03 0. -1.
         -6    1    1    2    0  503  0.13981003492E+02  0.11284202504E+03 -0.64605235608E+02  0.21686776510E+03  0.17300000000E+03 0. -1.
<mgrwt>
<rscale>  2 0.20702123E+03</rscale>
<asrwt>0</asrwt>
<pdfrwt beam="1">  1       21 0.39476488E-01 0.20702123E+03</pdfrwt>
<pdfrwt beam="2">  1       21 0.30785775E-01 0.20702123E+03</pdfrwt>
<totfact> 0.62262468E+04</totfact>
</mgrwt>
</event>
<event>
 4    2  0.3944631E+000  0.1935185E+03  0.7546771E-02  0.1155326E+00
         21   -1    0    0  503  502  0.00000000000E+00  0.00000000000E+00  0.25882692512E+03  0.25882692512E+03  0.00000000000E+00 0.  1.
         21   -1    0    0  501  503 -0.00000000000E+00 -0.00000000000E+00 -0.15920269188E+03  0.15920269188E+03  0.00000000000E+00 0.  1.
          6    1    1    2  501    0 -0.11989604641E+02 -0.85887505213E+02 -0.13296767607E+02  0.19397478754E+03  0.17300000000E+03 0.  1.
         -6    1    1    2    0  502  0.11989604641E+02  0.85887505213E+02  0.11292100085E+03  0.22405482946E+03  0.17300000000E+03 0.  1.
<mgrwt>
<rscale>  2 0.19351851E+03</rscale>
<asrwt>0</asrwt>
<pdfrwt beam="1">  1       21 0.39819527E-01 0.19351851E+03</pdfrwt>
<pdfrwt beam="2">  1       21 0.24492722E-01 0.19351851E+03</pdfrwt>
<totfact> 0.95718393E+04</totfact>
</mgrwt>
</event>
<event>
 4    2  0.3944631E+000  0.2033695E+03  0.7546771E-02  0.1146927E+00
         21   -1    0    0  503  502  0.00000000000E+00  0.00000000000E+00  0.13725394297E+03  0.13725394297E+03  0.00000000000E+00 0.  1.
         21   -1    0    0  501  503 -0.00000000000E+00 -0.00000000000E+00 -0.32211634789E+03  0.32211634789E+03  0.00000000000E+00 0.  1.
          6    1    1    2  501    0 -0.82616152128E+02  0.67858085730E+02 -0.15077353963E+03  0.25316360055E+03  0.17300000000E+03 0.  1.
         -6    1    1    2    0  502  0.82616152128E+02 -0.67858085730E+02 -0.34088865286E+02  0.20620669031E+03  0.17300000000E+03 0.  1.
<mgrwt>
<rscale>  2 0.20336949E+03</rscale>
<asrwt>0</asrwt>
<pdfrwt beam="1">  1       21 0.21115991E-01 0.20336949E+03</pdfrwt>
<pdfrwt beam="2">  1       21 0.49556361E-01 0.20336949E+03</pdfrwt>
<totfact> 0.80568485E+04</totfact>
</mgrwt>
</event>
<event>
 4    2  0.3944631E+000  0.1796290E+03  0.7546771E-02  0.1168163E+00
         21   -1    0    0  501  502  0.00000000000E+00  0.00000000000E+00  0.21232437861E+03  0.21232437861E+03  0.00000000000E+00 0.  1.
         21   -1    0    0  502  503 -0.00000000000E+00 -0.00000000000E+00 -0.21354321215E+03  0.21354321215E+03  0.00000000000E+00 0.  1.
          6    1    1    2  501    0  0.19487825133E+01 -0.48309168088E+02  0.11373201685E+03  0.21260655006E+03  0.17300000000E+03 0.  1.
         -6    1    1    2    0  503 -0.19487825133E+01  0.48309168088E+02 -0.11495085038E+03  0.21326104070E+03  0.17300000000E+03 0.  1.
<mgrwt>
<rscale>  2 0.17962899E+03</rscale>
<asrwt>0</asrwt>
<pdfrwt beam="1">  1       21 0.32665289E-01 0.17962899E+03</pdfrwt>
<pdfrwt beam="2">  1       21 0.32852802E-01 0.17962899E+03</pdfrwt>
<totfact> 0.80871545E+04</totfact>
</mgrwt>
</event>
<event>
 4    2  0.3944631E+000  0.1923050E+03  0.7546771E-02  0.1156399E+00
         21   -1    0    0  501  502  0.00000000000E+00  0.00000000000E+00  0.30246775395E+02  0.30246775395E+02  0.00000000000E+00 0.  1.
         21   -1    0    0  502  503 -0.00000000000E+00 -0.00000000000E+00 -0.18350825022E+04  0.18350825022E+04  0.00000000000E+00 0.  1.
          6    1    1    2  501    0  0.67856738404E+02  0.49474028889E+02 -0.36361875294E+03  0.41133904990E+03  0.17300000000E+03 0.  1.
         -6    1    1    2    0  503 -0.67856738404E+02 -0.49474028889E+02 -0.14412169739E+04  0.14539902277E+04  0.17300000000E+03 0.  1.
<mgrwt>
<rscale>  2 0.19230501E+03</rscale>
<asrwt>0</asrwt>
<pdfrwt beam="1">  1       21 0.46533492E-02 0.19230501E+03</pdfrwt>
<pdfrwt beam="2">  1       21 0.28232044E+00 0.19230501E+03</pdfrwt>
<totfact> 0.13112635E+04</totfact>
</mgrwt>
</event>
<event>
 4    2  0.3944631E+000  0.2135716E+03  0.7546771E-02  0.1138768E+00
         21   -1    0    0  503  502  0.00000000000E+00  0.00000000000E+00  0.52683486133E+03  0.52683486133E+03  0.00000000000E+00 0.  1.
         21   -1    0    0  501  503 -0.00000000000E+00 -0.00000000000E+00 -0.10615896431E+03  0.10615896431E+03  0.00000000000E+00 0.  1.
          6    1    1    2  501    0 -0.52980693444E+02 -0.11347640700E+03  0.74413741392E+02  0.22616421850E+03  0.17300000000E+03 0.  1.
         -6    1    1    2    0  502  0.52980693444E+02  0.11347640700E+03  0.34626215562E+03  0.40682960713E+03  0.17300000000E+03 0.  1.
<mgrwt>
<rscale>  2 0.21357165E+03</rscale>
<asrwt>0</asrwt>
<pdfrwt beam="1">  1       21 0.81051516E-01 0.21357165E+03</pdfrwt>
<pdfrwt beam="2">  1       21 0.16332149E-01 0.21357165E+03</pdfrwt>
<totfact> 0.44367630E+04</totfact>
</mgrwt>
</event>
<event>
 4    2  0.3944631E+000  0.1920515E+03  0.7546771E-02  0.1156624E+00
         21   -1    0    0  501  502  0.00000000000E+00  0.00000000000E+00  0.62944664047E+03  0.62944664047E+03  0.00000000000E+00 0. -1.
         21   -1    0    0  502  503 -0.00000000000E+00 -0.00000000000E+00 -0.66790127141E+02  0.66790127141E+02  0.00000000000E+00 0. -1.
          6    1    1    2  501    0  0.27710066416E+01  0.83349187461E+02  0.15940339512E+03  0.24958607314E+03  0.17300000000E+03 0. -1.
         -6    1    1    2    0  503 -0.27710066416E+01 -0.83349187461E+02  0.40325311821E+03  0.44665069448E+03  0.17300000000E+03 0. -1.
<mgrwt>
<rscale>  2 0.19205147E+03</rscale>
<asrwt>0</asrwt>
<pdfrwt beam="1">  1       21 0.96837941E-01 0.19205147E+03</pdfrwt>
<pdfrwt beam="2">  1       21 0.10275405E-01 0.19205147E+03</pdfrwt>
<totfact> 0.68515419E+04</totfact>
</mgrwt>
</event>
<event>
 4    2  0.3944631E+000  0.2564738E+03  0.7546771E-02  0.1109281E+00
         21   -1    0    0  501  502  0.00000000000E+00  0.00000000000E+00  0.82564680046E+03  0.82564680046E+03  0.00000000000E+00 0. -1.
         21   -1    0    0  502  503 -0.00000000000E+00 -0.00000000000E+00 -0.29123771676E+03  0.29123771676E+03  0.00000000000E+00 0. -1.
          6    1    1    2  501    0 -0.30798322756E+02  0.18681886448E+03  0.74317470836E+03  0.78618539286E+03  0.17300000000E+03 0. -1.
         -6    1    1    2    0  503  0.30798322756E+02 -0.18681886448E+03 -0.20876562466E+03  0.33069912435E+03  0.17300000000E+03 0. -1.
<mgrwt>
<rscale>  2 0.25647383E+03</rscale>
<asrwt>0</asrwt>
<pdfrwt beam="1">  1       21 0.12702258E+00 0.25647383E+03</pdfrwt>
<pdfrwt beam="2">  1       21 0.44805803E-01 0.25647383E+03</pdfrwt>
<totfact> 0.20793468E+03</totfact>
</mgrwt>
</event>
<event>
 4    2  0.3944631E+000  0.2146005E+03  0.7546771E-02  0.1137974E+00
         21   -1    0    0  503  502  0.00000000000E+00  0.00000000000E+00  0.40618404448E+02  0.40618404448E+02  0.00000000000E+00 0. -1.
         21   -1    0    0  501  503 -0.00000000000E+00 -0.00000000000E+00 -0.17195165012E+04  0.17195165012E+04  0.00000000000E+00 0. -1.
          6    1    1    2  501    0  0.55610193221E+02  0.11415729334E+03 -0.13530837740E+04  0.13699960148E+04  0.17300000000E+03 0. -1.
         -6    1    1    2    0  502 -0.55610193221E+02 -0.11415729334E+03 -0.32581432277E+03  0.39013889083E+03  0.17300000000E+03 0. -1.
<mgrwt>
<rscale>  2 0.21460052E+03</rscale>
<asrwt>0</asrwt>
<pdfrwt beam="1">  1       21 0.62489862E-02 0.21460052E+03</pdfrwt>
<pdfrwt beam="2">  1       21 0.26454096E+00 0.21460052E+03</pdfrwt>
<totfact> 0.98476345E+03</totfact>
</mgrwt>
</event>
<event>
 4    2  0.3944631E+000  0.1787618E+03  0.7546771E-02  0.1169007E+00
         21   -1    0    0  503  502  0.00000000000E+00  0.00000000000E+00  0.20680535294E+03  0.20680535294E+03  0.00000000000E+00 0. -1.
         21   -1    0    0  501  503 -0.00000000000E+00 -0.00000000000E+00 -0.29460969925E+03  0.29460969925E+03  0.00000000000E+00 0. -1.
          6    1    1    2  501    0  0.43353859681E+02 -0.12134180911E+02 -0.21678235508E+03  0.28098111141E+03  0.17300000000E+03 0. -1.
         -6    1    1    2    0  502 -0.43353859681E+02  0.12134180911E+02  0.12897800878E+03  0.22043394077E+03  0.17300000000E+03 0. -1.
<mgrwt>
<rscale>  2 0.17876184E+03</rscale>
<asrwt>0</asrwt>
<pdfrwt beam="1">  1       21 0.31816208E-01 0.17876184E+03</pdfrwt>
<pdfrwt beam="2">  1       21 0.45324569E-01 0.17876184E+03</pdfrwt>
<totfact> 0.44654026E+04</totfact>
</mgrwt>
</event>
<event>
 4    2  0.3944631E+000  0.1792331E+03  0.7546771E-02  0.1168547E+00
         21   -1    0    0  503  502  0.00000000000E+00  0.00000000000E+00  0.52475767979E+02  0.52475767979E+02  0.00000000000E+00 0.  1.
         21   -1    0    0  501  503 -0.00000000000E+00 -0.00000000000E+00 -0.81704521757E+03  0.81704521757E+03  0.00000000000E+00 0.  1.
          6    1    1    2  501    0  0.65093011467E+01 -0.46401695283E+02 -0.59998737322E+03  0.62618634316E+03  0.17300000000E+03 0.  1.
         -6    1    1    2    0  502 -0.65093011467E+01  0.46401695283E+02 -0.16458207636E+03  0.24333464239E+03  0.17300000000E+03 0.  1.
<mgrwt>
<rscale>  2 0.17923306E+03</rscale>
<asrwt>0</asrwt>
<pdfrwt beam="1">  1       21 0.80731956E-02 0.17923306E+03</pdfrwt>
<pdfrwt beam="2">  1       21 0.12569926E+00 0.17923306E+03</pdfrwt>
<totfact> 0.55945986E+04</totfact>
</mgrwt>
</event>
<event>
 4    2  0.3944631E+000  0.1860828E+03  0.7546771E-02  0.1162043E+00
         21   -1    0    0  503  502  0.00000000000E+00  0.00000000000E+00  0.11170893004E+03  0.11170893004E+03  0.00000000000E+00 0.  1.
         21   -1    0    0  501  503 -0.00000000000E+00 -0.00000000000E+00 -0.31198467244E+03  0.31198467244E+03  0.00000000000E+00 0.  1.
          6    1    1    2  501    0 -0.53665879454E+02 -0.42635550550E+02 -0.83129157713E+02  0.20380695192E+03  0.17300000000E+03 0.  1.
         -6    1    1    2    0  502  0.53665879454E+02  0.42635550550E+02 -0.11714658469E+03  0.21988665056E+03  0.17300000000E+03 0.  1.
<mgrwt>
<rscale>  2 0.18608282E+03</rscale>
<asrwt>0</asrwt>
<pdfrwt beam="1">  1       21 0.17185989E-01 0.18608282E+03</pdfrwt>
<pdfrwt beam="2">  1       21 0.47997642E-01 0.18608282E+03</pdfrwt>
<totfact> 0.12713764E+05</totfact>
</mgrwt>
</event>
<event>
 4    2  0.3944631E+000  0.1977899E+03  0.7546771E-02  0.1151617E+00
         21   -1    0    0  503  502  0.00000000000E+00  0.00000000000E+00  0.17423179180E+03  0.17423179180E+03  0.00000000000E+00 0. -1.
         21   -1    0    0  501  503 -0.00000000000E+00 -0.00000000000E+00 -0.25952861944E+03  0.25952861944E+03  0.00000000000E+00 0.  1.
          6    1    1    2  501    0  0.77891808934E+02 -0.55899096015E+02 -0.12228857658E+03  0.23254104755E+03  0.17300000000E+03 0.  1.
         -6    1    1    2    0  502 -0.77891808934E+02  0.55899096015E+02  0.36991748934E+02  0.20121936369E+03  0.17300000000E+03 0. -1.
<mgrwt>
<rscale>  2 0.19778990E+03</rscale>
<asrwt>0</asrwt>
<pdfrwt beam="1">  1       21 0.26804891E-01 0.19778990E+03</pdfrwt>
<pdfrwt beam="2">  1       21 0.39927480E-01 0.19778990E+03</pdfrwt>
<totfact> 0.79946886E+04</totfact>
</mgrwt>
</event>
<event>
 4    2  0.3944631E+000  0.1837511E+03  0.7546771E-02  0.1164221E+00
         21   -1    0    0  501  502  0.00000000000E+00  0.00000000000E+00  0.26255385934E+03  0.26255385934E+03  0.00000000000E+00 0. -1.
         21   -1    0    0  502  503 -0.00000000000E+00 -0.00000000000E+00 -0.33452252246E+03  0.33452252246E+03  0.00000000000E+00 0. -1.
          6    1    1    2  501    0 -0.59592412912E+02 -0.16858974637E+02  0.19824372855E+03  0.27030548757E+03  0.17300000000E+03 0.  1.
         -6    1    1    2    0  503  0.59592412912E+02  0.16858974637E+02 -0.27021239167E+03  0.32677089423E+03  0.17300000000E+03 0.  1.
<mgrwt>
<rscale>  2 0.18375114E+03</rscale>
<asrwt>0</asrwt>
<pdfrwt beam="1">  1       21 0.40392902E-01 0.18375114E+03</pdfrwt>
<pdfrwt beam="2">  1       21 0.51465003E-01 0.18375114E+03</pdfrwt>
<totfact> 0.21295589E+04</totfact>
</mgrwt>
</event>
<event>
 4    2  0.3944631E+000  0.1908831E+03  0.7546771E-02  0.1157667E+00
         21   -1    0    0  503  502  0.00000000000E+00  0.00000000000E+00  0.15618786530E+03  0.15618786530E+03  0.00000000000E+00 0.  1.
         21   -1    0    0  501  503 -0.00000000000E+00 -0.00000000000E+00 -0.24784105777E+03  0.24784105777E+03  0.00000000000E+00 0.  1.
          6    1    1    2  501    0 -0.25973106162E+02  0.76372603153E+02 -0.94782950057E+02  0.21312011725E+03  0.17300000000E+03 0. -1.
         -6    1    1    2    0  502  0.25973106162E+02 -0.76372603153E+02  0.31297575877E+01  0.19090880582E+03  0.17300000000E+03 0. -1.
<mgrwt>
<rscale>  2 0.19088315E+03</rscale>
<asrwt>0</asrwt>
<pdfrwt beam="1">  1       21 0.24028902E-01 0.19088315E+03</pdfrwt>
<pdfrwt beam="2">  1       21 0.38129393E-01 0.19088315E+03</pdfrwt>
<totfact> 0.10842317E+05</totfact>
</mgrwt>
</event>
<event>
 4    2  0.3944631E+000  0.1957977E+03  0.7546771E-02  0.1153334E+00
         21   -1    0    0  501  502  0.00000000000E+00  0.00000000000E+00  0.21638841583E+03  0.21638841583E+03  0.00000000000E+00 0.  1.
         21   -1    0    0  502  503 -0.00000000000E+00 -0.00000000000E+00 -0.22840808093E+03  0.22840808093E+03  0.00000000000E+00 0. -1.
          6    1    1    2  501    0 -0.84627063685E+02  0.35298599265E+02  0.99328833778E+02  0.21955169833E+03  0.17300000000E+03 0.  1.
         -6    1    1    2    0  503  0.84627063685E+02 -0.35298599265E+02 -0.11134849888E+03  0.22524479843E+03  0.17300000000E+03 0. -1.
<mgrwt>
<rscale>  2 0.19579768E+03</rscale>
<asrwt>0</asrwt>
<pdfrwt beam="1">  1       21 0.33290526E-01 0.19579768E+03</pdfrwt>
<pdfrwt beam="2">  1       21 0.35139705E-01 0.19579768E+03</pdfrwt>
<totfact> 0.67745888E+04</totfact>
</mgrwt>
</event>
<event>
 4    2  0.3944631E+000  0.2595598E+03  0.7546771E-02  0.1107408E+00
         21   -1    0    0  501  502  0.00000000000E+00  0.00000000000E+00  0.11258461263E+03  0.11258461263E+03  0.00000000000E+00 0. -1.
         21   -1    0    0  502  503 -0.00000000000E+00 -0.00000000000E+00 -0.61028590441E+03  0.61028590441E+03  0.00000000000E+00 0.  1.
          6    1    1    2  501    0 -0.50275610020E+02  0.18685458729E+03 -0.29927912057E+03  0.39615560801E+03  0.17300000000E+03 0. -1.
         -6    1    1    2    0  503  0.50275610020E+02 -0.18685458729E+03 -0.19842217121E+03  0.32671490903E+03  0.17300000000E+03 0.  1.
<mgrwt>
<rscale>  2 0.25955977E+03</rscale>
<asrwt>0</asrwt>
<pdfrwt beam="1">  1       21 0.17320710E-01 0.25955977E+03</pdfrwt>
<pdfrwt beam="2">  1       21 0.93890137E-01 0.25955977E+03</pdfrwt>
<totfact> 0.27727845E+04</totfact>
</mgrwt>
</event>
<event>
 4    2  0.3944631E+000  0.1877035E+03  0.7546771E-02  0.1160549E+00
         21   -1    0    0  503  502  0.00000000000E+00  0.00000000000E+00  0.12342101630E+03  0.12342101630E+03  0.00000000000E+00 0.  1.
         21   -1    0    0  501  503 -0.00000000000E+00 -0.00000000000E+00 -0.10064449948E+04  0.10064449948E+04  0.00000000000E+00 0.  1.
          6    1    1    2  501    0  0.11136294171E+02  0.71969458256E+02 -0.91966065595E+03  0.93862044623E+03  0.17300000000E+03 0.  1.
         -6    1    1    2    0  502 -0.11136294171E+02 -0.71969458256E+02  0.36636677415E+02  0.19124556492E+03  0.17300000000E+03 0.  1.
<mgrwt>
<rscale>  2 0.18770354E+03</rscale>
<asrwt>0</asrwt>
<pdfrwt beam="1">  1       21 0.18987849E-01 0.18770354E+03</pdfrwt>
<pdfrwt beam="2">  1       21 0.15483769E+00 0.18770354E+03</pdfrwt>
<totfact> 0.70169485E+03</totfact>
</mgrwt>
</event>
<event>
 4    2  0.3944631E+000  0.1751608E+03  0.7546771E-02  0.1172570E+00
         21   -1    0    0  501  502  0.00000000000E+00  0.00000000000E+00  0.64016954941E+02  0.64016954941E+02  0.00000000000E+00 0.  1.
         21   -1    0    0  502  503 -0.00000000000E+00 -0.00000000000E+00 -0.77412004956E+03  0.77412004956E+03  0.00000000000E+00 0.  1.
          6    1    1    2  501    0  0.23242648713E+02  0.14563153779E+02 -0.96419336018E+02  0.19994497874E+03  0.17300000000E+03 0.  1.
         -6    1    1    2    0  503 -0.23242648713E+02 -0.14563153779E+02 -0.61368375860E+03  0.63819202576E+03  0.17300000000E+03 0.  1.
<mgrwt>
<rscale>  2 0.17516080E+03</rscale>
<asrwt>0</asrwt>
<pdfrwt beam="1">  1       21 0.98487618E-02 0.17516080E+03</pdfrwt>
<pdfrwt beam="2">  1       21 0.11909540E+00 0.17516080E+03</pdfrwt>
<totfact> 0.45277897E+04</totfact>
</mgrwt>
</event>
<event>
 4    2  0.3944631E+000  0.1935563E+03  0.7546771E-02  0.1155292E+00
         21   -1    0    0  503  502  0.00000000000E+00  0.00000000000E+00  0.37667141750E+03  0.37667141750E+03  0.00000000000E+00 0. -1.
         21   -1    0    0  501  503 -0.00000000000E+00 -0.00000000000E+00 -0.13798998089E+03  0.13798998089E+03  0.00000000000E+00 0. -1.
          6    1    1    2  501    0  0.30017492940E+02  0.81449383131E+02 -0.16635369150E+02  0.19426988290E+03  0.17300000000E+03 0. -1.
         -6    1    1    2    0  502 -0.30017492940E+02 -0.81449383131E+02  0.25531680576E+03  0.32039151549E+03  0.17300000000E+03 0. -1.
<mgrwt>
<rscale>  2 0.19355633E+03</rscale>
<asrwt>0</asrwt>
<pdfrwt beam="1">  1       21 0.57949449E-01 0.19355633E+03</pdfrwt>
<pdfrwt beam="2">  1       21 0.21229228E-01 0.19355633E+03</pdfrwt>
<totfact> 0.57603964E+04</totfact>
</mgrwt>
</event>
<event>
 4    2  0.3944631E+000  0.1871551E+03  0.7546771E-02  0.1161053E+00
         21   -1    0    0  501  502  0.00000000000E+00  0.00000000000E+00  0.18951274697E+04  0.18951274697E+04  0.00000000000E+00 0. -1.
         21   -1    0    0  502  503 -0.00000000000E+00 -0.00000000000E+00 -0.18927775923E+02  0.18927775923E+02  0.00000000000E+00 0. -1.
          6    1    1    2  501    0 -0.67031488731E+02 -0.24592739632E+02  0.79134096764E+03  0.81317129216E+03  0.17300000000E+03 0. -1.
         -6    1    1    2    0  503  0.67031488731E+02  0.24592739632E+02  0.10848587262E+04  0.11008839535E+04  0.17300000000E+03 0. -1.
<mgrwt>
<rscale>  2 0.18715508E+03</rscale>
<asrwt>0</asrwt>
<pdfrwt beam="1">  1       21 0.29155792E+00 0.18715508E+03</pdfrwt>
<pdfrwt beam="2">  1       21 0.29119670E-02 0.18715508E+03</pdfrwt>
<totfact> 0.25510168E+04</totfact>
</mgrwt>
</event>
<event>
 4    2  0.3944631E+000  0.1853494E+03  0.7546771E-02  0.1162724E+00
         21   -1    0    0  503  502  0.00000000000E+00  0.00000000000E+00  0.12615813135E+03  0.12615813135E+03  0.00000000000E+00 0.  1.
         21   -1    0    0  501  503 -0.00000000000E+00 -0.00000000000E+00 -0.28868158647E+03  0.28868158647E+03  0.00000000000E+00 0.  1.
          6    1    1    2  501    0 -0.66098234880E+02 -0.75117131288E+01 -0.13065372085E+03  0.22677036239E+03  0.17300000000E+03 0.  1.
         -6    1    1    2    0  502  0.66098234880E+02  0.75117131288E+01 -0.31869734276E+02  0.18806935543E+03  0.17300000000E+03 0.  1.
<mgrwt>
<rscale>  2 0.18534941E+03</rscale>
<asrwt>0</asrwt>
<pdfrwt beam="1">  1       21 0.19408944E-01 0.18534941E+03</pdfrwt>
<pdfrwt beam="2">  1       21 0.44412551E-01 0.18534941E+03</pdfrwt>
<totfact> 0.11914526E+05</totfact>
</mgrwt>
</event>
<event>
 4    2  0.3944631E+000  0.3040710E+03  0.7546771E-02  0.1083223E+00
         21   -1    0    0  501  502  0.00000000000E+00  0.00000000000E+00  0.60450481511E+03  0.60450481511E+03  0.00000000000E+00 0.  1.
         21   -1    0    0  502  503 -0.00000000000E+00 -0.00000000000E+00 -0.12190797687E+04  0.12190797687E+04  0.00000000000E+00 0.  1.
          6    1    1    2  501    0  0.19710586213E+03  0.15388131814E+03  0.54539008043E+03  0.62442735429E+03  0.17300000000E+03 0.  1.
         -6    1    1    2    0  503 -0.19710586213E+03 -0.15388131814E+03 -0.11599650340E+04  0.11991572295E+04  0.17300000000E+03 0.  1.
<mgrwt>
<rscale>  2 0.30407101E+03</rscale>
<asrwt>0</asrwt>
<pdfrwt beam="1">  1       21 0.93000742E-01 0.30407101E+03</pdfrwt>
<pdfrwt beam="2">  1       21 0.18755073E+00 0.30407101E+03</pdfrwt>
<totfact> 0.13975615E+02</totfact>
</mgrwt>
</event>
<event>
 4    2  0.3944631E+000  0.2143047E+03  0.7546771E-02  0.1138202E+00
         21   -1    0    0  501  502  0.00000000000E+00  0.00000000000E+00  0.22620699263E+04  0.22620699263E+04  0.00000000000E+00 0. -1.
         21   -1    0    0  502  503 -0.00000000000E+00 -0.00000000000E+00 -0.20325064611E+02  0.20325064611E+02  0.00000000000E+00 0.  1.
          6    1    1    2  501    0  0.12621530758E+03  0.81966618650E+01  0.10831529286E+04  0.11041497887E+04  0.17300000000E+03 0. -1.
         -6    1    1    2    0  503 -0.12621530758E+03 -0.81966618650E+01  0.11585919331E+04  0.11782452022E+04  0.17300000000E+03 0. -1.
<mgrwt>
<rscale>  2 0.21430466E+03</rscale>
<asrwt>0</asrwt>
<pdfrwt beam="1">  1       21 0.34801056E+00 0.21430466E+03</pdfrwt>
<pdfrwt beam="2">  1       21 0.31269348E-02 0.21430466E+03</pdfrwt>
<totfact> 0.10357117E+04</totfact>
</mgrwt>
</event>
<event>
 4    2  0.3944631E+000  0.1754188E+03  0.7546771E-02  0.1172312E+00
         21   -1    0    0  503  502  0.00000000000E+00  0.00000000000E+00  0.18075656993E+04  0.18075656993E+04  0.00000000000E+00 0. -1.
         21   -1    0    0  501  503 -0.00000000000E+00 -0.00000000000E+00 -0.19871943853E+02  0.19871943853E+02  0.00000000000E+00 0. -1.
          6    1    1    2  501    0 -0.18304424939E+02  0.22532369715E+02  0.54793284541E+03  0.57532787412E+03  0.17300000000E+03 0. -1.
         -6    1    1    2    0  502  0.18304424939E+02 -0.22532369715E+02  0.12397609100E+04  0.12521097690E+04  0.17300000000E+03 0. -1.
<mgrwt>
<rscale>  2 0.17541881E+03</rscale>
<asrwt>0</asrwt>
<pdfrwt beam="1">  1       21 0.27808690E+00 0.17541881E+03</pdfrwt>
<pdfrwt beam="2">  1       21 0.30572236E-02 0.17541881E+03</pdfrwt>
<totfact> 0.28448585E+04</totfact>
</mgrwt>
</event>
<event>
 4    2  0.3944631E+000  0.3195220E+03  0.7546771E-02  0.1075869E+00
         21   -1    0    0  503  502  0.00000000000E+00  0.00000000000E+00  0.69170776380E+03  0.69170776380E+03  0.00000000000E+00 0. -1.
         21   -1    0    0  501  503 -0.00000000000E+00 -0.00000000000E+00 -0.24451371620E+03  0.24451371620E+03  0.00000000000E+00 0.  1.
          6    1    1    2  501    0 -0.99601969847E+02  0.24948903663E+03 -0.71113220934E+02  0.32733991811E+03  0.17300000000E+03 0. -1.
         -6    1    1    2    0  502  0.99601969847E+02 -0.24948903663E+03  0.51830726853E+03  0.60888156189E+03  0.17300000000E+03 0.  1.
<mgrwt>
<rscale>  2 0.31952204E+03</rscale>
<asrwt>0</asrwt>
<pdfrwt beam="1">  1       21 0.10641658E+00 0.31952204E+03</pdfrwt>
<pdfrwt beam="2">  1       21 0.37617495E-01 0.31952204E+03</pdfrwt>
<totfact> 0.44485834E+03</totfact>
</mgrwt>
</event>
<event>
 4    2  0.3944631E+000  0.2113786E+03  0.7546771E-02  0.1140479E+00
         21   -1    0    0  503  502  0.00000000000E+00  0.00000000000E+00  0.96938465808E+02  0.96938465808E+02  0.00000000000E+00 0. -1.
         21   -1    0    0  501  503 -0.00000000000E+00 -0.00000000000E+00 -0.48655093786E+03  0.48655093786E+03  0.00000000000E+00 0.  1.
          6    1    1    2  501    0  0.10507139832E+03  0.60925439281E+02 -0.26176669583E+03  0.33645610552E+03  0.17300000000E+03 0.  1.
         -6    1    1    2    0  502 -0.10507139832E+03 -0.60925439281E+02 -0.12784577622E+03  0.24703329815E+03  0.17300000000E+03 0. -1.
<mgrwt>
<rscale>  2 0.21137859E+03</rscale>
<asrwt>0</asrwt>
<pdfrwt beam="1">  1       21 0.14913610E-01 0.21137859E+03</pdfrwt>
<pdfrwt beam="2">  1       21 0.74853990E-01 0.21137859E+03</pdfrwt>
<totfact> 0.62755564E+04</totfact>
</mgrwt>
</event>
<event>
 4    2  0.3944631E+000  0.2614875E+03  0.7546771E-02  0.1106253E+00
         21   -1    0    0  503  502  0.00000000000E+00  0.00000000000E+00  0.74605382606E+02  0.74605382606E+02  0.00000000000E+00 0. -1.
         21   -1    0    0  501  503 -0.00000000000E+00 -0.00000000000E+00 -0.92324135973E+03  0.92324135973E+03  0.00000000000E+00 0. -1.
          6    1    1    2  501    0 -0.81586899431E+02 -0.17829835002E+03 -0.38167995247E+03  0.46266111777E+03  0.17300000000E+03 0. -1.
         -6    1    1    2    0  502  0.81586899431E+02  0.17829835002E+03 -0.46695602466E+03  0.53518562457E+03  0.17300000000E+03 0. -1.
<mgrwt>
<rscale>  2 0.26148752E+03</rscale>
<asrwt>0</asrwt>
<pdfrwt beam="1">  1       21 0.11477751E-01 0.26148752E+03</pdfrwt>
<pdfrwt beam="2">  1       21 0.14203713E+00 0.26148752E+03</pdfrwt>
<totfact> 0.21040280E+04</totfact>
</mgrwt>
</event>
<event>
 4    2  0.3944631E+000  0.1813181E+03  0.7546771E-02  0.1166533E+00
         21   -1    0    0  501  502  0.00000000000E+00  0.00000000000E+00  0.10061553072E+04  0.10061553072E+04  0.00000000000E+00 0.  1.
         21   -1    0    0  502  503 -0.00000000000E+00 -0.00000000000E+00 -0.73349334217E+02  0.73349334217E+02  0.00000000000E+00 0.  1.
          6    1    1    2  501    0 -0.54199940546E+02 -0.30993394905E+01  0.86833819185E+03  0.88706677025E+03  0.17300000000E+03 0.  1.
         -6    1    1    2    0  503  0.54199940546E+02  0.30993394905E+01  0.64467781158E+02  0.19243787119E+03  0.17300000000E+03 0.  1.
<mgrwt>
<rscale>  2 0.18131806E+03</rscale>
<asrwt>0</asrwt>
<pdfrwt beam="1">  1       21 0.15479311E+00 0.18131806E+03</pdfrwt>
<pdfrwt beam="2">  1       21 0.11284514E-01 0.18131806E+03</pdfrwt>
<totfact> 0.18155344E+04</totfact>
</mgrwt>
</event>
<event>
 4    2  0.3944631E+000  0.2580910E+03  0.7546771E-02  0.1108296E+00
         21   -1    0    0  503  502  0.00000000000E+00  0.00000000000E+00  0.79976224716E+03  0.79976224716E+03  0.00000000000E+00 0. -1.
         21   -1    0    0  501  503 -0.00000000000E+00 -0.00000000000E+00 -0.91969168467E+02  0.91969168467E+02  0.00000000000E+00 0. -1.
          6    1    1    2  501    0  0.25829775438E+02 -0.18977560536E+03  0.49087768209E+03  0.55459161232E+03  0.17300000000E+03 0. -1.
         -6    1    1    2    0  502 -0.25829775438E+02  0.18977560536E+03  0.21691539660E+03  0.33713980330E+03  0.17300000000E+03 0. -1.
<mgrwt>
<rscale>  2 0.25809099E+03</rscale>
<asrwt>0</asrwt>
<pdfrwt beam="1">  1       21 0.12304034E+00 0.25809099E+03</pdfrwt>
<pdfrwt beam="2">  1       21 0.14149103E-01 0.25809099E+03</pdfrwt>
<totfact> 0.20855909E+04</totfact>
</mgrwt>
</event>
<event>
 4    2  0.3944631E+000  0.2662871E+03  0.7546771E-02  0.1103424E+00
         21   -1    0    0  501  502  0.00000000000E+00  0.00000000000E+00  0.16519544817E+03  0.16519544817E+03  0.00000000000E+00 0.  1.
         21   -1    0    0  502  503 -0.00000000000E+00 -0.00000000000E+00 -0.61604024920E+03  0.61604024920E+03  0.00000000000E+00 0. -1.
          6    1    1    2  501    0 -0.14632362757E+03  0.13988997502E+03 -0.10325550977E+02  0.26648719688E+03  0.17300000000E+03 0.  1.
         -6    1    1    2    0  503  0.14632362757E+03 -0.13988997502E+03 -0.44051925006E+03  0.51474850050E+03  0.17300000000E+03 0. -1.
<mgrwt>
<rscale>  2 0.26628708E+03</rscale>
<asrwt>0</asrwt>
<pdfrwt beam="1">  1       21 0.25414684E-01 0.26628708E+03</pdfrwt>
<pdfrwt beam="2">  1       21 0.94775425E-01 0.26628708E+03</pdfrwt>
<totfact> 0.13095840E+04</totfact>
</mgrwt>
</event>
<event>
 4    2  0.3944631E+000  0.1837028E+03  0.7546771E-02  0.1164267E+00
         21   -1    0    0  503  502  0.00000000000E+00  0.00000000000E+00  0.42673167377E+02  0.42673167377E+02  0.00000000000E+00 0. -1.
         21   -1    0    0  501  503 -0.00000000000E+00 -0.00000000000E+00 -0.14280658639E+04  0.14280658639E+04  0.00000000000E+00 0. -1.
          6    1    1    2  501    0  0.61752320741E+02 -0.20919894761E+01 -0.11839271205E+04  0.11980943837E+04  0.17300000000E+03 0. -1.
         -6    1    1    2    0  502 -0.61752320741E+02  0.20919894761E+01 -0.20146557597E+03  0.27264464755E+03  0.17300000000E+03 0. -1.
<mgrwt>
<rscale>  2 0.18370282E+03</rscale>
<asrwt>0</asrwt>
<pdfrwt beam="1">  1       21 0.65651021E-02 0.18370282E+03</pdfrwt>
<pdfrwt beam="2">  1       21 0.21970246E+00 0.18370282E+03</pdfrwt>
<totfact> 0.17195231E+04</totfact>
</mgrwt>
</event>
<event>
 4    2  0.3944631E+000  0.1878174E+03  0.7546771E-02  0.1160445E+00
         21   -1    0    0  501  502  0.00000000000E+00  0.00000000000E+00  0.69646471859E+02  0.69646471859E+02  0.00000000000E+00 0.  1.
         21   -1    0    0  502  503 -0.00000000000E+00 -0.00000000000E+00 -0.52843694395E+03  0.52843694395E+03  0.00000000000E+00 0.  1.
          6    1    1    2  501    0  0.59227435395E+02  0.42877724053E+02 -0.16845539026E+03  0.25229468253E+03  0.17300000000E+03 0.  1.
         -6    1    1    2    0  503 -0.59227435395E+02 -0.42877724053E+02 -0.29033508183E+03  0.34578873328E+03  0.17300000000E+03 0.  1.
<mgrwt>
<rscale>  2 0.18781743E+03</rscale>
<asrwt>0</asrwt>
<pdfrwt beam="1">  1       21 0.10714842E-01 0.18781743E+03</pdfrwt>
<pdfrwt beam="2">  1       21 0.81297988E-01 0.18781743E+03</pdfrwt>
<totfact> 0.95411162E+04</totfact>
</mgrwt>
</event>
<event>
 4    2  0.3944631E+000  0.1886582E+03  0.7546771E-02  0.1159677E+00
         21   -1    0    0  501  502  0.00000000000E+00  0.00000000000E+00  0.25013414984E+03  0.25013414984E+03  0.00000000000E+00 0.  1.
         21   -1    0    0  502  503 -0.00000000000E+00 -0.00000000000E+00 -0.31924505908E+03  0.31924505908E+03  0.00000000000E+00 0.  1.
          6    1    1    2  501    0  0.96875781414E+01  0.74626288332E+02  0.17739742503E+03  0.25896289018E+03  0.17300000000E+03 0.  1.
         -6    1    1    2    0  503 -0.96875781414E+01 -0.74626288332E+02 -0.24650833426E+03  0.31041631874E+03  0.17300000000E+03 0.  1.
<mgrwt>
<rscale>  2 0.18865824E+03</rscale>
<asrwt>0</asrwt>
<pdfrwt beam="1">  1       21 0.38482177E-01 0.18865824E+03</pdfrwt>
<pdfrwt beam="2">  1       21 0.49114624E-01 0.18865824E+03</pdfrwt>
<totfact> 0.25810441E+04</totfact>
</mgrwt>
</event>
<event>
 4    2  0.3944631E+000  0.1930925E+03  0.7546771E-02  0.1155701E+00
         21   -1    0    0  501  502  0.00000000000E+00  0.00000000000E+00  0.72683944415E+03  0.72683944415E+03  0.00000000000E+00 0. -1.
         21   -1    0    0  502  503 -0.00000000000E+00 -0.00000000000E+00 -0.19148887566E+03  0.19148887566E+03  0.00000000000E+00 0.  1.
          6    1    1    2  501    0  0.84182789455E+02  0.16400072588E+02  0.66055317061E+03  0.68819706162E+03  0.17300000000E+03 0. -1.
         -6    1    1    2    0  503 -0.84182789455E+02 -0.16400072588E+02 -0.12520260212E+03  0.23013125820E+03  0.17300000000E+03 0.  1.
<mgrwt>
<rscale>  2 0.19309248E+03</rscale>
<asrwt>0</asrwt>
<pdfrwt beam="1">  1       21 0.11182145E+00 0.19309248E+03</pdfrwt>
<pdfrwt beam="2">  1       21 0.29459827E-01 0.19309248E+03</pdfrwt>
<totfact> 0.69270438E+03</totfact>
</mgrwt>
</event>
<event>
 4    2  0.3944631E+000  0.2025305E+03  0.7546771E-02  0.1147621E+00
         21   -1    0    0  503  502  0.00000000000E+00  0.00000000000E+00  0.31504061907E+03  0.31504061907E+03  0.00000000000E+00 0. -1.
         21   -1    0    0  501  503 -0.00000000000E+00 -0.00000000000E+00 -0.47400983906E+03  0.47400983906E+03  0.00000000000E+00 0. -1.
          6    1    1    2  501    0 -0.44159456699E+01  0.10521462430E+03 -0.41548485426E+03  0.46221886792E+03  0.17300000000E+03 0. -1.
         -6    1    1    2    0  502  0.44159456699E+01 -0.10521462430E+03  0.25651563427E+03  0.32683159022E+03  0.17300000000E+03 0. -1.
<mgrwt>
<rscale>  2 0.20253054E+03</rscale>
<asrwt>0</asrwt>
<pdfrwt beam="1">  1       21 0.48467788E-01 0.20253054E+03</pdfrwt>
<pdfrwt beam="2">  1       21 0.72924590E-01 0.20253054E+03</pdfrwt>
<totfact> 0.68302619E+03</totfact>
</mgrwt>
</event>
<event>
 4    2  0.3944631E+000  0.1837450E+03  0.7546771E-02  0.1164227E+00
         21   -1    0    0  503  502  0.00000000000E+00  0.00000000000E+00  0.32653666226E+03  0.32653666226E+03  0.00000000000E+00 0.  1.
         21   -1    0    0  501  503 -0.00000000000E+00 -0.00000000000E+00 -0.12775045153E+03  0.12775045153E+03  0.00000000000E+00 0.  1.
          6    1    1    2  501    0  0.51579379439E+02  0.34245861821E+02  0.21436921582E+00  0.18374508807E+03  0.17300000000E+03 0.  1.
         -6    1    1    2    0  502 -0.51579379439E+02 -0.34245861821E+02  0.19857184151E+03  0.27054202571E+03  0.17300000000E+03 0.  1.
<mgrwt>
<rscale>  2 0.18374496E+03</rscale>
<asrwt>0</asrwt>
<pdfrwt beam="1">  1       21 0.50236409E-01 0.18374496E+03</pdfrwt>
<pdfrwt beam="2">  1       21 0.19653916E-01 0.18374496E+03</pdfrwt>
<totfact> 0.90292983E+04</totfact>
</mgrwt>
</event>
<event>
 4    2  0.3944631E+000  0.2534874E+03  0.7546771E-02  0.1111121E+00
         21   -1    0    0  501  502  0.00000000000E+00  0.00000000000E+00  0.15621501203E+03  0.15621501203E+03  0.00000000000E+00 0.  1.
         21   -1    0    0  502  503 -0.00000000000E+00 -0.00000000000E+00 -0.55439834640E+03  0.55439834640E+03  0.00000000000E+00 0.  1.
          6    1    1    2  501    0 -0.16969290385E+03 -0.74371801374E+02 -0.18596777395E+02  0.25416861841E+03  0.17300000000E+03 0.  1.
         -6    1    1    2    0  503  0.16969290385E+03  0.74371801374E+02 -0.37958655697E+03  0.45644474002E+03  0.17300000000E+03 0.  1.
<mgrwt>
<rscale>  2 0.25348737E+03</rscale>
<asrwt>0</asrwt>
<pdfrwt beam="1">  1       21 0.24033079E-01 0.25348737E+03</pdfrwt>
<pdfrwt beam="2">  1       21 0.85292054E-01 0.25348737E+03</pdfrwt>
<totfact> 0.18765693E+04</totfact>
</mgrwt>
</event>
<event>
 4    2  0.3944631E+000  0.2026949E+03  0.7546771E-02  0.1147485E+00
         21   -1    0    0  501  502  0.00000000000E+00  0.00000000000E+00  0.33291514111E+03  0.33291514111E+03  0.00000000000E+00 0.  1.
         21   -1    0    0  502  503 -0.00000000000E+00 -0.00000000000E+00 -0.13652706896E+03  0.13652706896E+03  0.00000000000E+00 0.  1.
          6    1    1    2  501    0 -0.94170120489E+02  0.47835228773E+02  0.17094739455E+03  0.26515699577E+03  0.17300000000E+03 0.  1.
         -6    1    1    2    0  503  0.94170120489E+02 -0.47835228773E+02  0.25440677597E+02  0.20428521430E+03  0.17300000000E+03 0.  1.
<mgrwt>
<rscale>  2 0.20269490E+03</rscale>
<asrwt>0</asrwt>
<pdfrwt beam="1">  1       21 0.51217714E-01 0.20269490E+03</pdfrwt>
<pdfrwt beam="2">  1       21 0.21004165E-01 0.20269490E+03</pdfrwt>
<totfact> 0.75978780E+04</totfact>
</mgrwt>
</event>
<event>
 4    2  0.3944631E+000  0.2583923E+03  0.7546771E-02  0.1108113E+00
         21   -1    0    0  501  502  0.00000000000E+00  0.00000000000E+00  0.53837449643E+03  0.53837449643E+03  0.00000000000E+00 0. -1.
         21   -1    0    0  502  503 -0.00000000000E+00 -0.00000000000E+00 -0.12966379734E+03  0.12966379734E+03  0.00000000000E+00 0.  1.
          6    1    1    2  501    0 -0.92380584127E+02  0.16823611817E+03  0.27407197830E+03  0.37667228869E+03  0.17300000000E+03 0. -1.
         -6    1    1    2    0  503  0.92380584127E+02 -0.16823611817E+03  0.13463872080E+03  0.29136600508E+03  0.17300000000E+03 0.  1.
<mgrwt>
<rscale>  2 0.25839227E+03</rscale>
<asrwt>0</asrwt>
<pdfrwt beam="1">  1       21 0.82826844E-01 0.25839227E+03</pdfrwt>
<pdfrwt beam="2">  1       21 0.19948277E-01 0.25839227E+03</pdfrwt>
<totfact> 0.28519146E+04</totfact>
</mgrwt>
</event>
<event>
 4    2  0.3944631E+000  0.1843563E+03  0.7546771E-02  0.1163652E+00
         21   -1    0    0  503  502  0.00000000000E+00  0.00000000000E+00  0.10234332173E+03  0.10234332173E+03  0.00000000000E+00 0.  1.
         21   -1    0    0  501  503 -0.00000000000E+00 -0.00000000000E+00 -0.49282198297E+03  0.49282198297E+03  0.00000000000E+00 0.  1.
          6    1    1    2  501    0  0.17383577709E+02  0.61286797122E+02 -0.36518607411E+03  0.40908205656E+03  0.17300000000E+03 0.  1.
         -6    1    1    2    0  502 -0.17383577709E+02 -0.61286797122E+02 -0.25292587128E+02  0.18608324814E+03  0.17300000000E+03 0.  1.
<mgrwt>
<rscale>  2 0.18435634E+03</rscale>
<asrwt>0</asrwt>
<pdfrwt beam="1">  1       21 0.15745127E-01 0.18435634E+03</pdfrwt>
<pdfrwt beam="2">  1       21 0.75818766E-01 0.18435634E+03</pdfrwt>
<totfact> 0.55936527E+04</totfact>
</mgrwt>
</event>
<event>
 4    2  0.3944631E+000  0.1795567E+03  0.7546771E-02  0.1168233E+00
         21   -1    0    0  503  502  0.00000000000E+00  0.00000000000E+00  0.92468872482E+03  0.92468872482E+03  0.00000000000E+00 0. -1.
         21   -1    0    0  501  503 -0.00000000000E+00 -0.00000000000E+00 -0.82541661581E+02  0.82541661581E+02  0.00000000000E+00 0. -1.
          6    1    1    2  501    0  0.41358309195E+02  0.24517000496E+02  0.38329317948E+02  0.18360209603E+03  0.17300000000E+03 0. -1.
         -6    1    1    2    0  502 -0.41358309195E+02 -0.24517000496E+02  0.80381774530E+03  0.82362829037E+03  0.17300000000E+03 0. -1.
<mgrwt>
<rscale>  2 0.17955666E+03</rscale>
<asrwt>0</asrwt>
<pdfrwt beam="1">  1       21 0.14225980E+00 0.17955666E+03</pdfrwt>
<pdfrwt beam="2">  1       21 0.12698718E-01 0.17955666E+03</pdfrwt>
<totfact> 0.18363808E+04</totfact>
</mgrwt>
</event>
<event>
 4    2  0.3944631E+000  0.1812645E+03  0.7546771E-02  0.1166585E+00
         21   -1    0    0  501  502  0.00000000000E+00  0.00000000000E+00  0.15224198057E+03  0.15224198057E+03  0.00000000000E+00 0. -1.
         21   -1    0    0  502  503 -0.00000000000E+00 -0.00000000000E+00 -0.41261108880E+03  0.41261108880E+03  0.00000000000E+00 0. -1.
          6    1    1    2  501    0 -0.29738794250E+02  0.45204295175E+02  0.64861897743E+02  0.19251984304E+03  0.17300000000E+03 0. -1.
         -6    1    1    2    0  503  0.29738794250E+02 -0.45204295175E+02 -0.32523100598E+03  0.37233322634E+03  0.17300000000E+03 0. -1.
<mgrwt>
<rscale>  2 0.18126451E+03</rscale>
<asrwt>0</asrwt>
<pdfrwt beam="1">  1       21 0.23421844E-01 0.18126451E+03</pdfrwt>
<pdfrwt beam="2">  1       21 0.63478628E-01 0.18126451E+03</pdfrwt>
<totfact> 0.39573266E+04</totfact>
</mgrwt>
</event>
<event>
 4    2  0.3944631E+000  0.2337958E+03  0.7546771E-02  0.1123996E+00
         21   -1    0    0  501  502  0.00000000000E+00  0.00000000000E+00  0.11863688674E+03  0.11863688674E+03  0.00000000000E+00 0. -1.
         21   -1    0    0  502  503 -0.00000000000E+00 -0.00000000000E+00 -0.46277819329E+03  0.46277819329E+03  0.00000000000E+00 0.  1.
          6    1    1    2  501    0 -0.15688934432E+03  0.10825475877E+02 -0.19137537252E+03  0.30213406047E+03  0.17300000000E+03 0.  1.
         -6    1    1    2    0  503  0.15688934432E+03 -0.10825475877E+02 -0.15276593402E+03  0.27928101956E+03  0.17300000000E+03 0. -1.
<mgrwt>
<rscale>  2 0.23379576E+03</rscale>
<asrwt>0</asrwt>
<pdfrwt beam="1">  1       21 0.18251829E-01 0.23379576E+03</pdfrwt>
<pdfrwt beam="2">  1       21 0.71196644E-01 0.23379576E+03</pdfrwt>
<totfact> 0.47899087E+04</totfact>
</mgrwt>
</event>
<event>
 4    2  0.3944631E+000  0.1744760E+03  0.7546771E-02  0.1173259E+00
         21   -1    0    0  501  502  0.00000000000E+00  0.00000000000E+00  0.19922654938E+04  0.19922654938E+04  0.00000000000E+00 0. -1.
         21   -1    0    0  502  503 -0.00000000000E+00 -0.00000000000E+00 -0.35694830296E+02  0.35694830296E+02  0.00000000000E+00 0.  1.
          6    1    1    2  501    0 -0.18059194226E+02 -0.13665289007E+02  0.17451158272E+04  0.17538161605E+04  0.17300000000E+03 0. -1.
         -6    1    1    2    0  503  0.18059194226E+02  0.13665289007E+02  0.21145483633E+03  0.27414416358E+03  0.17300000000E+03 0.  1.
<mgrwt>
<rscale>  2 0.17447600E+03</rscale>
<asrwt>0</asrwt>
<pdfrwt beam="1">  1       21 0.30650230E+00 0.17447600E+03</pdfrwt>
<pdfrwt beam="2">  1       21 0.54915139E-02 0.17447600E+03</pdfrwt>
<totfact> 0.73387728E+03</totfact>
</mgrwt>
</event>
<event>
 4    2  0.3944631E+000  0.2184359E+03  0.7546771E-02  0.1135055E+00
         21   -1    0    0  501  502  0.00000000000E+00  0.00000000000E+00  0.28401976594E+03  0.28401976594E+03  0.00000000000E+00 0. -1.
         21   -1    0    0  502  503 -0.00000000000E+00 -0.00000000000E+00 -0.20467607775E+03  0.20467607775E+03  0.00000000000E+00 0. -1.
          6    1    1    2  501    0  0.13089888339E+03  0.25509007950E+02  0.14311204217E+03  0.26114226730E+03  0.17300000000E+03 0. -1.
         -6    1    1    2    0  503 -0.13089888339E+03 -0.25509007950E+02 -0.63768353983E+02  0.22755357639E+03  0.17300000000E+03 0. -1.
<mgrwt>
<rscale>  2 0.21843587E+03</rscale>
<asrwt>0</asrwt>
<pdfrwt beam="1">  1       21 0.43695348E-01 0.21843587E+03</pdfrwt>
<pdfrwt beam="2">  1       21 0.31488628E-01 0.21843587E+03</pdfrwt>
<totfact> 0.48191377E+04</totfact>
</mgrwt>
</event>
<event>
 4    2  0.3944631E+000  0.2147507E+03  0.7546771E-02  0.1137858E+00
         21   -1    0    0  503  502  0.00000000000E+00  0.00000000000E+00  0.57433883463E+03  0.57433883463E+03  0.00000000000E+00 0.  1.
         21   -1    0    0  501  503 -0.00000000000E+00 -0.00000000000E+00 -0.24383146680E+03  0.24383146680E+03  0.00000000000E+00 0.  1.
          6    1    1    2  501    0  0.30437065891E+02 -0.12354124437E+03 -0.16976814071E+03  0.27375002400E+03  0.17300000000E+03 0.  1.
         -6    1    1    2    0  502 -0.30437065891E+02  0.12354124437E+03  0.50027550853E+03  0.54442027743E+03  0.17300000000E+03 0.  1.
<mgrwt>
<rscale>  2 0.21475068E+03</rscale>
<asrwt>0</asrwt>
<pdfrwt beam="1">  1       21 0.88359821E-01 0.21475068E+03</pdfrwt>
<pdfrwt beam="2">  1       21 0.37512533E-01 0.21475068E+03</pdfrwt>
<totfact> 0.73944436E+03</totfact>
</mgrwt>
</event>
<event>
 4    2  0.3944631E+000  0.1875879E+03  0.7546771E-02  0.1160655E+00
         21   -1    0    0  501  502  0.00000000000E+00  0.00000000000E+00  0.10264842698E+04  0.10264842698E+04  0.00000000000E+00 0.  1.
         21   -1    0    0  502  503 -0.00000000000E+00 -0.00000000000E+00 -0.58459892248E+02  0.58459892248E+02  0.00000000000E+00 0.  1.
          6    1    1    2  501    0 -0.64479113065E+02 -0.33206663655E+02  0.83288223910E+03  0.85374590057E+03  0.17300000000E+03 0.  1.
         -6    1    1    2    0  503  0.64479113065E+02  0.33206663655E+02  0.13514213849E+03  0.23119826152E+03  0.17300000000E+03 0.  1.
<mgrwt>
<rscale>  2 0.18758795E+03</rscale>
<asrwt>0</asrwt>
<pdfrwt beam="1">  1       21 0.15792064E+00 0.18758795E+03</pdfrwt>
<pdfrwt beam="2">  1       21 0.89938303E-02 0.18758795E+03</pdfrwt>
<totfact> 0.25582394E+04</totfact>
</mgrwt>
</event>
<event>
 4    2  0.3944631E+000  0.1764638E+03  0.7546771E-02  0.1171270E+00
         21   -1    0    0  503  502  0.00000000000E+00  0.00000000000E+00  0.15650093513E+04  0.15650093513E+04  0.00000000000E+00 0.  1.
         21   -1    0    0  501  503 -0.00000000000E+00 -0.00000000000E+00 -0.20222096280E+02  0.20222096280E+02  0.00000000000E+00 0.  1.
          6    1    1    2  501    0  0.31473398569E+02  0.14828532634E+02  0.67194239324E+03  0.69472731343E+03  0.17300000000E+03 0.  1.
         -6    1    1    2    0  502 -0.31473398569E+02 -0.14828532634E+02  0.87284486180E+03  0.89050413416E+03  0.17300000000E+03 0.  1.
<mgrwt>
<rscale>  2 0.17646376E+03</rscale>
<asrwt>0</asrwt>
<pdfrwt beam="1">  1       21 0.24077057E+00 0.17646376E+03</pdfrwt>
<pdfrwt beam="2">  1       21 0.31110930E-02 0.17646376E+03</pdfrwt>
<totfact> 0.45482197E+04</totfact>
</mgrwt>
</event>
<event>
 4    2  0.3944631E+000  0.1762085E+03  0.7546771E-02  0.1171524E+00
         21   -1    0    0  503  502  0.00000000000E+00  0.00000000000E+00  0.32766999684E+03  0.32766999684E+03  0.00000000000E+00 0.  1.
         21   -1    0    0  501  503 -0.00000000000E+00 -0.00000000000E+00 -0.10648809702E+03  0.10648809702E+03  0.00000000000E+00 0.  1.
          6    1    1    2  501    0  0.33411100556E+02  0.20309455417E+01  0.38544255258E+02  0.18037484856E+03  0.17300000000E+03 0.  1.
         -6    1    1    2    0  502 -0.33411100556E+02 -0.20309455417E+01  0.18263764456E+03  0.25378324529E+03  0.17300000000E+03 0.  1.
<mgrwt>
<rscale>  2 0.17620847E+03</rscale>
<asrwt>0</asrwt>
<pdfrwt beam="1">  1       21 0.50410768E-01 0.17620847E+03</pdfrwt>
<pdfrwt beam="2">  1       21 0.16382784E-01 0.17620847E+03</pdfrwt>
<totfact> 0.12580107E+05</totfact>
</mgrwt>
</event>
<event>
 4    2  0.3944631E+000  0.1897902E+03  0.7546771E-02  0.1158651E+00
         21   -1    0    0  503  502  0.00000000000E+00  0.00000000000E+00  0.12486261229E+04  0.12486261229E+04  0.00000000000E+00 0.  1.
         21   -1    0    0  501  503 -0.00000000000E+00 -0.00000000000E+00 -0.29248681316E+02  0.29248681316E+02  0.00000000000E+00 0.  1.
          6    1    1    2  501    0 -0.72421279809E+02  0.29094127443E+02  0.53490119280E+03  0.56757342792E+03  0.17300000000E+03 0. -1.
         -6    1    1    2    0  502  0.72421279809E+02 -0.29094127443E+02  0.68447624878E+03  0.71030137629E+03  0.17300000000E+03 0. -1.
<mgrwt>
<rscale>  2 0.18979017E+03</rscale>
<asrwt>0</asrwt>
<pdfrwt beam="1">  1       21 0.19209628E+00 0.18979017E+03</pdfrwt>
<pdfrwt beam="2">  1       21 0.44997981E-02 0.18979017E+03</pdfrwt>
<totfact> 0.48664237E+04</totfact>
</mgrwt>
</event>
<event>
 4    2  0.3944631E+000  0.2614424E+03  0.7546771E-02  0.1106280E+00
         21   -1    0    0  501  502  0.00000000000E+00  0.00000000000E+00  0.48249449657E+03  0.48249449657E+03  0.00000000000E+00 0.  1.
         21   -1    0    0  502  503 -0.00000000000E+00 -0.00000000000E+00 -0.15729739685E+03  0.15729739685E+03  0.00000000000E+00 0. -1.
          6    1    1    2  501    0 -0.14232674553E+03  0.13478217550E+03  0.61749088803E+02  0.26863560318E+03  0.17300000000E+03 0. -1.
         -6    1    1    2    0  503  0.14232674553E+03 -0.13478217550E+03  0.26344801092E+03  0.37115629024E+03  0.17300000000E+03 0.  1.
<mgrwt>
<rscale>  2 0.26144242E+03</rscale>
<asrwt>0</asrwt>
<pdfrwt beam="1">  1       21 0.74229922E-01 0.26144242E+03</pdfrwt>
<pdfrwt beam="2">  1       21 0.24199600E-01 0.26144242E+03</pdfrwt>
<totfact> 0.25311448E+04</totfact>
</mgrwt>
</event>
<event>
 4    2  0.3944631E+000  0.1749273E+03  0.7546771E-02  0.1172805E+00
         21   -1    0    0  501  502  0.00000000000E+00  0.00000000000E+00  0.11510492636E+03  0.11510492636E+03  0.00000000000E+00 0.  1.
         21   -1    0    0  502  503 -0.00000000000E+00 -0.00000000000E+00 -0.65195584705E+03  0.65195584705E+03  0.00000000000E+00 0.  1.
          6    1    1    2  501    0 -0.32647177198E+01 -0.25688565416E+02  0.26728878012E+02  0.17695760423E+03  0.17300000000E+03 0.  1.
         -6    1    1    2    0  503  0.32647177198E+01  0.25688565416E+02 -0.56357979870E+03  0.59010316918E+03  0.17300000000E+03 0.  1.
<mgrwt>
<rscale>  2 0.17492730E+03</rscale>
<asrwt>0</asrwt>
<pdfrwt beam="1">  1       21 0.17708451E-01 0.17492730E+03</pdfrwt>
<pdfrwt beam="2">  1       21 0.10030090E+00 0.17492730E+03</pdfrwt>
<totfact> 0.23839636E+04</totfact>
</mgrwt>
</event>
<event>
 4    2  0.3944631E+000  0.1944208E+03  0.7546771E-02  0.1154533E+00
         21   -1    0    0  503  502  0.00000000000E+00  0.00000000000E+00  0.51860718713E+03  0.51860718713E+03  0.00000000000E+00 0. -1.
         21   -1    0    0  501  503 -0.00000000000E+00 -0.00000000000E+00 -0.73256770645E+02  0.73256770645E+02  0.00000000000E+00 0. -1.
          6    1    1    2  501    0  0.14729293095E+02 -0.87484317269E+02  0.24371460081E+03  0.31176315448E+03  0.17300000000E+03 0.  1.
         -6    1    1    2    0  502 -0.14729293095E+02  0.87484317269E+02  0.20163581567E+03  0.28010080329E+03  0.17300000000E+03 0.  1.
<mgrwt>
<rscale>  2 0.19442083E+03</rscale>
<asrwt>0</asrwt>
<pdfrwt beam="1">  1       21 0.79785719E-01 0.19442083E+03</pdfrwt>
<pdfrwt beam="2">  1       21 0.11270273E-01 0.19442083E+03</pdfrwt>
<totfact> 0.90757239E+04</totfact>
</mgrwt>
</event>
<event>
 4    2  0.3944631E+000  0.1731508E+03  0.7546771E-02  0.1174601E+00
         21   -1    0    0  503  502  0.00000000000E+00  0.00000000000E+00  0.10486471374E+03  0.10486471374E+03  0.00000000000E+00 0. -1.
         21   -1    0    0  501  503 -0.00000000000E+00 -0.00000000000E+00 -0.32696965565E+03  0.32696965565E+03  0.00000000000E+00 0. -1.
          6    1    1    2  501    0  0.66869103106E+00 -0.71942306048E+01 -0.18757243038E+03  0.25527361936E+03  0.17300000000E+03 0.  1.
         -6    1    1    2    0  502 -0.66869103106E+00  0.71942306048E+01 -0.34532511536E+02  0.17656075004E+03  0.17300000000E+03 0.  1.
<mgrwt>
<rscale>  2 0.17315081E+03</rscale>
<asrwt>0</asrwt>
<pdfrwt beam="1">  1       21 0.16133033E-01 0.17315081E+03</pdfrwt>
<pdfrwt beam="2">  1       21 0.50303023E-01 0.17315081E+03</pdfrwt>
<totfact> 0.13010700E+05</totfact>
</mgrwt>
</event>
<event>
 4    2  0.3944631E+000  0.2256146E+03  0.7546771E-02  0.1129765E+00
         21   -1    0    0  503  502  0.00000000000E+00  0.00000000000E+00  0.33791489290E+03  0.33791489290E+03  0.00000000000E+00 0.  1.
         21   -1    0    0  501  503 -0.00000000000E+00 -0.00000000000E+00 -0.17257755000E+03  0.17257755000E+03  0.00000000000E+00 0. -1.
          6    1    1    2  501    0  0.14476730223E+03 -0.39234677526E+01 -0.83449019839E+01  0.22576891457E+03  0.17300000000E+03 0. -1.
         -6    1    1    2    0  502 -0.14476730223E+03  0.39234677526E+01  0.17368224489E+03  0.28472352833E+03  0.17300000000E+03 0.  1.
<mgrwt>
<rscale>  2 0.22561464E+03</rscale>
<asrwt>0</asrwt>
<pdfrwt beam="1">  1       21 0.51986906E-01 0.22561464E+03</pdfrwt>
<pdfrwt beam="2">  1       21 0.26550392E-01 0.22561464E+03</pdfrwt>
<totfact> 0.46668657E+04</totfact>
</mgrwt>
</event>
<event>
 4    2  0.3944631E+000  0.2153116E+03  0.7546771E-02  0.1137427E+00
         21   -1    0    0  501  502  0.00000000000E+00  0.00000000000E+00  0.45883895752E+03  0.45883895752E+03  0.00000000000E+00 0. -1.
         21   -1    0    0  502  503 -0.00000000000E+00 -0.00000000000E+00 -0.14062000851E+03  0.14062000851E+03  0.00000000000E+00 0.  1.
          6    1    1    2  501    0 -0.10119127641E+03 -0.78679170796E+02  0.31813534509E+03  0.38414734691E+03  0.17300000000E+03 0. -1.
         -6    1    1    2    0  503  0.10119127641E+03  0.78679170796E+02  0.83603910405E-01  0.21531161912E+03  0.17300000000E+03 0.  1.
<mgrwt>
<rscale>  2 0.21531160E+03</rscale>
<asrwt>0</asrwt>
<pdfrwt beam="1">  1       21 0.70590608E-01 0.21531160E+03</pdfrwt>
<pdfrwt beam="2">  1       21 0.21633848E-01 0.21531160E+03</pdfrwt>
<totfact> 0.35809649E+04</totfact>
</mgrwt>
</event>
<event>
 4    2  0.3944631E+000  0.2512134E+03  0.7546771E-02  0.1112540E+00
         21   -1    0    0  503  502  0.00000000000E+00  0.00000000000E+00  0.66335520684E+02  0.66335520684E+02  0.00000000000E+00 0.  1.
         21   -1    0    0  501  503 -0.00000000000E+00 -0.00000000000E+00 -0.97971755763E+03  0.97971755763E+03  0.00000000000E+00 0. -1.
          6    1    1    2  501    0  0.17632469787E+03 -0.45702849909E+02 -0.36768869690E+03  0.44531239305E+03  0.17300000000E+03 0.  1.
         -6    1    1    2    0  502 -0.17632469787E+03  0.45702849909E+02 -0.54569334004E+03  0.60074068527E+03  0.17300000000E+03 0. -1.
<mgrwt>
<rscale>  2 0.25121335E+03</rscale>
<asrwt>0</asrwt>
<pdfrwt beam="1">  1       21 0.10205466E-01 0.25121335E+03</pdfrwt>
<pdfrwt beam="2">  1       21 0.15072576E+00 0.25121335E+03</pdfrwt>
<totfact> 0.22305509E+04</totfact>
</mgrwt>
</event>
<event>
 4    2  0.3944631E+000  0.1928192E+03  0.7546771E-02  0.1155943E+00
         21   -1    0    0  501  502  0.00000000000E+00  0.00000000000E+00  0.23637993158E+02  0.23637993158E+02  0.00000000000E+00 0. -1.
         21   -1    0    0  502  503 -0.00000000000E+00 -0.00000000000E+00 -0.20522535741E+04  0.20522535741E+04  0.00000000000E+00 0. -1.
          6    1    1    2  501    0 -0.56843860337E+02  0.63395668212E+02 -0.15159633405E+04  0.15281767192E+04  0.17300000000E+03 0. -1.
         -6    1    1    2    0  503  0.56843860337E+02 -0.63395668212E+02 -0.51265224037E+03  0.54771484804E+03  0.17300000000E+03 0. -1.
<mgrwt>
<rscale>  2 0.19281918E+03</rscale>
<asrwt>0</asrwt>
<pdfrwt beam="1">  1       21 0.36366133E-02 0.19281918E+03</pdfrwt>
<pdfrwt beam="2">  1       21 0.31573141E+00 0.19281918E+03</pdfrwt>
<totfact> 0.12727427E+04</totfact>
</mgrwt>
</event>
<event>
 4    2  0.3944631E+000  0.3334252E+03  0.7546771E-02  0.1069631E+00
         21   -1    0    0  501  502  0.00000000000E+00  0.00000000000E+00  0.55325303552E+03  0.55325303552E+03  0.00000000000E+00 0.  1.
         21   -1    0    0  502  503 -0.00000000000E+00 -0.00000000000E+00 -0.33139682853E+03  0.33139682853E+03  0.00000000000E+00 0. -1.
          6    1    1    2  501    0 -0.75189338712E+02 -0.27493616669E+03  0.38844896624E+03  0.51192277912E+03  0.17300000000E+03 0.  1.
         -6    1    1    2    0  503  0.75189338712E+02  0.27493616669E+03 -0.16659275925E+03  0.37272708493E+03  0.17300000000E+03 0. -1.
<mgrwt>
<rscale>  2 0.33342515E+03</rscale>
<asrwt>0</asrwt>
<pdfrwt beam="1">  1       21 0.85115852E-01 0.33342515E+03</pdfrwt>
<pdfrwt beam="2">  1       21 0.50984128E-01 0.33342515E+03</pdfrwt>
<totfact> 0.40050973E+03</totfact>
</mgrwt>
</event>
<event>
 4    2  0.3944631E+000  0.1731584E+03  0.7546771E-02  0.1174594E+00
         21   -1    0    0  501  502  0.00000000000E+00  0.00000000000E+00  0.15333294711E+04  0.15333294711E+04  0.00000000000E+00 0. -1.
         21   -1    0    0  502  503 -0.00000000000E+00 -0.00000000000E+00 -0.19555414105E+02  0.19555414105E+02  0.00000000000E+00 0. -1.
          6    1    1    2  501    0  0.51108681087E+01 -0.53575046667E+01  0.75225112608E+03  0.77192329963E+03  0.17300000000E+03 0.  1.
         -6    1    1    2    0  503 -0.51108681087E+01  0.53575046667E+01  0.76152293092E+03  0.78096158557E+03  0.17300000000E+03 0.  1.
<mgrwt>
<rscale>  2 0.17315838E+03</rscale>
<asrwt>0</asrwt>
<pdfrwt beam="1">  1       21 0.23589675E+00 0.17315838E+03</pdfrwt>
<pdfrwt beam="2">  1       21 0.30085265E-02 0.17315838E+03</pdfrwt>
<totfact> 0.51514417E+04</totfact>
</mgrwt>
</event>
<event>
 4    2  0.3944631E+000  0.2094054E+03  0.7546771E-02  0.1142038E+00
         21   -1    0    0  501  502  0.00000000000E+00  0.00000000000E+00  0.87885173495E+03  0.87885173495E+03  0.00000000000E+00 0. -1.
         21   -1    0    0  502  503 -0.00000000000E+00 -0.00000000000E+00 -0.50267271926E+02  0.50267271926E+02  0.00000000000E+00 0. -1.
          6    1    1    2  501    0  0.11721595028E+03  0.13492747333E+02  0.45425102929E+03  0.50019459298E+03  0.17300000000E+03 0. -1.
         -6    1    1    2    0  503 -0.11721595028E+03 -0.13492747333E+02  0.37433343373E+03  0.42892441390E+03  0.17300000000E+03 0. -1.
<mgrwt>
<rscale>  2 0.20940543E+03</rscale>
<asrwt>0</asrwt>
<pdfrwt beam="1">  1       21 0.13520795E+00 0.20940543E+03</pdfrwt>
<pdfrwt beam="2">  1       21 0.77334271E-02 0.20940543E+03</pdfrwt>
<totfact> 0.49354870E+04</totfact>
</mgrwt>
</event>
<event>
 4    2  0.3944631E+000  0.2236742E+03  0.7546771E-02  0.1131173E+00
         21   -1    0    0  501  502  0.00000000000E+00  0.00000000000E+00  0.20369230737E+03  0.20369230737E+03  0.00000000000E+00 0. -1.
         21   -1    0    0  502  503 -0.00000000000E+00 -0.00000000000E+00 -0.27177540774E+03  0.27177540774E+03  0.00000000000E+00 0. -1.
          6    1    1    2  501    0 -0.81151264316E+02  0.11625676199E+03 -0.10779748176E+03  0.24829510563E+03  0.17300000000E+03 0. -1.
         -6    1    1    2    0  503  0.81151264316E+02 -0.11625676199E+03  0.39714381394E+02  0.22717260948E+03  0.17300000000E+03 0. -1.
<mgrwt>
<rscale>  2 0.22367423E+03</rscale>
<asrwt>0</asrwt>
<pdfrwt beam="1">  1       21 0.31337278E-01 0.22367423E+03</pdfrwt>
<pdfrwt beam="2">  1       21 0.41811601E-01 0.22367423E+03</pdfrwt>
<totfact> 0.53116228E+04</totfact>
</mgrwt>
</event>
<event>
 4    2  0.3944631E+000  0.1864812E+03  0.7546771E-02  0.1161674E+00
         21   -1    0    0  503  502  0.00000000000E+00  0.00000000000E+00  0.30162052928E+02  0.30162052928E+02  0.00000000000E+00 0.  1.
         21   -1    0    0  501  503 -0.00000000000E+00 -0.00000000000E+00 -0.14686802086E+04  0.14686802086E+04  0.00000000000E+00 0.  1.
          6    1    1    2  501    0  0.67768520059E+02 -0.15927294890E+02 -0.10667331353E+04  0.10829103531E+04  0.17300000000E+03 0.  1.
         -6    1    1    2    0  502 -0.67768520059E+02  0.15927294890E+02 -0.37178502045E+03  0.41593190845E+03  0.17300000000E+03 0.  1.
<mgrwt>
<rscale>  2 0.18648124E+03</rscale>
<asrwt>0</asrwt>
<pdfrwt beam="1">  1       21 0.46403170E-02 0.18648124E+03</pdfrwt>
<pdfrwt beam="2">  1       21 0.22595075E+00 0.18648124E+03</pdfrwt>
<totfact> 0.28377550E+04</totfact>
</mgrwt>
</event>
<event>
 4    2  0.3944631E+000  0.1941060E+03  0.7546771E-02  0.1154809E+00
         21   -1    0    0  503  502  0.00000000000E+00  0.00000000000E+00  0.85464124454E+03  0.85464124454E+03  0.00000000000E+00 0. -1.
         21   -1    0    0  501  503 -0.00000000000E+00 -0.00000000000E+00 -0.51711158856E+02  0.51711158856E+02  0.00000000000E+00 0. -1.
          6    1    1    2  501    0 -0.54458127247E+02 -0.69155310691E+02  0.22743734453E+03  0.29900650546E+03  0.17300000000E+03 0. -1.
         -6    1    1    2    0  502  0.54458127247E+02  0.69155310691E+02  0.57549274115E+03  0.60734589793E+03  0.17300000000E+03 0. -1.
<mgrwt>
<rscale>  2 0.19410601E+03</rscale>
<asrwt>0</asrwt>
<pdfrwt beam="1">  1       21 0.13148326E+00 0.19410601E+03</pdfrwt>
<pdfrwt beam="2">  1       21 0.79555635E-02 0.19410601E+03</pdfrwt>
<totfact> 0.50858827E+04</totfact>
</mgrwt>
</event>
<event>
 4    2  0.3944631E+000  0.2224185E+03  0.7546771E-02  0.1132093E+00
         21   -1    0    0  501  502  0.00000000000E+00  0.00000000000E+00  0.14769048621E+03  0.14769048621E+03  0.00000000000E+00 0. -1.
         21   -1    0    0  502  503 -0.00000000000E+00 -0.00000000000E+00 -0.84453857522E+03  0.84453857522E+03  0.00000000000E+00 0. -1.
          6    1    1    2  501    0  0.24817477355E+01 -0.13976700654E+03  0.36946949015E+02  0.22546629954E+03  0.17300000000E+03 0. -1.
         -6    1    1    2    0  503 -0.24817477355E+01  0.13976700654E+03 -0.73379503803E+03  0.76676276189E+03  0.17300000000E+03 0. -1.
<mgrwt>
<rscale>  2 0.22241847E+03</rscale>
<asrwt>0</asrwt>
<pdfrwt beam="1">  1       21 0.22721613E-01 0.22241847E+03</pdfrwt>
<pdfrwt beam="2">  1       21 0.12992901E+00 0.22241847E+03</pdfrwt>
<totfact> 0.76915219E+03</totfact>
</mgrwt>
</event>
<event>
 4    2  0.3944631E+000  0.1794394E+03  0.7546771E-02  0.1168347E+00
         21   -1    0    0  501  502  0.00000000000E+00  0.00000000000E+00  0.12934380212E+03  0.12934380212E+03  0.00000000000E+00 0.  1.
         21   -1    0    0  502  503 -0.00000000000E+00 -0.00000000000E+00 -0.40252873880E+03  0.40252873880E+03  0.00000000000E+00 0.  1.
          6    1    1    2  501    0  0.36513849526E+02  0.30598015049E+02  0.27679174597E+02  0.18156166016E+03  0.17300000000E+03 0.  1.
         -6    1    1    2    0  503 -0.36513849526E+02 -0.30598015049E+02 -0.30086411127E+03  0.35031088077E+03  0.17300000000E+03 0.  1.
<mgrwt>
<rscale>  2 0.17943940E+03</rscale>
<asrwt>0</asrwt>
<pdfrwt beam="1">  1       21 0.19899047E-01 0.17943940E+03</pdfrwt>
<pdfrwt beam="2">  1       21 0.61927498E-01 0.17943940E+03</pdfrwt>
<totfact> 0.56750116E+04</totfact>
</mgrwt>
</event>
<event>
 4    2  0.3944631E+000  0.1999340E+03  0.7546771E-02  0.1149795E+00
         21   -1    0    0  501  502  0.00000000000E+00  0.00000000000E+00  0.14997838658E+04  0.14997838658E+04  0.00000000000E+00 0. -1.
         21   -1    0    0  502  503 -0.00000000000E+00 -0.00000000000E+00 -0.32603975416E+02  0.32603975416E+02  0.00000000000E+00 0. -1.
          6    1    1    2  501    0 -0.27580586212E+02 -0.96352999670E+02  0.40624838123E+03  0.45278177584E+03  0.17300000000E+03 0. -1.
         -6    1    1    2    0  503  0.27580586212E+02  0.96352999670E+02  0.10609315092E+04  0.10796060654E+04  0.17300000000E+03 0. -1.
<mgrwt>
<rscale>  2 0.19993396E+03</rscale>
<asrwt>0</asrwt>
<pdfrwt beam="1">  1       21 0.23073593E+00 0.19993396E+03</pdfrwt>
<pdfrwt beam="2">  1       21 0.50159974E-02 0.19993396E+03</pdfrwt>
<totfact> 0.23023386E+04</totfact>
</mgrwt>
</event>
<event>
 4    2  0.3944631E+000  0.1912290E+03  0.7546771E-02  0.1157357E+00
         21   -1    0    0  501  502  0.00000000000E+00  0.00000000000E+00  0.36415973068E+03  0.36415973068E+03  0.00000000000E+00 0.  1.
         21   -1    0    0  502  503 -0.00000000000E+00 -0.00000000000E+00 -0.24507089248E+03  0.24507089248E+03  0.00000000000E+00 0.  1.
          6    1    1    2  501    0 -0.38097363991E+02  0.72028703449E+02  0.29357250239E+03  0.35036175223E+03  0.17300000000E+03 0.  1.
         -6    1    1    2    0  503  0.38097363991E+02 -0.72028703449E+02 -0.17448366419E+03  0.25886887093E+03  0.17300000000E+03 0.  1.
<mgrwt>
<rscale>  2 0.19122903E+03</rscale>
<asrwt>0</asrwt>
<pdfrwt beam="1">  1       21 0.56024574E-01 0.19122903E+03</pdfrwt>
<pdfrwt beam="2">  1       21 0.37703214E-01 0.19122903E+03</pdfrwt>
<totfact> 0.20368097E+04</totfact>
</mgrwt>
</event>
<event>
 4    2  0.3944631E+000  0.1781863E+03  0.7546771E-02  0.1169570E+00
         21   -1    0    0  503  502  0.00000000000E+00  0.00000000000E+00  0.19470152540E+04  0.19470152540E+04  0.00000000000E+00 0.  1.
         21   -1    0    0  501  503 -0.00000000000E+00 -0.00000000000E+00 -0.16517792808E+02  0.16517792808E+02  0.00000000000E+00 0.  1.
          6    1    1    2  501    0  0.42368391417E+02 -0.51266074002E+01  0.85439346167E+03  0.87277634594E+03  0.17300000000E+03 0.  1.
         -6    1    1    2    0  502 -0.42368391417E+02  0.51266074002E+01  0.10761039996E+04  0.10907567009E+04  0.17300000000E+03 0.  1.
<mgrwt>
<rscale>  2 0.17818631E+03</rscale>
<asrwt>0</asrwt>
<pdfrwt beam="1">  1       21 0.29954063E+00 0.17818631E+03</pdfrwt>
<pdfrwt beam="2">  1       21 0.25412004E-02 0.17818631E+03</pdfrwt>
<totfact> 0.28983854E+04</totfact>
</mgrwt>
</event>
<event>
 4    2  0.3944631E+000  0.2231681E+03  0.7546771E-02  0.1131543E+00
         21   -1    0    0  501  502  0.00000000000E+00  0.00000000000E+00  0.83572537992E+03  0.83572537992E+03  0.00000000000E+00 0.  1.
         21   -1    0    0  502  503 -0.00000000000E+00 -0.00000000000E+00 -0.82377379616E+02  0.82377379616E+02  0.00000000000E+00 0. -1.
          6    1    1    2  501    0  0.95783789055E+02  0.10344313195E+03  0.61809146947E+03  0.65714616367E+03  0.17300000000E+03 0.  1.
         -6    1    1    2    0  503 -0.95783789055E+02 -0.10344313195E+03  0.13525653083E+03  0.26095659586E+03  0.17300000000E+03 0. -1.
<mgrwt>
<rscale>  2 0.22316813E+03</rscale>
<asrwt>0</asrwt>
<pdfrwt beam="1">  1       21 0.12857313E+00 0.22316813E+03</pdfrwt>
<pdfrwt beam="2">  1       21 0.12673444E-01 0.22316813E+03</pdfrwt>
<totfact> 0.23215279E+04</totfact>
</mgrwt>
</event>
<event>
 4    2  0.3944631E+000  0.2056830E+03  0.7546771E-02  0.1145031E+00
         21   -1    0    0  503  502  0.00000000000E+00  0.00000000000E+00  0.17091467910E+04  0.17091467910E+04  0.00000000000E+00 0.  1.
         21   -1    0    0  501  503 -0.00000000000E+00 -0.00000000000E+00 -0.10335575971E+03  0.10335575971E+03  0.00000000000E+00 0. -1.
          6    1    1    2  501    0  0.20320757436E+02 -0.10937814152E+03  0.12577646297E+02  0.20606724197E+03  0.17300000000E+03 0. -1.
         -6    1    1    2    0  502 -0.20320757436E+02  0.10937814152E+03  0.15932133850E+04  0.16064353087E+04  0.17300000000E+03 0.  1.
<mgrwt>
<rscale>  2 0.20568304E+03</rscale>
<asrwt>0</asrwt>
<pdfrwt beam="1">  1       21 0.26294564E+00 0.20568304E+03</pdfrwt>
<pdfrwt beam="2">  1       21 0.15900887E-01 0.20568304E+03</pdfrwt>
<totfact> 0.19405965E+03</totfact>
</mgrwt>
</event>
<event>
 4    2  0.3944631E+000  0.1991630E+03  0.7546771E-02  0.1150447E+00
         21   -1    0    0  501  502  0.00000000000E+00  0.00000000000E+00  0.11735545899E+03  0.11735545899E+03  0.00000000000E+00 0.  1.
         21   -1    0    0  502  503 -0.00000000000E+00 -0.00000000000E+00 -0.49767472347E+03  0.49767472347E+03  0.00000000000E+00 0.  1.
          6    1    1    2  501    0 -0.64669756874E+02 -0.74530021872E+02 -0.15973109306E+02  0.19980250708E+03  0.17300000000E+03 0.  1.
         -6    1    1    2    0  503  0.64669756874E+02  0.74530021872E+02 -0.36434615517E+03  0.41522767538E+03  0.17300000000E+03 0.  1.
<mgrwt>
<rscale>  2 0.19916300E+03</rscale>
<asrwt>0</asrwt>
<pdfrwt beam="1">  1       21 0.18054686E-01 0.19916300E+03</pdfrwt>
<pdfrwt beam="2">  1       21 0.76565342E-01 0.19916300E+03</pdfrwt>
<totfact> 0.42241306E+04</totfact>
</mgrwt>
</event>
<event>
 4    2  0.3944631E+000  0.1760860E+03  0.7546771E-02  0.1171646E+00
         21   -1    0    0  501  502  0.00000000000E+00  0.00000000000E+00  0.39188501132E+03  0.39188501132E+03  0.00000000000E+00 0.  1.
         21   -1    0    0  502  503 -0.00000000000E+00 -0.00000000000E+00 -0.32668545337E+03  0.32668545337E+03  0.00000000000E+00 0.  1.
          6    1    1    2  501    0  0.18530590656E+01  0.32769744699E+02  0.34536518432E+03  0.38766403049E+03  0.17300000000E+03 0.  1.
         -6    1    1    2    0  503 -0.18530590656E+01 -0.32769744699E+02 -0.28016562638E+03  0.33090643420E+03  0.17300000000E+03 0.  1.
<mgrwt>
<rscale>  2 0.17608603E+03</rscale>
<asrwt>0</asrwt>
<pdfrwt beam="1">  1       21 0.60290002E-01 0.17608603E+03</pdfrwt>
<pdfrwt beam="2">  1       21 0.50259301E-01 0.17608603E+03</pdfrwt>
<totfact> 0.97802134E+03</totfact>
</mgrwt>
</event>
<event>
 4    2  0.3944631E+000  0.2697982E+03  0.7546771E-02  0.1101395E+00
         21   -1    0    0  503  502  0.00000000000E+00  0.00000000000E+00  0.51828953472E+03  0.51828953472E+03  0.00000000000E+00 0.  1.
         21   -1    0    0  501  503 -0.00000000000E+00 -0.00000000000E+00 -0.16492747337E+03  0.16492747337E+03  0.00000000000E+00 0.  1.
          6    1    1    2  501    0 -0.88802935253E+02  0.18701899153E+03  0.45064122426E+02  0.27353581051E+03  0.17300000000E+03 0.  1.
         -6    1    1    2    0  502  0.88802935253E+02 -0.18701899153E+03  0.30829793893E+03  0.40968119758E+03  0.17300000000E+03 0.  1.
<mgrwt>
<rscale>  2 0.26979819E+03</rscale>
<asrwt>0</asrwt>
<pdfrwt beam="1">  1       21 0.79736851E-01 0.26979819E+03</pdfrwt>
<pdfrwt beam="2">  1       21 0.25373458E-01 0.26979819E+03</pdfrwt>
<totfact> 0.19580710E+04</totfact>
</mgrwt>
</event>
<event>
 4    2  0.3944631E+000  0.1750866E+03  0.7546771E-02  0.1172645E+00
         21   -1    0    0  503  502  0.00000000000E+00  0.00000000000E+00  0.12260919183E+03  0.12260919183E+03  0.00000000000E+00 0.  1.
         21   -1    0    0  501  503 -0.00000000000E+00 -0.00000000000E+00 -0.73665544615E+03  0.73665544615E+03  0.00000000000E+00 0.  1.
          6    1    1    2  501    0  0.21216622323E+02  0.16618834761E+02 -0.65621529835E+03  0.67917144265E+03  0.17300000000E+03 0.  1.
         -6    1    1    2    0  502 -0.21216622323E+02 -0.16618834761E+02  0.42169044025E+02  0.18009319533E+03  0.17300000000E+03 0.  1.
<mgrwt>
<rscale>  2 0.17508664E+03</rscale>
<asrwt>0</asrwt>
<pdfrwt beam="1">  1       21 0.18862953E-01 0.17508664E+03</pdfrwt>
<pdfrwt beam="2">  1       21 0.11333161E+00 0.17508664E+03</pdfrwt>
<totfact> 0.15823429E+04</totfact>
</mgrwt>
</event>
<event>
 4    2  0.3944631E+000  0.2056959E+03  0.7546771E-02  0.1145020E+00
         21   -1    0    0  503  502  0.00000000000E+00  0.00000000000E+00  0.42163627120E+03  0.42163627120E+03  0.00000000000E+00 0. -1.
         21   -1    0    0  501  503 -0.00000000000E+00 -0.00000000000E+00 -0.10404724313E+03  0.10404724313E+03  0.00000000000E+00 0.  1.
          6    1    1    2  501    0  0.36607844437E+02 -0.10507931993E+03  0.10924104343E+03  0.23290427931E+03  0.17300000000E+03 0.  1.
         -6    1    1    2    0  502 -0.36607844437E+02  0.10507931993E+03  0.20834798465E+03  0.29277923502E+03  0.17300000000E+03 0.  1.
<mgrwt>
<rscale>  2 0.20569589E+03</rscale>
<asrwt>0</asrwt>
<pdfrwt beam="1">  1       21 0.64867118E-01 0.20569589E+03</pdfrwt>
<pdfrwt beam="2">  1       21 0.16007268E-01 0.20569589E+03</pdfrwt>
<totfact> 0.75831858E+04</totfact>
</mgrwt>
</event>
<event>
 4    2  0.3944631E+000  0.2106207E+03  0.7546771E-02  0.1141075E+00
         21   -1    0    0  501  502  0.00000000000E+00  0.00000000000E+00  0.46855458359E+03  0.46855458359E+03  0.00000000000E+00 0.  1.
         21   -1    0    0  502  503 -0.00000000000E+00 -0.00000000000E+00 -0.11538607602E+03  0.11538607602E+03  0.00000000000E+00 0.  1.
          6    1    1    2  501    0 -0.11074850610E+03 -0.46549626637E+02  0.30027802101E+03  0.36678057370E+03  0.17300000000E+03 0.  1.
         -6    1    1    2    0  503  0.11074850610E+03  0.46549626637E+02  0.52890486550E+02  0.21716008591E+03  0.17300000000E+03 0.  1.
<mgrwt>
<rscale>  2 0.21062075E+03</rscale>
<asrwt>0</asrwt>
<pdfrwt beam="1">  1       21 0.72085320E-01 0.21062075E+03</pdfrwt>
<pdfrwt beam="2">  1       21 0.17751704E-01 0.21062075E+03</pdfrwt>
<totfact> 0.49580776E+04</totfact>
</mgrwt>
</event>
<event>
 4    2  0.3944631E+000  0.2391905E+03  0.7546771E-02  0.1120333E+00
         21   -1    0    0  501  502  0.00000000000E+00  0.00000000000E+00  0.18620898682E+04  0.18620898682E+04  0.00000000000E+00 0.  1.
         21   -1    0    0  502  503 -0.00000000000E+00 -0.00000000000E+00 -0.39862353747E+02  0.39862353747E+02  0.00000000000E+00 0. -1.
          6    1    1    2  501    0 -0.15965593505E+03 -0.42344573859E+02  0.13664229365E+04  0.13871999575E+04  0.17300000000E+03 0.  1.
         -6    1    1    2    0  503  0.15965593505E+03  0.42344573859E+02  0.45580457795E+03  0.51475226451E+03  0.17300000000E+03 0. -1.
<mgrwt>
<rscale>  2 0.23919047E+03</rscale>
<asrwt>0</asrwt>
<pdfrwt beam="1">  1       21 0.28647530E+00 0.23919047E+03</pdfrwt>
<pdfrwt beam="2">  1       21 0.61326712E-02 0.23919047E+03</pdfrwt>
<totfact> 0.74097369E+03</totfact>
</mgrwt>
</event>
<event>
 4    2  0.3944631E+000  0.2133813E+03  0.7546771E-02  0.1138916E+00
         21   -1    0    0  501  502  0.00000000000E+00  0.00000000000E+00  0.90663868821E+02  0.90663868821E+02  0.00000000000E+00 0. -1.
         21   -1    0    0  502  503 -0.00000000000E+00 -0.00000000000E+00 -0.51158522856E+03  0.51158522856E+03  0.00000000000E+00 0. -1.
          6    1    1    2  501    0 -0.84571788854E+02 -0.91924904690E+02 -0.25124220698E+03  0.32962739895E+03  0.17300000000E+03 0. -1.
         -6    1    1    2    0  503  0.84571788854E+02  0.91924904690E+02 -0.16967915276E+03  0.27262169843E+03  0.17300000000E+03 0. -1.
<mgrwt>
<rscale>  2 0.21338129E+03</rscale>
<asrwt>0</asrwt>
<pdfrwt beam="1">  1       21 0.13948287E-01 0.21338129E+03</pdfrwt>
<pdfrwt beam="2">  1       21 0.78705420E-01 0.21338129E+03</pdfrwt>
<totfact> 0.63262549E+04</totfact>
</mgrwt>
</event>
<event>
 4    2  0.3944631E+000  0.1799421E+03  0.7546771E-02  0.1167859E+00
         21   -1    0    0  503  502  0.00000000000E+00  0.00000000000E+00  0.44856399246E+03  0.44856399246E+03  0.00000000000E+00 0. -1.
         21   -1    0    0  501  503 -0.00000000000E+00 -0.00000000000E+00 -0.26223694361E+03  0.26223694361E+03  0.00000000000E+00 0. -1.
          6    1    1    2  501    0 -0.47593024038E+01  0.49269772791E+02 -0.20939424654E+03  0.27608895659E+03  0.17300000000E+03 0. -1.
         -6    1    1    2    0  502  0.47593024038E+01 -0.49269772791E+02  0.39572129539E+03  0.43471197947E+03  0.17300000000E+03 0. -1.
<mgrwt>
<rscale>  2 0.17994211E+03</rscale>
<asrwt>0</asrwt>
<pdfrwt beam="1">  1       21 0.69009844E-01 0.17994211E+03</pdfrwt>
<pdfrwt beam="2">  1       21 0.40344145E-01 0.17994211E+03</pdfrwt>
<totfact> 0.11416817E+04</totfact>
</mgrwt>
</event>
<event>
 4    2  0.3944631E+000  0.1831072E+03  0.7546771E-02  0.1164829E+00
         21   -1    0    0  503  502  0.00000000000E+00  0.00000000000E+00  0.11814523457E+03  0.11814523457E+03  0.00000000000E+00 0.  1.
         21   -1    0    0  501  503 -0.00000000000E+00 -0.00000000000E+00 -0.58268366283E+03  0.58268366283E+03  0.00000000000E+00 0.  1.
          6    1    1    2  501    0  0.46379841859E+02 -0.38054789850E+02 -0.48324108083E+03  0.51676899962E+03  0.17300000000E+03 0. -1.
         -6    1    1    2    0  502 -0.46379841859E+02  0.38054789850E+02  0.18702652572E+02  0.18405989779E+03  0.17300000000E+03 0. -1.
<mgrwt>
<rscale>  2 0.18310723E+03</rscale>
<asrwt>0</asrwt>
<pdfrwt beam="1">  1       21 0.18176190E-01 0.18310723E+03</pdfrwt>
<pdfrwt beam="2">  1       21 0.89643642E-01 0.18310723E+03</pdfrwt>
<totfact> 0.29392308E+04</totfact>
</mgrwt>
</event>
<event>
 4    2  0.3944631E+000  0.2152681E+03  0.7546771E-02  0.1137461E+00
         21   -1    0    0  501  502  0.00000000000E+00  0.00000000000E+00  0.23013022820E+03  0.23013022820E+03  0.00000000000E+00 0. -1.
         21   -1    0    0  502  503 -0.00000000000E+00 -0.00000000000E+00 -0.40733300623E+03  0.40733300623E+03  0.00000000000E+00 0.  1.
          6    1    1    2  501    0 -0.10006174121E+01 -0.12810297918E+03  0.13804526206E+03  0.25572811516E+03  0.17300000000E+03 0. -1.
         -6    1    1    2    0  503  0.10006174121E+01  0.12810297918E+03 -0.31524804008E+03  0.38173511927E+03  0.17300000000E+03 0.  1.
<mgrwt>
<rscale>  2 0.21526815E+03</rscale>
<asrwt>0</asrwt>
<pdfrwt beam="1">  1       21 0.35404651E-01 0.21526815E+03</pdfrwt>
<pdfrwt beam="2">  1       21 0.62666616E-01 0.21526815E+03</pdfrwt>
<totfact> 0.17902019E+04</totfact>
</mgrwt>
</event>
<event>
 4    2  0.3944631E+000  0.2051221E+03  0.7546771E-02  0.1145488E+00
         21   -1    0    0  501  502  0.00000000000E+00  0.00000000000E+00  0.17798322263E+03  0.17798322263E+03  0.00000000000E+00 0.  1.
         21   -1    0    0  502  503 -0.00000000000E+00 -0.00000000000E+00 -0.67848735640E+03  0.67848735640E+03  0.00000000000E+00 0.  1.
          6    1    1    2  501    0  0.10360941682E+03 -0.37565607849E+02  0.95421386587E+02  0.22623069457E+03  0.17300000000E+03 0.  1.
         -6    1    1    2    0  503 -0.10360941682E+03  0.37565607849E+02 -0.59592552036E+03  0.63023988446E+03  0.17300000000E+03 0.  1.
<mgrwt>
<rscale>  2 0.20512212E+03</rscale>
<asrwt>0</asrwt>
<pdfrwt beam="1">  1       21 0.27382034E-01 0.20512212E+03</pdfrwt>
<pdfrwt beam="2">  1       21 0.10438267E+00 0.20512212E+03</pdfrwt>
<totfact> 0.93424061E+03</totfact>
</mgrwt>
</event>
<event>
 4    2  0.3944631E+000  0.2032151E+03  0.7546771E-02  0.1147054E+00
         21   -1    0    0  503  502  0.00000000000E+00  0.00000000000E+00  0.39656977642E+02  0.39656977642E+02  0.00000000000E+00 0. -1.
         21   -1    0    0  501  503 -0.00000000000E+00 -0.00000000000E+00 -0.10445849298E+04  0.10445849298E+04  0.00000000000E+00 0. -1.
          6    1    1    2  501    0  0.43150711185E+02  0.97495536834E+02 -0.47224473703E+03  0.51411229827E+03  0.17300000000E+03 0. -1.
         -6    1    1    2    0  502 -0.43150711185E+02 -0.97495536834E+02 -0.53268321513E+03  0.57012960917E+03  0.17300000000E+03 0. -1.
<mgrwt>
<rscale>  2 0.20321507E+03</rscale>
<asrwt>0</asrwt>
<pdfrwt beam="1">  1       21 0.61010736E-02 0.20321507E+03</pdfrwt>
<pdfrwt beam="2">  1       21 0.16070537E+00 0.20321507E+03</pdfrwt>
<totfact> 0.47363778E+04</totfact>
</mgrwt>
</event>
<event>
 4    2  0.3944631E+000  0.3083963E+03  0.7546771E-02  0.1081117E+00
         21   -1    0    0  501  502  0.00000000000E+00  0.00000000000E+00  0.24727088259E+03  0.24727088259E+03  0.00000000000E+00 0. -1.
         21   -1    0    0  502  503 -0.00000000000E+00 -0.00000000000E+00 -0.41597373523E+03  0.41597373523E+03  0.00000000000E+00 0.  1.
          6    1    1    2  501    0 -0.72835722179E+02 -0.24469213968E+03  0.66760578204E+01  0.30846856468E+03  0.17300000000E+03 0. -1.
         -6    1    1    2    0  503  0.72835722179E+02  0.24469213968E+03 -0.17537891045E+03  0.35477605314E+03  0.17300000000E+03 0.  1.
<mgrwt>
<rscale>  2 0.30839631E+03</rscale>
<asrwt>0</asrwt>
<pdfrwt beam="1">  1       21 0.38041675E-01 0.30839631E+03</pdfrwt>
<pdfrwt beam="2">  1       21 0.63995958E-01 0.30839631E+03</pdfrwt>
<totfact> 0.14146047E+04</totfact>
</mgrwt>
</event>
<event>
 4    2  0.3944631E+000  0.2104916E+03  0.7546771E-02  0.1141177E+00
         21   -1    0    0  501  502  0.00000000000E+00  0.00000000000E+00  0.65218033325E+02  0.65218033325E+02  0.00000000000E+00 0.  1.
         21   -1    0    0  502  503 -0.00000000000E+00 -0.00000000000E+00 -0.68469894004E+03  0.68469894004E+03  0.00000000000E+00 0.  1.
          6    1    1    2  501    0  0.80325536262E+02 -0.89025382949E+02 -0.34284166872E+03  0.40230227491E+03  0.17300000000E+03 0.  1.
         -6    1    1    2    0  503 -0.80325536262E+02  0.89025382949E+02 -0.27663923800E+03  0.34761469846E+03  0.17300000000E+03 0.  1.
<mgrwt>
<rscale>  2 0.21049159E+03</rscale>
<asrwt>0</asrwt>
<pdfrwt beam="1">  1       21 0.10033544E-01 0.21049159E+03</pdfrwt>
<pdfrwt beam="2">  1       21 0.10533830E+00 0.21049159E+03</pdfrwt>
<totfact> 0.57967722E+04</totfact>
</mgrwt>
</event>
<event>
 4    2  0.3944631E+000  0.2229201E+03  0.7546771E-02  0.1131725E+00
         21   -1    0    0  503  502  0.00000000000E+00  0.00000000000E+00  0.66042965320E+02  0.66042965320E+02  0.00000000000E+00 0.  1.
         21   -1    0    0  501  503 -0.00000000000E+00 -0.00000000000E+00 -0.13055974946E+04  0.13055974946E+04  0.00000000000E+00 0.  1.
          6    1    1    2  501    0 -0.10648839360E+03 -0.91785659387E+02 -0.10661831796E+04  0.10892382465E+04  0.17300000000E+03 0.  1.
         -6    1    1    2    0  502  0.10648839360E+03  0.91785659387E+02 -0.17337134969E+03  0.28240221340E+03  0.17300000000E+03 0.  1.
<mgrwt>
<rscale>  2 0.22292013E+03</rscale>
<asrwt>0</asrwt>
<pdfrwt beam="1">  1       21 0.10160457E-01 0.22292013E+03</pdfrwt>
<pdfrwt beam="2">  1       21 0.20086113E+00 0.22292013E+03</pdfrwt>
<totfact> 0.10207640E+04</totfact>
</mgrwt>
</event>
<event>
 4    2  0.3944631E+000  0.1935613E+03  0.7546771E-02  0.1155288E+00
         21   -1    0    0  501  502  0.00000000000E+00  0.00000000000E+00  0.10029032663E+04  0.10029032663E+04  0.00000000000E+00 0.  1.
         21   -1    0    0  502  503 -0.00000000000E+00 -0.00000000000E+00 -0.38097984788E+02  0.38097984788E+02  0.00000000000E+00 0. -1.
          6    1    1    2  501    0  0.29707687281E+02  0.81574677297E+02  0.55496705249E+03  0.58775369332E+03  0.17300000000E+03 0.  1.
         -6    1    1    2    0  503 -0.29707687281E+02 -0.81574677297E+02  0.40983822905E+03  0.45324755780E+03  0.17300000000E+03 0.  1.
<mgrwt>
<rscale>  2 0.19356129E+03</rscale>
<asrwt>0</asrwt>
<pdfrwt beam="1">  1       21 0.15429279E+00 0.19356129E+03</pdfrwt>
<pdfrwt beam="2">  1       21 0.58612292E-02 0.19356129E+03</pdfrwt>
<totfact> 0.56909676E+04</totfact>
</mgrwt>
</event>
<event>
 4    2  0.3944631E+000  0.2880691E+03  0.7546771E-02  0.1091362E+00
         21   -1    0    0  501  502  0.00000000000E+00  0.00000000000E+00  0.94379344057E+03  0.94379344057E+03  0.00000000000E+00 0.  1.
         21   -1    0    0  502  503 -0.00000000000E+00 -0.00000000000E+00 -0.37183766659E+03  0.37183766659E+03  0.00000000000E+00 0.  1.
          6    1    1    2  501    0 -0.15524878720E+03  0.17015475889E+03  0.86078110625E+03  0.90770476520E+03  0.17300000000E+03 0.  1.
         -6    1    1    2    0  503  0.15524878720E+03 -0.17015475889E+03 -0.28882533227E+03  0.40792634196E+03  0.17300000000E+03 0.  1.
<mgrwt>
<rscale>  2 0.28806914E+03</rscale>
<asrwt>0</asrwt>
<pdfrwt beam="1">  1       21 0.14519899E+00 0.28806914E+03</pdfrwt>
<pdfrwt beam="2">  1       21 0.57205795E-01 0.28806914E+03</pdfrwt>
<totfact> 0.85946093E+02</totfact>
</mgrwt>
</event>
<event>
 4    2  0.3944631E+000  0.2218570E+03  0.7546771E-02  0.1132506E+00
         21   -1    0    0  503  502  0.00000000000E+00  0.00000000000E+00  0.33738159403E+03  0.33738159403E+03  0.00000000000E+00 0.  1.
         21   -1    0    0  501  503 -0.00000000000E+00 -0.00000000000E+00 -0.18735030880E+03  0.18735030880E+03  0.00000000000E+00 0. -1.
          6    1    1    2  501    0 -0.48479557180E+01 -0.13880932898E+03 -0.48407782139E+02  0.22707674002E+03  0.17300000000E+03 0.  1.
         -6    1    1    2    0  502  0.48479557180E+01  0.13880932898E+03  0.19843906737E+03  0.29765516280E+03  0.17300000000E+03 0.  1.
<mgrwt>
<rscale>  2 0.22185701E+03</rscale>
<asrwt>0</asrwt>
<pdfrwt beam="1">  1       21 0.51904861E-01 0.22185701E+03</pdfrwt>
<pdfrwt beam="2">  1       21 0.28823124E-01 0.22185701E+03</pdfrwt>
<totfact> 0.40002942E+04</totfact>
</mgrwt>
</event>
<event>
 4    2  0.3944631E+000  0.2148296E+03  0.7546771E-02  0.1137798E+00
         21   -1    0    0  503  502  0.00000000000E+00  0.00000000000E+00  0.51073827455E+03  0.51073827455E+03  0.00000000000E+00 0. -1.
         21   -1    0    0  501  503 -0.00000000000E+00 -0.00000000000E+00 -0.94631481234E+02  0.94631481234E+02  0.00000000000E+00 0.  1.
          6    1    1    2  501    0  0.97357275252E+02  0.82123673562E+02  0.14376684344E+03  0.25849688988E+03  0.17300000000E+03 0.  1.
         -6    1    1    2    0  502 -0.97357275252E+02 -0.82123673562E+02  0.27233994988E+03  0.34687286591E+03  0.17300000000E+03 0. -1.
<mgrwt>
<rscale>  2 0.21482955E+03</rscale>
<asrwt>0</asrwt>
<pdfrwt beam="1">  1       21 0.78575118E-01 0.21482955E+03</pdfrwt>
<pdfrwt beam="2">  1       21 0.14558690E-01 0.21482955E+03</pdfrwt>
<totfact> 0.58704707E+04</totfact>
</mgrwt>
</event>
<event>
 4    2  0.3944631E+000  0.2348611E+03  0.7546771E-02  0.1123264E+00
         21   -1    0    0  503  502  0.00000000000E+00  0.00000000000E+00  0.39457925359E+03  0.39457925359E+03  0.00000000000E+00 0.  1.
         21   -1    0    0  501  503 -0.00000000000E+00 -0.00000000000E+00 -0.14206901055E+03  0.14206901055E+03  0.00000000000E+00 0. -1.
          6    1    1    2  501    0  0.11197915196E+03 -0.11265607501E+03  0.92298564802E+02  0.25234648160E+03  0.17300000000E+03 0.  1.
         -6    1    1    2    0  502 -0.11197915196E+03  0.11265607501E+03  0.16021167824E+03  0.28430178254E+03  0.17300000000E+03 0. -1.
<mgrwt>
<rscale>  2 0.23486107E+03</rscale>
<asrwt>0</asrwt>
<pdfrwt beam="1">  1       21 0.60704500E-01 0.23486107E+03</pdfrwt>
<pdfrwt beam="2">  1       21 0.21856771E-01 0.23486107E+03</pdfrwt>
<totfact> 0.48420932E+04</totfact>
</mgrwt>
</event>
<event>
 4    2  0.3944631E+000  0.2562720E+03  0.7546771E-02  0.1109404E+00
         21   -1    0    0  503  502  0.00000000000E+00  0.00000000000E+00  0.83994652578E+03  0.83994652578E+03  0.00000000000E+00 0.  1.
         21   -1    0    0  501  503 -0.00000000000E+00 -0.00000000000E+00 -0.78509205826E+02  0.78509205826E+02  0.00000000000E+00 0.  1.
          6    1    1    2  501    0  0.49602972574E+02  0.18244418623E+03  0.41000536105E+03  0.48350773734E+03  0.17300000000E+03 0.  1.
         -6    1    1    2    0  502 -0.49602972574E+02 -0.18244418623E+03  0.35143195890E+03  0.43494799427E+03  0.17300000000E+03 0.  1.
<mgrwt>
<rscale>  2 0.25627200E+03</rscale>
<asrwt>0</asrwt>
<pdfrwt beam="1">  1       21 0.12922254E+00 0.25627200E+03</pdfrwt>
<pdfrwt beam="2">  1       21 0.12078340E-01 0.25627200E+03</pdfrwt>
<totfact> 0.24564667E+04</totfact>
</mgrwt>
</event>
<event>
 4    2  0.3944631E+000  0.3591252E+03  0.7546771E-02  0.1058931E+00
         21   -1    0    0  503  502  0.00000000000E+00  0.00000000000E+00  0.52370129379E+03  0.52370129379E+03  0.00000000000E+00 0. -1.
         21   -1    0    0  501  503 -0.00000000000E+00 -0.00000000000E+00 -0.28989023814E+03  0.28989023814E+03  0.00000000000E+00 0.  1.
          6    1    1    2  501    0 -0.29881594494E+03  0.98747016920E+02 -0.40896621997E+02  0.36144636669E+03  0.17300000000E+03 0. -1.
         -6    1    1    2    0  502  0.29881594494E+03 -0.98747016920E+02  0.27470767764E+03  0.45214516525E+03  0.17300000000E+03 0.  1.
<mgrwt>
<rscale>  2 0.35912525E+03</rscale>
<asrwt>0</asrwt>
<pdfrwt beam="1">  1       21 0.80569430E-01 0.35912525E+03</pdfrwt>
<pdfrwt beam="2">  1       21 0.44598498E-01 0.35912525E+03</pdfrwt>
<totfact> 0.59552534E+03</totfact>
</mgrwt>
</event>
<event>
 4    2  0.3944631E+000  0.1767332E+03  0.7546771E-02  0.1171003E+00
         21   -1    0    0  501  502  0.00000000000E+00  0.00000000000E+00  0.54226250976E+03  0.54226250976E+03  0.00000000000E+00 0.  1.
         21   -1    0    0  502  503 -0.00000000000E+00 -0.00000000000E+00 -0.79340949258E+02  0.79340949258E+02  0.00000000000E+00 0.  1.
          6    1    1    2  501    0 -0.28945108967E+02 -0.21628752386E+02  0.39415361445E+03  0.43196260723E+03  0.17300000000E+03 0.  1.
         -6    1    1    2    0  503  0.28945108967E+02  0.21628752386E+02  0.68767946057E+02  0.18964085179E+03  0.17300000000E+03 0.  1.
<mgrwt>
<rscale>  2 0.17673320E+03</rscale>
<asrwt>0</asrwt>
<pdfrwt beam="1">  1       21 0.83424999E-01 0.17673320E+03</pdfrwt>
<pdfrwt beam="2">  1       21 0.12206300E-01 0.17673320E+03</pdfrwt>
<totfact> 0.71681412E+04</totfact>
</mgrwt>
</event>
<event>
 4    2  0.3944631E+000  0.2442669E+03  0.7546771E-02  0.1116983E+00
         21   -1    0    0  501  502  0.00000000000E+00  0.00000000000E+00  0.29214848637E+03  0.29214848637E+03  0.00000000000E+00 0. -1.
         21   -1    0    0  502  503 -0.00000000000E+00 -0.00000000000E+00 -0.26458283838E+03  0.26458283838E+03  0.00000000000E+00 0.  1.
          6    1    1    2  501    0  0.16983730260E+03  0.29876709487E+02  0.14672822230E+03  0.28494823801E+03  0.17300000000E+03 0. -1.
         -6    1    1    2    0  503 -0.16983730260E+03 -0.29876709487E+02 -0.11916257432E+03  0.27178308675E+03  0.17300000000E+03 0.  1.
<mgrwt>
<rscale>  2 0.24426692E+03</rscale>
<asrwt>0</asrwt>
<pdfrwt beam="1">  1       21 0.44945921E-01 0.24426692E+03</pdfrwt>
<pdfrwt beam="2">  1       21 0.40705052E-01 0.24426692E+03</pdfrwt>
<totfact> 0.26891064E+04</totfact>
</mgrwt>
</event>
<event>
 4    2  0.3944631E+000  0.2477585E+03  0.7546771E-02  0.1114730E+00
         21   -1    0    0  501  502  0.00000000000E+00  0.00000000000E+00  0.98868946042E+02  0.98868946042E+02  0.00000000000E+00 0. -1.
         21   -1    0    0  502  503 -0.00000000000E+00 -0.00000000000E+00 -0.63211846794E+03  0.63211846794E+03  0.00000000000E+00 0. -1.
          6    1    1    2  501    0 -0.34044956996E+02  0.17405810663E+03 -0.21785834390E+03  0.32991899246E+03  0.17300000000E+03 0. -1.
         -6    1    1    2    0  503  0.34044956996E+02 -0.17405810663E+03 -0.31539117801E+03  0.40106842153E+03  0.17300000000E+03 0. -1.
<mgrwt>
<rscale>  2 0.24775852E+03</rscale>
<asrwt>0</asrwt>
<pdfrwt beam="1">  1       21 0.15210607E-01 0.24775852E+03</pdfrwt>
<pdfrwt beam="2">  1       21 0.97248993E-01 0.24775852E+03</pdfrwt>
<totfact> 0.32599911E+04</totfact>
</mgrwt>
</event>
<event>
 4    2  0.3944631E+000  0.1755893E+03  0.7546771E-02  0.1172141E+00
         21   -1    0    0  503  502  0.00000000000E+00  0.00000000000E+00  0.86564055302E+02  0.86564055302E+02  0.00000000000E+00 0. -1.
         21   -1    0    0  501  503 -0.00000000000E+00 -0.00000000000E+00 -0.53507913540E+03  0.53507913540E+03  0.00000000000E+00 0. -1.
          6    1    1    2  501    0  0.29491569240E+02 -0.57318793297E+01 -0.40398614701E+03  0.44049564592E+03  0.17300000000E+03 0. -1.
         -6    1    1    2    0  502 -0.29491569240E+02  0.57318793297E+01 -0.44528933079E+02  0.18114754478E+03  0.17300000000E+03 0. -1.
<mgrwt>
<rscale>  2 0.17558931E+03</rscale>
<asrwt>0</asrwt>
<pdfrwt beam="1">  1       21 0.13317547E-01 0.17558931E+03</pdfrwt>
<pdfrwt beam="2">  1       21 0.82319865E-01 0.17558931E+03</pdfrwt>
<totfact> 0.63229136E+04</totfact>
</mgrwt>
</event>
<event>
 4    2  0.3944631E+000  0.1743534E+03  0.7546771E-02  0.1173382E+00
         21   -1    0    0  501  502  0.00000000000E+00  0.00000000000E+00  0.64210735446E+02  0.64210735446E+02  0.00000000000E+00 0. -1.
         21   -1    0    0  502  503 -0.00000000000E+00 -0.00000000000E+00 -0.88648296824E+03  0.88648296824E+03  0.00000000000E+00 0. -1.
          6    1    1    2  501    0  0.16702698566E+02 -0.13825012801E+02 -0.86662230602E+02  0.19470350108E+03  0.17300000000E+03 0. -1.
         -6    1    1    2    0  503 -0.16702698566E+02  0.13825012801E+02 -0.73561000220E+03  0.75599020261E+03  0.17300000000E+03 0. -1.
<mgrwt>
<rscale>  2 0.17435341E+03</rscale>
<asrwt>0</asrwt>
<pdfrwt beam="1">  1       21 0.98785750E-02 0.17435341E+03</pdfrwt>
<pdfrwt beam="2">  1       21 0.13638199E+00 0.17435341E+03</pdfrwt>
<totfact> 0.32090702E+04</totfact>
</mgrwt>
</event>
<event>
 4    2  0.3944631E+000  0.2357460E+03  0.7546771E-02  0.1122660E+00
         21   -1    0    0  503  502  0.00000000000E+00  0.00000000000E+00  0.31263602766E+03  0.31263602766E+03  0.00000000000E+00 0.  1.
         21   -1    0    0  501  503 -0.00000000000E+00 -0.00000000000E+00 -0.27560664700E+03  0.27560664700E+03  0.00000000000E+00 0. -1.
          6    1    1    2  501    0  0.14899059490E+02  0.15945273646E+03 -0.15672828932E+03  0.28308993944E+03  0.17300000000E+03 0. -1.
         -6    1    1    2    0  502 -0.14899059490E+02 -0.15945273646E+03  0.19375766998E+03  0.30515273522E+03  0.17300000000E+03 0.  1.
<mgrwt>
<rscale>  2 0.23574596E+03</rscale>
<asrwt>0</asrwt>
<pdfrwt beam="1">  1       21 0.48097851E-01 0.23574596E+03</pdfrwt>
<pdfrwt beam="2">  1       21 0.42401022E-01 0.23574596E+03</pdfrwt>
<totfact> 0.21583485E+04</totfact>
</mgrwt>
</event>
<event>
 4    2  0.3944631E+000  0.1888143E+03  0.7546771E-02  0.1159535E+00
         21   -1    0    0  501  502  0.00000000000E+00  0.00000000000E+00  0.13084588417E+03  0.13084588417E+03  0.00000000000E+00 0. -1.
         21   -1    0    0  502  503 -0.00000000000E+00 -0.00000000000E+00 -0.29114109236E+03  0.29114109236E+03  0.00000000000E+00 0. -1.
          6    1    1    2  501    0 -0.71253633785E+02 -0.25392303166E+02 -0.26707546174E+02  0.19069384471E+03  0.17300000000E+03 0. -1.
         -6    1    1    2    0  503  0.71253633785E+02  0.25392303166E+02 -0.13358766201E+03  0.23129313183E+03  0.17300000000E+03 0. -1.
<mgrwt>
<rscale>  2 0.18881433E+03</rscale>
<asrwt>0</asrwt>
<pdfrwt beam="1">  1       21 0.20130136E-01 0.18881433E+03</pdfrwt>
<pdfrwt beam="2">  1       21 0.44790937E-01 0.18881433E+03</pdfrwt>
<totfact> 0.10925765E+05</totfact>
</mgrwt>
</event>
<event>
 4    2  0.3944631E+000  0.2231009E+03  0.7546771E-02  0.1131592E+00
         21   -1    0    0  503  502  0.00000000000E+00  0.00000000000E+00  0.12952055614E+04  0.12952055614E+04  0.00000000000E+00 0. -1.
         21   -1    0    0  501  503 -0.00000000000E+00 -0.00000000000E+00 -0.12905544939E+03  0.12905544939E+03  0.00000000000E+00 0.  1.
          6    1    1    2  501    0 -0.29967316165E+01  0.14084045486E+03 -0.13682413422E+02  0.22352007195E+03  0.17300000000E+03 0.  1.
         -6    1    1    2    0  502  0.29967316165E+01 -0.14084045486E+03  0.11798325254E+04  0.12007409388E+04  0.17300000000E+03 0. -1.
<mgrwt>
<rscale>  2 0.22310091E+03</rscale>
<asrwt>0</asrwt>
<pdfrwt beam="1">  1       21 0.19926238E+00 0.22310091E+03</pdfrwt>
<pdfrwt beam="2">  1       21 0.19854685E-01 0.22310091E+03</pdfrwt>
<totfact> 0.30871439E+03</totfact>
</mgrwt>
</event>
<event>
 4    2  0.3944631E+000  0.2773889E+03  0.7546771E-02  0.1097124E+00
         21   -1    0    0  501  502  0.00000000000E+00  0.00000000000E+00  0.43284901091E+03  0.43284901091E+03  0.00000000000E+00 0.  1.
         21   -1    0    0  502  503 -0.00000000000E+00 -0.00000000000E+00 -0.18903445410E+03  0.18903445410E+03  0.00000000000E+00 0.  1.
          6    1    1    2  501    0  0.67507517325E+01 -0.21672570162E+03  0.19783417869E+03  0.34070950185E+03  0.17300000000E+03 0.  1.
         -6    1    1    2    0  503 -0.67507517325E+01  0.21672570162E+03  0.45980378126E+02  0.28117396317E+03  0.17300000000E+03 0.  1.
<mgrwt>
<rscale>  2 0.27738890E+03</rscale>
<asrwt>0</asrwt>
<pdfrwt beam="1">  1       21 0.66592155E-01 0.27738890E+03</pdfrwt>
<pdfrwt beam="2">  1       21 0.29082224E-01 0.27738890E+03</pdfrwt>
<totfact> 0.22421091E+04</totfact>
</mgrwt>
</event>
<event>
 4    2  0.3944631E+000  0.3361965E+03  0.7546771E-02  0.1068428E+00
         21   -1    0    0  503  502  0.00000000000E+00  0.00000000000E+00  0.96145428890E+03  0.96145428890E+03  0.00000000000E+00 0.  1.
         21   -1    0    0  501  503 -0.00000000000E+00 -0.00000000000E+00 -0.13339151516E+03  0.13339151516E+03  0.00000000000E+00 0. -1.
          6    1    1    2  501    0 -0.26729228269E+03 -0.10795333664E+03  0.22543779467E+03  0.40478424691E+03  0.17300000000E+03 0. -1.
         -6    1    1    2    0  502  0.26729228269E+03  0.10795333664E+03  0.60262497907E+03  0.69006155716E+03  0.17300000000E+03 0.  1.
<mgrwt>
<rscale>  2 0.33619650E+03</rscale>
<asrwt>0</asrwt>
<pdfrwt beam="1">  1       21 0.14791604E+00 0.33619650E+03</pdfrwt>
<pdfrwt beam="2">  1       21 0.20521772E-01 0.33619650E+03</pdfrwt>
<totfact> 0.62425359E+03</totfact>
</mgrwt>
</event>
<event>
 4    2  0.3944631E+000  0.2217077E+03  0.7546771E-02  0.1132616E+00
         21   -1    0    0  503  502  0.00000000000E+00  0.00000000000E+00  0.68735724136E+02  0.68735724136E+02  0.00000000000E+00 0.  1.
         21   -1    0    0  501  503 -0.00000000000E+00 -0.00000000000E+00 -0.77812840873E+03  0.77812840873E+03  0.00000000000E+00 0.  1.
          6    1    1    2  501    0  0.97310863517E+02 -0.98771882405E+02 -0.23420454818E+03  0.32249970434E+03  0.17300000000E+03 0.  1.
         -6    1    1    2    0  502 -0.97310863517E+02  0.98771882405E+02 -0.47518813642E+03  0.52436442853E+03  0.17300000000E+03 0.  1.
<mgrwt>
<rscale>  2 0.22170767E+03</rscale>
<asrwt>0</asrwt>
<pdfrwt beam="1">  1       21 0.10574727E-01 0.22170767E+03</pdfrwt>
<pdfrwt beam="2">  1       21 0.11971206E+00 0.22170767E+03</pdfrwt>
<totfact> 0.38437634E+04</totfact>
</mgrwt>
</event>
<event>
 4    2  0.3944631E+000  0.1739657E+03  0.7546771E-02  0.1173774E+00
         21   -1    0    0  503  502  0.00000000000E+00  0.00000000000E+00  0.16495494643E+04  0.16495494643E+04  0.00000000000E+00 0. -1.
         21   -1    0    0  501  503 -0.00000000000E+00 -0.00000000000E+00 -0.20285999382E+02  0.20285999382E+02  0.00000000000E+00 0. -1.
          6    1    1    2  501    0  0.13326505066E+02 -0.12548269496E+02  0.55649495910E+03  0.58305290867E+03  0.17300000000E+03 0. -1.
         -6    1    1    2    0  502 -0.13326505066E+02  0.12548269496E+02  0.10727685059E+04  0.10867825550E+04  0.17300000000E+03 0. -1.
<mgrwt>
<rscale>  2 0.17396567E+03</rscale>
<asrwt>0</asrwt>
<pdfrwt beam="1">  1       21 0.25377674E+00 0.17396567E+03</pdfrwt>
<pdfrwt beam="2">  1       21 0.31209243E-02 0.17396567E+03</pdfrwt>
<totfact> 0.38036725E+04</totfact>
</mgrwt>
</event>
<event>
 4    2  0.3944631E+000  0.1984913E+03  0.7546771E-02  0.1151018E+00
         21   -1    0    0  501  502  0.00000000000E+00  0.00000000000E+00  0.94362152250E+03  0.94362152250E+03  0.00000000000E+00 0.  1.
         21   -1    0    0  502  503 -0.00000000000E+00 -0.00000000000E+00 -0.43176745961E+02  0.43176745961E+02  0.00000000000E+00 0.  1.
          6    1    1    2  501    0 -0.96875654977E+02  0.92145740176E+01  0.53982622693E+03  0.57516185216E+03  0.17300000000E+03 0.  1.
         -6    1    1    2    0  503  0.96875654977E+02 -0.92145740176E+01  0.36061854961E+03  0.41163641630E+03  0.17300000000E+03 0.  1.
<mgrwt>
<rscale>  2 0.19849131E+03</rscale>
<asrwt>0</asrwt>
<pdfrwt beam="1">  1       21 0.14517253E+00 0.19849131E+03</pdfrwt>
<pdfrwt beam="2">  1       21 0.66425770E-02 0.19849131E+03</pdfrwt>
<totfact> 0.53746226E+04</totfact>
</mgrwt>
</event>
<event>
 4    2  0.3944631E+000  0.4449541E+03  0.7546771E-02  0.1029238E+00
         21   -1    0    0  501  502  0.00000000000E+00  0.00000000000E+00  0.12921031788E+04  0.12921031788E+04  0.00000000000E+00 0. -1.
         21   -1    0    0  502  503 -0.00000000000E+00 -0.00000000000E+00 -0.19463018811E+03  0.19463018811E+03  0.00000000000E+00 0.  1.
          6    1    1    2  501    0  0.20884242773E+03  0.35276052721E+03  0.20587499786E+03  0.49027407021E+03  0.17300000000E+03 0.  1.
         -6    1    1    2    0  503 -0.20884242773E+03 -0.35276052721E+03  0.89159799287E+03  0.99645929674E+03  0.17300000000E+03 0. -1.
<mgrwt>
<rscale>  2 0.44495410E+03</rscale>
<asrwt>0</asrwt>
<pdfrwt beam="1">  1       21 0.19878510E+00 0.44495410E+03</pdfrwt>
<pdfrwt beam="2">  1       21 0.29943107E-01 0.44495410E+03</pdfrwt>
<totfact> 0.12281329E+03</totfact>
</mgrwt>
</event>
<event>
 4    2  0.3944631E+000  0.2761065E+03  0.7546771E-02  0.1097835E+00
         21   -1    0    0  503  502  0.00000000000E+00  0.00000000000E+00  0.32656998140E+03  0.32656998140E+03  0.00000000000E+00 0. -1.
         21   -1    0    0  501  503 -0.00000000000E+00 -0.00000000000E+00 -0.34060038217E+03  0.34060038217E+03  0.00000000000E+00 0.  1.
          6    1    1    2  501    0 -0.82111035032E+02 -0.19890595215E+03 -0.19412624753E+03  0.33752007326E+03  0.17300000000E+03 0. -1.
         -6    1    1    2    0  502  0.82111035032E+02  0.19890595215E+03  0.18009584676E+03  0.32965029030E+03  0.17300000000E+03 0. -1.
<mgrwt>
<rscale>  2 0.27610650E+03</rscale>
<asrwt>0</asrwt>
<pdfrwt beam="1">  1       21 0.50241535E-01 0.27610650E+03</pdfrwt>
<pdfrwt beam="2">  1       21 0.52400059E-01 0.27610650E+03</pdfrwt>
<totfact> 0.12429324E+04</totfact>
</mgrwt>
</event>
<event>
 4    2  0.3944631E+000  0.1769563E+03  0.7546771E-02  0.1170782E+00
         21   -1    0    0  503  502  0.00000000000E+00  0.00000000000E+00  0.11308021988E+03  0.11308021988E+03  0.00000000000E+00 0.  1.
         21   -1    0    0  501  503 -0.00000000000E+00 -0.00000000000E+00 -0.31186064457E+03  0.31186064457E+03  0.00000000000E+00 0.  1.
          6    1    1    2  501    0  0.26069835687E+02 -0.26549577032E+02 -0.17051481246E+03  0.24574136331E+03  0.17300000000E+03 0.  1.
         -6    1    1    2    0  502 -0.26069835687E+02  0.26549577032E+02 -0.28265612217E+02  0.17919950114E+03  0.17300000000E+03 0.  1.
<mgrwt>
<rscale>  2 0.17695626E+03</rscale>
<asrwt>0</asrwt>
<pdfrwt beam="1">  1       21 0.17396957E-01 0.17695626E+03</pdfrwt>
<pdfrwt beam="2">  1       21 0.47978561E-01 0.17695626E+03</pdfrwt>
<totfact> 0.12481748E+05</totfact>
</mgrwt>
</event>
<event>
 4    2  0.3944631E+000  0.2869394E+03  0.7546771E-02  0.1091958E+00
         21   -1    0    0  503  502  0.00000000000E+00  0.00000000000E+00  0.13629930757E+03  0.13629930757E+03  0.00000000000E+00 0. -1.
         21   -1    0    0  501  503 -0.00000000000E+00 -0.00000000000E+00 -0.62468256547E+03  0.62468256547E+03  0.00000000000E+00 0.  1.
          6    1    1    2  501    0  0.19766107618E+03 -0.11547870057E+03 -0.17507417822E+03  0.33613271070E+03  0.17300000000E+03 0. -1.
         -6    1    1    2    0  502 -0.19766107618E+03  0.11547870057E+03 -0.31330907968E+03  0.42484916233E+03  0.17300000000E+03 0.  1.
<mgrwt>
<rscale>  2 0.28693942E+03</rscale>
<asrwt>0</asrwt>
<pdfrwt beam="1">  1       21 0.20969124E-01 0.28693942E+03</pdfrwt>
<pdfrwt beam="2">  1       21 0.96105011E-01 0.28693942E+03</pdfrwt>
<totfact> 0.18117690E+04</totfact>
</mgrwt>
</event>
<event>
 4    2  0.3944631E+000  0.1863050E+03  0.7546771E-02  0.1161837E+00
         21   -1    0    0  501  502  0.00000000000E+00  0.00000000000E+00  0.64471300098E+03  0.64471300098E+03  0.00000000000E+00 0.  1.
         21   -1    0    0  502  503 -0.00000000000E+00 -0.00000000000E+00 -0.83791932987E+02  0.83791932987E+02  0.00000000000E+00 0.  1.
          6    1    1    2  501    0 -0.53661866434E+01  0.68932915071E+02  0.49824862290E+03  0.53194100515E+03  0.17300000000E+03 0. -1.
         -6    1    1    2    0  503  0.53661866434E+01 -0.68932915071E+02  0.62672445100E+02  0.19656392882E+03  0.17300000000E+03 0. -1.
<mgrwt>
<rscale>  2 0.18630497E+03</rscale>
<asrwt>0</asrwt>
<pdfrwt beam="1">  1       21 0.99186612E-01 0.18630497E+03</pdfrwt>
<pdfrwt beam="2">  1       21 0.12891067E-01 0.18630497E+03</pdfrwt>
<totfact> 0.43335181E+04</totfact>
</mgrwt>
</event>
<event>
 4    2  0.3944631E+000  0.2691938E+03  0.7546771E-02  0.1101742E+00
         21   -1    0    0  501  502  0.00000000000E+00  0.00000000000E+00  0.52054111711E+02  0.52054111711E+02  0.00000000000E+00 0. -1.
         21   -1    0    0  502  503 -0.00000000000E+00 -0.00000000000E+00 -0.17143535448E+04  0.17143535448E+04  0.00000000000E+00 0.  1.
          6    1    1    2  501    0 -0.12419069897E+03  0.16466022555E+03 -0.44823737510E+03  0.52285950696E+03  0.17300000000E+03 0. -1.
         -6    1    1    2    0  503  0.12419069897E+03 -0.16466022555E+03 -0.12140620580E+04  0.12435481495E+04  0.17300000000E+03 0.  1.
<mgrwt>
<rscale>  2 0.26919383E+03</rscale>
<asrwt>0</asrwt>
<pdfrwt beam="1">  1       21 0.80083253E-02 0.26919383E+03</pdfrwt>
<pdfrwt beam="2">  1       21 0.26374668E+00 0.26919383E+03</pdfrwt>
<totfact> 0.61838391E+03</totfact>
</mgrwt>
</event>
<event>
 4    2  0.3944631E+000  0.2880691E+03  0.7546771E-02  0.1091362E+00
         21   -1    0    0  501  502  0.00000000000E+00  0.00000000000E+00  0.23803449470E+03  0.23803449470E+03  0.00000000000E+00 0.  1.
         21   -1    0    0  502  503 -0.00000000000E+00 -0.00000000000E+00 -0.91897291664E+03  0.91897291664E+03  0.00000000000E+00 0.  1.
          6    1    1    2  501    0  0.17861534676E+02  0.22964274180E+03  0.11528033239E+03  0.31027951643E+03  0.17300000000E+03 0.  1.
         -6    1    1    2    0  503 -0.17861534676E+02 -0.22964274180E+03 -0.79621875433E+03  0.84672789491E+03  0.17300000000E+03 0.  1.
<mgrwt>
<rscale>  2 0.28806913E+03</rscale>
<asrwt>0</asrwt>
<pdfrwt beam="1">  1       21 0.36620692E-01 0.28806913E+03</pdfrwt>
<pdfrwt beam="2">  1       21 0.14138045E+00 0.28806913E+03</pdfrwt>
<totfact> 0.23319197E+03</totfact>
</mgrwt>
</event>
<event>
 4    2  0.3944631E+000  0.2479630E+03  0.7546771E-02  0.1114599E+00
         21   -1    0    0  503  502  0.00000000000E+00  0.00000000000E+00  0.18399735909E+03  0.18399735909E+03  0.00000000000E+00 0.  1.
         21   -1    0    0  501  503 -0.00000000000E+00 -0.00000000000E+00 -0.34790078789E+03  0.34790078789E+03  0.00000000000E+00 0. -1.
          6    1    1    2  501    0 -0.30038695926E+02  0.17508382855E+03 -0.13479392771E+03  0.28223230364E+03  0.17300000000E+03 0. -1.
         -6    1    1    2    0  502  0.30038695926E+02 -0.17508382855E+03 -0.29109501090E+02  0.24966584333E+03  0.17300000000E+03 0.  1.
<mgrwt>
<rscale>  2 0.24796304E+03</rscale>
<asrwt>0</asrwt>
<pdfrwt beam="1">  1       21 0.28307286E-01 0.24796304E+03</pdfrwt>
<pdfrwt beam="2">  1       21 0.53523198E-01 0.24796304E+03</pdfrwt>
<totfact> 0.38384564E+04</totfact>
</mgrwt>
</event>
<event>
 4    2  0.3944631E+000  0.1792455E+03  0.7546771E-02  0.1168535E+00
         21   -1    0    0  503  502  0.00000000000E+00  0.00000000000E+00  0.14628488369E+03  0.14628488369E+03  0.00000000000E+00 0. -1.
         21   -1    0    0  501  503 -0.00000000000E+00 -0.00000000000E+00 -0.25204729535E+03  0.25204729535E+03  0.00000000000E+00 0. -1.
          6    1    1    2  501    0 -0.40482137180E+02 -0.23688392025E+02 -0.12430529430E+03  0.21813012066E+03  0.17300000000E+03 0. -1.
         -6    1    1    2    0  502  0.40482137180E+02  0.23688392025E+02  0.18542882649E+02  0.18020205838E+03  0.17300000000E+03 0. -1.
<mgrwt>
<rscale>  2 0.17924548E+03</rscale>
<asrwt>0</asrwt>
<pdfrwt beam="1">  1       21 0.22505367E-01 0.17924548E+03</pdfrwt>
<pdfrwt beam="2">  1       21 0.38776507E-01 0.17924548E+03</pdfrwt>
<totfact> 0.11915563E+05</totfact>
</mgrwt>
</event>
<event>
 4    2  0.3944631E+000  0.2619262E+03  0.7546771E-02  0.1105991E+00
         21   -1    0    0  501  502  0.00000000000E+00  0.00000000000E+00  0.20857906115E+03  0.20857906115E+03  0.00000000000E+00 0. -1.
         21   -1    0    0  502  503 -0.00000000000E+00 -0.00000000000E+00 -0.43274966786E+03  0.43274966786E+03  0.00000000000E+00 0.  1.
          6    1    1    2  501    0  0.19418822273E+03 -0.31100781250E+02  0.44986444691E+02  0.26576136786E+03  0.17300000000E+03 0. -1.
         -6    1    1    2    0  503 -0.19418822273E+03  0.31100781250E+02 -0.26915705140E+03  0.37556736115E+03  0.17300000000E+03 0.  1.
<mgrwt>
<rscale>  2 0.26192618E+03</rscale>
<asrwt>0</asrwt>
<pdfrwt beam="1">  1       21 0.32089087E-01 0.26192618E+03</pdfrwt>
<pdfrwt beam="2">  1       21 0.66576872E-01 0.26192618E+03</pdfrwt>
<totfact> 0.18610227E+04</totfact>
</mgrwt>
</event>
<event>
 4    2  0.3944631E+000  0.1758072E+03  0.7546771E-02  0.1171924E+00
         21   -1    0    0  501  502  0.00000000000E+00  0.00000000000E+00  0.25060515338E+03  0.25060515338E+03  0.00000000000E+00 0.  1.
         21   -1    0    0  502  503 -0.00000000000E+00 -0.00000000000E+00 -0.18170601832E+03  0.18170601832E+03  0.00000000000E+00 0.  1.
          6    1    1    2  501    0  0.10490593421E+02  0.29480685691E+02  0.15696301347E+03  0.23568103652E+03  0.17300000000E+03 0.  1.
         -6    1    1    2    0  503 -0.10490593421E+02 -0.29480685691E+02 -0.88063878404E+02  0.19663013517E+03  0.17300000000E+03 0.  1.
<mgrwt>
<rscale>  2 0.17580718E+03</rscale>
<asrwt>0</asrwt>
<pdfrwt beam="1">  1       21 0.38554639E-01 0.17580718E+03</pdfrwt>
<pdfrwt beam="2">  1       21 0.27954772E-01 0.17580718E+03</pdfrwt>
<totfact> 0.79832441E+04</totfact>
</mgrwt>
</event>
<event>
 4    2  0.3944631E+000  0.1921224E+03  0.7546771E-02  0.1156561E+00
         21   -1    0    0  501  502  0.00000000000E+00  0.00000000000E+00  0.17724646528E+03  0.17724646528E+03  0.00000000000E+00 0.  1.
         21   -1    0    0  502  503 -0.00000000000E+00 -0.00000000000E+00 -0.21113661020E+03  0.21113661020E+03  0.00000000000E+00 0.  1.
          6    1    1    2  501    0  0.54965394988E+01  0.83377522856E+02  0.57733006589E+01  0.19220914199E+03  0.17300000000E+03 0.  1.
         -6    1    1    2    0  503 -0.54965394988E+01 -0.83377522856E+02 -0.39663445581E+02  0.19617393349E+03  0.17300000000E+03 0.  1.
<mgrwt>
<rscale>  2 0.19212242E+03</rscale>
<asrwt>0</asrwt>
<pdfrwt beam="1">  1       21 0.27268687E-01 0.19212242E+03</pdfrwt>
<pdfrwt beam="2">  1       21 0.32482555E-01 0.19212242E+03</pdfrwt>
<totfact> 0.11696869E+05</totfact>
</mgrwt>
</event>
<event>
 4    2  0.3944631E+000  0.2110713E+03  0.7546771E-02  0.1140720E+00
         21   -1    0    0  501  502  0.00000000000E+00  0.00000000000E+00  0.16348439152E+04  0.16348439152E+04  0.00000000000E+00 0. -1.
         21   -1    0    0  502  503 -0.00000000000E+00 -0.00000000000E+00 -0.75583106581E+02  0.75583106581E+02  0.00000000000E+00 0. -1.
          6    1    1    2  501    0  0.83903822310E+02 -0.87076074984E+02  0.14635107918E+04  0.14786530803E+04  0.17300000000E+03 0. -1.
         -6    1    1    2    0  503 -0.83903822310E+02  0.87076074984E+02  0.95750016875E+02  0.23177394151E+03  0.17300000000E+03 0. -1.
<mgrwt>
<rscale>  2 0.21107130E+03</rscale>
<asrwt>0</asrwt>
<pdfrwt beam="1">  1       21 0.25151442E+00 0.21107130E+03</pdfrwt>
<pdfrwt beam="2">  1       21 0.11628171E-01 0.21107130E+03</pdfrwt>
<totfact> 0.39676868E+03</totfact>
</mgrwt>
</event>
<event>
 4    2  0.3944631E+000  0.1834338E+03  0.7546771E-02  0.1164521E+00
         21   -1    0    0  503  502  0.00000000000E+00  0.00000000000E+00  0.14767762073E+03  0.14767762073E+03  0.00000000000E+00 0.  1.
         21   -1    0    0  501  503 -0.00000000000E+00 -0.00000000000E+00 -0.28422130433E+03  0.28422130433E+03  0.00000000000E+00 0.  1.
          6    1    1    2  501    0  0.15351492021E+02 -0.59019299845E+02 -0.16444708300E+03  0.24635500638E+03  0.17300000000E+03 0.  1.
         -6    1    1    2    0  502 -0.15351492021E+02  0.59019299845E+02  0.27903399402E+02  0.18554391868E+03  0.17300000000E+03 0.  1.
<mgrwt>
<rscale>  2 0.18343376E+03</rscale>
<asrwt>0</asrwt>
<pdfrwt beam="1">  1       21 0.22719634E-01 0.18343376E+03</pdfrwt>
<pdfrwt beam="2">  1       21 0.43726354E-01 0.18343376E+03</pdfrwt>
<totfact> 0.91621637E+04</totfact>
</mgrwt>
</event>
<event>
 4    2  0.3944631E+000  0.1794470E+03  0.7546771E-02  0.1168339E+00
         21   -1    0    0  501  502  0.00000000000E+00  0.00000000000E+00  0.41393328730E+02  0.41393328730E+02  0.00000000000E+00 0. -1.
         21   -1    0    0  502  503 -0.00000000000E+00 -0.00000000000E+00 -0.84336617625E+03  0.84336617625E+03  0.00000000000E+00 0. -1.
          6    1    1    2  501    0  0.41569539386E+02  0.23328003490E+02 -0.27776470026E+03  0.33068784535E+03  0.17300000000E+03 0. -1.
         -6    1    1    2    0  503 -0.41569539386E+02 -0.23328003490E+02 -0.52420814726E+03  0.55407165963E+03  0.17300000000E+03 0. -1.
<mgrwt>
<rscale>  2 0.17944699E+03</rscale>
<asrwt>0</asrwt>
<pdfrwt beam="1">  1       21 0.63682051E-02 0.17944699E+03</pdfrwt>
<pdfrwt beam="2">  1       21 0.12974863E+00 0.17944699E+03</pdfrwt>
<totfact> 0.77821629E+04</totfact>
</mgrwt>
</event>
<event>
 4    2  0.3944631E+000  0.1905509E+03  0.7546771E-02  0.1157965E+00
         21   -1    0    0  503  502  0.00000000000E+00  0.00000000000E+00  0.94680531206E+03  0.94680531206E+03  0.00000000000E+00 0. -1.
         21   -1    0    0  501  503 -0.00000000000E+00 -0.00000000000E+00 -0.45733201259E+02  0.45733201259E+02  0.00000000000E+00 0.  1.
          6    1    1    2  501    0 -0.17784969681E+02  0.77873913035E+02  0.25113188158E+03  0.31524097675E+03  0.17300000000E+03 0.  1.
         -6    1    1    2    0  502  0.17784969681E+02 -0.77873913035E+02  0.64994022923E+03  0.67729753657E+03  0.17300000000E+03 0. -1.
<mgrwt>
<rscale>  2 0.19055092E+03</rscale>
<asrwt>0</asrwt>
<pdfrwt beam="1">  1       21 0.14566234E+00 0.19055092E+03</pdfrwt>
<pdfrwt beam="2">  1       21 0.70358778E-02 0.19055092E+03</pdfrwt>
<totfact> 0.48457396E+04</totfact>
</mgrwt>
</event>
<event>
 4    2  0.3944631E+000  0.2237232E+03  0.7546771E-02  0.1131137E+00
         21   -1    0    0  501  502  0.00000000000E+00  0.00000000000E+00  0.59806755518E+02  0.59806755518E+02  0.00000000000E+00 0. -1.
         21   -1    0    0  502  503 -0.00000000000E+00 -0.00000000000E+00 -0.85344305784E+03  0.85344305784E+03  0.00000000000E+00 0. -1.
          6    1    1    2  501    0  0.74107399805E+02  0.12095935519E+03 -0.33323758230E+03  0.40137184576E+03  0.17300000000E+03 0. -1.
         -6    1    1    2    0  503 -0.74107399805E+02 -0.12095935519E+03 -0.46039872002E+03  0.51187796760E+03  0.17300000000E+03 0. -1.
<mgrwt>
<rscale>  2 0.22372320E+03</rscale>
<asrwt>0</asrwt>
<pdfrwt beam="1">  1       21 0.92010391E-02 0.22372320E+03</pdfrwt>
<pdfrwt beam="2">  1       21 0.13129894E+00 0.22372320E+03</pdfrwt>
<totfact> 0.38936506E+04</totfact>
</mgrwt>
</event>
<event>
 4    2  0.3944631E+000  0.2030211E+03  0.7546771E-02  0.1147215E+00
         21   -1    0    0  501  502  0.00000000000E+00  0.00000000000E+00  0.55542930926E+02  0.55542930926E+02  0.00000000000E+00 0.  1.
         21   -1    0    0  502  503 -0.00000000000E+00 -0.00000000000E+00 -0.82888591669E+03  0.82888591669E+03  0.00000000000E+00 0. -1.
          6    1    1    2  501    0  0.99794544021E+02  0.36463766585E+02 -0.24356856567E+03  0.31708548291E+03  0.17300000000E+03 0.  1.
         -6    1    1    2    0  503 -0.99794544021E+02 -0.36463766585E+02 -0.52977442009E+03  0.56734336471E+03  0.17300000000E+03 0. -1.
<mgrwt>
<rscale>  2 0.20302108E+03</rscale>
<asrwt>0</asrwt>
<pdfrwt beam="1">  1       21 0.85450671E-02 0.20302108E+03</pdfrwt>
<pdfrwt beam="2">  1       21 0.12752090E+00 0.20302108E+03</pdfrwt>
<totfact> 0.48261896E+04</totfact>
</mgrwt>
</event>
<event>
 4    2  0.3944631E+000  0.2026688E+03  0.7546771E-02  0.1147507E+00
         21   -1    0    0  503  502  0.00000000000E+00  0.00000000000E+00  0.58353019278E+02  0.58353019278E+02  0.00000000000E+00 0.  1.
         21   -1    0    0  501  503 -0.00000000000E+00 -0.00000000000E+00 -0.10162163897E+04  0.10162163897E+04  0.00000000000E+00 0. -1.
          6    1    1    2  501    0  0.85927755809E+02  0.61335604193E+02 -0.77678978826E+03  0.80279325527E+03  0.17300000000E+03 0. -1.
         -6    1    1    2    0  502 -0.85927755809E+02 -0.61335604193E+02 -0.18107358212E+03  0.27177615366E+03  0.17300000000E+03 0.  1.
<mgrwt>
<rscale>  2 0.20266878E+03</rscale>
<asrwt>0</asrwt>
<pdfrwt beam="1">  1       21 0.89773872E-02 0.20266878E+03</pdfrwt>
<pdfrwt beam="2">  1       21 0.15634099E+00 0.20266878E+03</pdfrwt>
<totfact> 0.26107791E+04</totfact>
</mgrwt>
</event>
<event>
 4    2  0.3944631E+000  0.1796995E+03  0.7546771E-02  0.1168094E+00
         21   -1    0    0  501  502  0.00000000000E+00  0.00000000000E+00  0.13716111557E+04  0.13716111557E+04  0.00000000000E+00 0. -1.
         21   -1    0    0  502  503 -0.00000000000E+00 -0.00000000000E+00 -0.26725423327E+02  0.26725423327E+02  0.00000000000E+00 0. -1.
          6    1    1    2  501    0 -0.46785868922E+02  0.13189970049E+02  0.91370871047E+03  0.93121184508E+03  0.17300000000E+03 0. -1.
         -6    1    1    2    0  503  0.46785868922E+02 -0.13189970049E+02  0.43117702189E+03  0.46712473393E+03  0.17300000000E+03 0. -1.
<mgrwt>
<rscale>  2 0.17969945E+03</rscale>
<asrwt>0</asrwt>
<pdfrwt beam="1">  1       21 0.21101705E+00 0.17969945E+03</pdfrwt>
<pdfrwt beam="2">  1       21 0.41116047E-02 0.17969945E+03</pdfrwt>
<totfact> 0.43179210E+04</totfact>
</mgrwt>
</event>
<event>
 4    2  0.3944631E+000  0.1816884E+03  0.7546771E-02  0.1166179E+00
         21   -1    0    0  501  502  0.00000000000E+00  0.00000000000E+00  0.33817171109E+03  0.33817171109E+03  0.00000000000E+00 0.  1.
         21   -1    0    0  502  503 -0.00000000000E+00 -0.00000000000E+00 -0.12322719256E+03  0.12322719256E+03  0.00000000000E+00 0.  1.
          6    1    1    2  501    0 -0.35331564630E+01  0.55400309312E+02  0.21264798421E+03  0.27969598255E+03  0.17300000000E+03 0.  1.
         -6    1    1    2    0  503  0.35331564630E+01 -0.55400309312E+02  0.22965343193E+01  0.18170292110E+03  0.17300000000E+03 0.  1.
<mgrwt>
<rscale>  2 0.18168841E+03</rscale>
<asrwt>0</asrwt>
<pdfrwt beam="1">  1       21 0.52026417E-01 0.18168841E+03</pdfrwt>
<pdfrwt beam="2">  1       21 0.18958030E-01 0.18168841E+03</pdfrwt>
<totfact> 0.89815215E+04</totfact>
</mgrwt>
</event>
<event>
 4    2  0.3944631E+000  0.2294165E+03  0.7546771E-02  0.1127051E+00
         21   -1    0    0  503  502  0.00000000000E+00  0.00000000000E+00  0.18248743195E+03  0.18248743195E+03  0.00000000000E+00 0. -1.
         21   -1    0    0  501  503 -0.00000000000E+00 -0.00000000000E+00 -0.36204803623E+03  0.36204803623E+03  0.00000000000E+00 0. -1.
          6    1    1    2  501    0  0.13938188285E+03 -0.57233097122E+02 -0.21256727080E+03  0.31275674459E+03  0.17300000000E+03 0. -1.
         -6    1    1    2    0  502 -0.13938188285E+03  0.57233097122E+02  0.33006666525E+02  0.23177872359E+03  0.17300000000E+03 0. -1.
<mgrwt>
<rscale>  2 0.22941651E+03</rscale>
<asrwt>0</asrwt>
<pdfrwt beam="1">  1       21 0.28074990E-01 0.22941651E+03</pdfrwt>
<pdfrwt beam="2">  1       21 0.55699697E-01 0.22941651E+03</pdfrwt>
<totfact> 0.36132904E+04</totfact>
</mgrwt>
</event>
<event>
 4    2  0.3944631E+000  0.2133079E+03  0.7546771E-02  0.1138973E+00
         21   -1    0    0  503  502  0.00000000000E+00  0.00000000000E+00  0.92285276856E+03  0.92285276856E+03  0.00000000000E+00 0. -1.
         21   -1    0    0  501  503 -0.00000000000E+00 -0.00000000000E+00 -0.57577757091E+02  0.57577757091E+02  0.00000000000E+00 0. -1.
          6    1    1    2  501    0  0.58530519853E+02 -0.11020641731E+03  0.61846606241E+03  0.65421750705E+03  0.17300000000E+03 0. -1.
         -6    1    1    2    0  502 -0.58530519853E+02  0.11020641731E+03  0.24680894906E+03  0.32621301860E+03  0.17300000000E+03 0. -1.
<mgrwt>
<rscale>  2 0.21330794E+03</rscale>
<asrwt>0</asrwt>
<pdfrwt beam="1">  1       21 0.14197734E+00 0.21330794E+03</pdfrwt>
<pdfrwt beam="2">  1       21 0.88581172E-02 0.21330794E+03</pdfrwt>
<totfact> 0.34239321E+04</totfact>
</mgrwt>
</event>
<event>
 4    2  0.3944631E+000  0.2718268E+03  0.7546771E-02  0.1100239E+00
         21   -1    0    0  503  502  0.00000000000E+00  0.00000000000E+00  0.10789201317E+04  0.10789201317E+04  0.00000000000E+00 0.  1.
         21   -1    0    0  501  503 -0.00000000000E+00 -0.00000000000E+00 -0.89387608286E+02  0.89387608286E+02  0.00000000000E+00 0.  1.
          6    1    1    2  501    0  0.18384309951E+03 -0.10080936256E+03  0.21228531984E+03  0.34489834711E+03  0.17300000000E+03 0.  1.
         -6    1    1    2    0  502 -0.18384309951E+03  0.10080936256E+03  0.77724720357E+03  0.82340939288E+03  0.17300000000E+03 0.  1.
<mgrwt>
<rscale>  2 0.27182681E+03</rscale>
<asrwt>0</asrwt>
<pdfrwt beam="1">  1       21 0.16598770E+00 0.27182681E+03</pdfrwt>
<pdfrwt beam="2">  1       21 0.13751940E-01 0.27182681E+03</pdfrwt>
<totfact> 0.99192301E+03</totfact>
</mgrwt>
</event>
<event>
 4    2  0.3944631E+000  0.2195379E+03  0.7546771E-02  0.1134228E+00
         21   -1    0    0  503  502  0.00000000000E+00  0.00000000000E+00  0.64239153452E+02  0.64239153452E+02  0.00000000000E+00 0.  1.
         21   -1    0    0  501  503 -0.00000000000E+00 -0.00000000000E+00 -0.10179844442E+04  0.10179844442E+04  0.00000000000E+00 0.  1.
          6    1    1    2  501    0  0.30909737914E+02 -0.13157687228E+03 -0.75436442237E+03  0.78566059272E+03  0.17300000000E+03 0.  1.
         -6    1    1    2    0  502 -0.30909737914E+02  0.13157687228E+03 -0.19938086837E+03  0.29656300492E+03  0.17300000000E+03 0.  1.
<mgrwt>
<rscale>  2 0.21953789E+03</rscale>
<asrwt>0</asrwt>
<pdfrwt beam="1">  1       21 0.98829470E-02 0.21953789E+03</pdfrwt>
<pdfrwt beam="2">  1       21 0.15661299E+00 0.21953789E+03</pdfrwt>
<totfact> 0.21702653E+04</totfact>
</mgrwt>
</event>
<event>
 4    2  0.3944631E+000  0.1966832E+03  0.7546771E-02  0.1152568E+00
         21   -1    0    0  503  502  0.00000000000E+00  0.00000000000E+00  0.16013155306E+03  0.16013155306E+03  0.00000000000E+00 0. -1.
         21   -1    0    0  501  503 -0.00000000000E+00 -0.00000000000E+00 -0.43301116034E+03  0.43301116034E+03  0.00000000000E+00 0. -1.
          6    1    1    2  501    0 -0.28565513169E+02 -0.89102618551E+02 -0.33363131205E+03  0.38729074035E+03  0.17300000000E+03 0. -1.
         -6    1    1    2    0  502  0.28565513169E+02  0.89102618551E+02  0.60751704776E+02  0.20585197305E+03  0.17300000000E+03 0. -1.
<mgrwt>
<rscale>  2 0.19668316E+03</rscale>
<asrwt>0</asrwt>
<pdfrwt beam="1">  1       21 0.24635624E-01 0.19668316E+03</pdfrwt>
<pdfrwt beam="2">  1       21 0.66617101E-01 0.19668316E+03</pdfrwt>
<totfact> 0.32107981E+04</totfact>
</mgrwt>
</event>
<event>
 4    2  0.3944631E+000  0.1755031E+03  0.7546771E-02  0.1172228E+00
         21   -1    0    0  501  502  0.00000000000E+00  0.00000000000E+00  0.12222841713E+03  0.12222841713E+03  0.00000000000E+00 0.  1.
         21   -1    0    0  502  503 -0.00000000000E+00 -0.00000000000E+00 -0.52869857971E+03  0.52869857971E+03  0.00000000000E+00 0.  1.
          6    1    1    2  501    0 -0.27003177271E+02  0.11964801645E+02  0.32217349178E+02  0.17843566249E+03  0.17300000000E+03 0.  1.
         -6    1    1    2    0  503  0.27003177271E+02 -0.11964801645E+02 -0.43868751175E+03  0.47249133434E+03  0.17300000000E+03 0.  1.
<mgrwt>
<rscale>  2 0.17550307E+03</rscale>
<asrwt>0</asrwt>
<pdfrwt beam="1">  1       21 0.18804372E-01 0.17550307E+03</pdfrwt>
<pdfrwt beam="2">  1       21 0.81338244E-01 0.17550307E+03</pdfrwt>
<totfact> 0.34615539E+04</totfact>
</mgrwt>
</event>
<event>
 4    2  0.3944631E+000  0.1758421E+03  0.7546771E-02  0.1171889E+00
         21   -1    0    0  501  502  0.00000000000E+00  0.00000000000E+00  0.89219273466E+03  0.89219273466E+03  0.00000000000E+00 0.  1.
         21   -1    0    0  502  503 -0.00000000000E+00 -0.00000000000E+00 -0.58535183761E+02  0.58535183761E+02  0.00000000000E+00 0.  1.
          6    1    1    2  501    0  0.31146676441E+02 -0.46194693684E+01  0.72044231996E+03  0.74159125624E+03  0.17300000000E+03 0.  1.
         -6    1    1    2    0  503 -0.31146676441E+02  0.46194693684E+01  0.11321523095E+03  0.20913666218E+03  0.17300000000E+03 0.  1.
<mgrwt>
<rscale>  2 0.17584213E+03</rscale>
<asrwt>0</asrwt>
<pdfrwt beam="1">  1       21 0.13726041E+00 0.17584213E+03</pdfrwt>
<pdfrwt beam="2">  1       21 0.90054135E-02 0.17584213E+03</pdfrwt>
<totfact> 0.37104760E+04</totfact>
</mgrwt>
</event>
<event>
 4    2  0.3944631E+000  0.1963144E+03  0.7546771E-02  0.1152886E+00
         21   -1    0    0  501  502  0.00000000000E+00  0.00000000000E+00  0.63470157820E+02  0.63470157820E+02  0.00000000000E+00 0. -1.
         21   -1    0    0  502  503 -0.00000000000E+00 -0.00000000000E+00 -0.73475464621E+03  0.73475464621E+03  0.00000000000E+00 0. -1.
          6    1    1    2  501    0 -0.50492873806E+01  0.92654545741E+02 -0.50193168587E+03  0.53895712021E+03  0.17300000000E+03 0. -1.
         -6    1    1    2    0  503  0.50492873806E+01 -0.92654545741E+02 -0.16935280252E+03  0.25926768381E+03  0.17300000000E+03 0. -1.
<mgrwt>
<rscale>  2 0.19631444E+03</rscale>
<asrwt>0</asrwt>
<pdfrwt beam="1">  1       21 0.97646396E-02 0.19631444E+03</pdfrwt>
<pdfrwt beam="2">  1       21 0.11303918E+00 0.19631444E+03</pdfrwt>
<totfact> 0.51638500E+04</totfact>
</mgrwt>
</event>
<event>
 4    2  0.3944631E+000  0.1898369E+03  0.7546771E-02  0.1158609E+00
         21   -1    0    0  501  502  0.00000000000E+00  0.00000000000E+00  0.61860133184E+03  0.61860133184E+03  0.00000000000E+00 0. -1.
         21   -1    0    0  502  503 -0.00000000000E+00 -0.00000000000E+00 -0.10312112184E+03  0.10312112184E+03  0.00000000000E+00 0. -1.
          6    1    1    2  501    0 -0.77283118326E+02 -0.11677233812E+02  0.49576072446E+03  0.53086413900E+03  0.17300000000E+03 0.  1.
         -6    1    1    2    0  503  0.77283118326E+02  0.11677233812E+02  0.19719485545E+02  0.19085831467E+03  0.17300000000E+03 0.  1.
<mgrwt>
<rscale>  2 0.18983687E+03</rscale>
<asrwt>0</asrwt>
<pdfrwt beam="1">  1       21 0.95169434E-01 0.18983687E+03</pdfrwt>
<pdfrwt beam="2">  1       21 0.15864788E-01 0.18983687E+03</pdfrwt>
<totfact> 0.32719866E+04</totfact>
</mgrwt>
</event>
<event>
 4    2  0.3944631E+000  0.2047740E+03  0.7546771E-02  0.1145773E+00
         21   -1    0    0  503  502  0.00000000000E+00  0.00000000000E+00  0.13372211576E+04  0.13372211576E+04  0.00000000000E+00 0. -1.
         21   -1    0    0  501  503 -0.00000000000E+00 -0.00000000000E+00 -0.13293477613E+03  0.13293477613E+03  0.00000000000E+00 0. -1.
          6    1    1    2  501    0  0.52187956042E+02 -0.96331843282E+02 -0.40413710340E+02  0.20872391997E+03  0.17300000000E+03 0. -1.
         -6    1    1    2    0  502 -0.52187956042E+02  0.96331843282E+02  0.12447000918E+04  0.12614320138E+04  0.17300000000E+03 0. -1.
<mgrwt>
<rscale>  2 0.20477404E+03</rscale>
<asrwt>0</asrwt>
<pdfrwt beam="1">  1       21 0.20572632E+00 0.20477404E+03</pdfrwt>
<pdfrwt beam="2">  1       21 0.20451505E-01 0.20477404E+03</pdfrwt>
<totfact> 0.27002675E+03</totfact>
</mgrwt>
</event>
<event>
 4    2  0.3944631E+000  0.1841338E+03  0.7546771E-02  0.1163861E+00
         21   -1    0    0  503  502  0.00000000000E+00  0.00000000000E+00  0.23362417604E+03  0.23362417604E+03  0.00000000000E+00 0. -1.
         21   -1    0    0  501  503 -0.00000000000E+00 -0.00000000000E+00 -0.82174699577E+03  0.82174699577E+03  0.00000000000E+00 0. -1.
          6    1    1    2  501    0 -0.58660065826E+02 -0.23135360935E+02 -0.77288824665E+03  0.79451965996E+03  0.17300000000E+03 0. -1.
         -6    1    1    2    0  502  0.58660065826E+02  0.23135360935E+02  0.18476542693E+03  0.26085151185E+03  0.17300000000E+03 0. -1.
<mgrwt>
<rscale>  2 0.18413378E+03</rscale>
<asrwt>0</asrwt>
<pdfrwt beam="1">  1       21 0.35942181E-01 0.18413378E+03</pdfrwt>
<pdfrwt beam="2">  1       21 0.12642261E+00 0.18413378E+03</pdfrwt>
<totfact> 0.34870334E+03</totfact>
</mgrwt>
</event>
<event>
 4    2  0.3944631E+000  0.1843295E+03  0.7546771E-02  0.1163678E+00
         21   -1    0    0  501  502  0.00000000000E+00  0.00000000000E+00  0.12391743735E+03  0.12391743735E+03  0.00000000000E+00 0.  1.
         21   -1    0    0  502  503 -0.00000000000E+00 -0.00000000000E+00 -0.32855210375E+03  0.32855210375E+03  0.00000000000E+00 0.  1.
          6    1    1    2  501    0 -0.26975127389E+02  0.57625502683E+02 -0.10295396892E+02  0.18461676862E+03  0.17300000000E+03 0.  1.
         -6    1    1    2    0  503  0.26975127389E+02 -0.57625502683E+02 -0.19433926951E+03  0.26785277249E+03  0.17300000000E+03 0.  1.
<mgrwt>
<rscale>  2 0.18432948E+03</rscale>
<asrwt>0</asrwt>
<pdfrwt beam="1">  1       21 0.19064221E-01 0.18432948E+03</pdfrwt>
<pdfrwt beam="2">  1       21 0.50546478E-01 0.18432948E+03</pdfrwt>
<totfact> 0.94317697E+04</totfact>
</mgrwt>
</event>
<event>
 4    2  0.3944631E+000  0.1773783E+03  0.7546771E-02  0.1170365E+00
         21   -1    0    0  501  502  0.00000000000E+00  0.00000000000E+00  0.79561366144E+02  0.79561366144E+02  0.00000000000E+00 0.  1.
         21   -1    0    0  502  503 -0.00000000000E+00 -0.00000000000E+00 -0.42398864868E+03  0.42398864868E+03  0.00000000000E+00 0.  1.
          6    1    1    2  501    0 -0.95572107240E+01 -0.37983072863E+02 -0.10690009755E+03  0.20710066383E+03  0.17300000000E+03 0.  1.
         -6    1    1    2    0  503  0.95572107240E+01  0.37983072863E+02 -0.23752718499E+03  0.29644935100E+03  0.17300000000E+03 0.  1.
<mgrwt>
<rscale>  2 0.17737828E+03</rscale>
<asrwt>0</asrwt>
<pdfrwt beam="1">  1       21 0.12240211E-01 0.17737828E+03</pdfrwt>
<pdfrwt beam="2">  1       21 0.65229021E-01 0.17737828E+03</pdfrwt>
<totfact> 0.12317211E+05</totfact>
</mgrwt>
</event>
<event>
 4    2  0.3944631E+000  0.1892125E+03  0.7546771E-02  0.1159174E+00
         21   -1    0    0  501  502  0.00000000000E+00  0.00000000000E+00  0.90836379436E+02  0.90836379436E+02  0.00000000000E+00 0. -1.
         21   -1    0    0  502  503 -0.00000000000E+00 -0.00000000000E+00 -0.40715056201E+03  0.40715056201E+03  0.00000000000E+00 0. -1.
          6    1    1    2  501    0 -0.17487951542E+02  0.74609145172E+02 -0.11363010230E+03  0.22071056418E+03  0.17300000000E+03 0. -1.
         -6    1    1    2    0  503  0.17487951542E+02 -0.74609145172E+02 -0.20268408028E+03  0.27727637727E+03  0.17300000000E+03 0. -1.
<mgrwt>
<rscale>  2 0.18921245E+03</rscale>
<asrwt>0</asrwt>
<pdfrwt beam="1">  1       21 0.13974828E-01 0.18921245E+03</pdfrwt>
<pdfrwt beam="2">  1       21 0.62638548E-01 0.18921245E+03</pdfrwt>
<totfact> 0.10549175E+05</totfact>
</mgrwt>
</event>
<event>
 4    2  0.3944631E+000  0.3008946E+03  0.7546771E-02  0.1084794E+00
         21   -1    0    0  503  502  0.00000000000E+00  0.00000000000E+00  0.23616186255E+03  0.23616186255E+03  0.00000000000E+00 0.  1.
         21   -1    0    0  501  503 -0.00000000000E+00 -0.00000000000E+00 -0.39598946914E+03  0.39598946914E+03  0.00000000000E+00 0. -1.
          6    1    1    2  501    0 -0.12241939802E+03  0.21359319670E+03 -0.13633677846E+03  0.33034115676E+03  0.17300000000E+03 0. -1.
         -6    1    1    2    0  502  0.12241939802E+03 -0.21359319670E+03 -0.23490828131E+02  0.30181017494E+03  0.17300000000E+03 0.  1.
<mgrwt>
<rscale>  2 0.30089460E+03</rscale>
<asrwt>0</asrwt>
<pdfrwt beam="1">  1       21 0.36332594E-01 0.30089460E+03</pdfrwt>
<pdfrwt beam="2">  1       21 0.60921457E-01 0.30089460E+03</pdfrwt>
<totfact> 0.17341566E+04</totfact>
</mgrwt>
</event>
<event>
 4    2  0.3944631E+000  0.1939293E+03  0.7546771E-02  0.1154964E+00
         21   -1    0    0  503  502  0.00000000000E+00  0.00000000000E+00  0.58193087297E+02  0.58193087297E+02  0.00000000000E+00 0.  1.
         21   -1    0    0  501  503 -0.00000000000E+00 -0.00000000000E+00 -0.73891729930E+03  0.73891729930E+03  0.00000000000E+00 0. -1.
          6    1    1    2  501    0  0.52559308878E+02 -0.70121976891E+02 -0.48148642521E+03  0.51907393525E+03  0.17300000000E+03 0. -1.
         -6    1    1    2    0  502 -0.52559308878E+02  0.70121976891E+02 -0.19923778680E+03  0.27803645135E+03  0.17300000000E+03 0.  1.
<mgrwt>
<rscale>  2 0.19392930E+03</rscale>
<asrwt>0</asrwt>
<pdfrwt beam="1">  1       21 0.89527827E-02 0.19392930E+03</pdfrwt>
<pdfrwt beam="2">  1       21 0.11367958E+00 0.19392930E+03</pdfrwt>
<totfact> 0.59411795E+04</totfact>
</mgrwt>
</event>
<event>
 4    2  0.3944631E+000  0.3615426E+03  0.7546771E-02  0.1057975E+00
         21   -1    0    0  503  502  0.00000000000E+00  0.00000000000E+00  0.39012855113E+03  0.39012855113E+03  0.00000000000E+00 0.  1.
         21   -1    0    0  501  503 -0.00000000000E+00 -0.00000000000E+00 -0.59015426864E+03  0.59015426864E+03  0.00000000000E+00 0. -1.
          6    1    1    2  501    0 -0.16957413827E+03  0.26838150161E+03 -0.42226551460E+03  0.55589673825E+03  0.17300000000E+03 0. -1.
         -6    1    1    2    0  502  0.16957413827E+03 -0.26838150161E+03  0.22223979709E+03  0.42438608152E+03  0.17300000000E+03 0.  1.
<mgrwt>
<rscale>  2 0.36154255E+03</rscale>
<asrwt>0</asrwt>
<pdfrwt beam="1">  1       21 0.60019778E-01 0.36154255E+03</pdfrwt>
<pdfrwt beam="2">  1       21 0.90792963E-01 0.36154255E+03</pdfrwt>
<totfact> 0.23933068E+03</totfact>
</mgrwt>
</event>
<event>
 4    2  0.3944631E+000  0.2151490E+03  0.7546771E-02  0.1137552E+00
         21   -1    0    0  501  502  0.00000000000E+00  0.00000000000E+00  0.11250038305E+04  0.11250038305E+04  0.00000000000E+00 0. -1.
         21   -1    0    0  502  503 -0.00000000000E+00 -0.00000000000E+00 -0.41241928668E+02  0.41241928668E+02  0.00000000000E+00 0. -1.
          6    1    1    2  501    0  0.12769214581E+03  0.74040528886E+01  0.57004367393E+03  0.60929376682E+03  0.17300000000E+03 0. -1.
         -6    1    1    2    0  503 -0.12769214581E+03 -0.74040528886E+01  0.51371822792E+03  0.55695199237E+03  0.17300000000E+03 0. -1.
<mgrwt>
<rscale>  2 0.21514903E+03</rscale>
<asrwt>0</asrwt>
<pdfrwt beam="1">  1       21 0.17307749E+00 0.21514903E+03</pdfrwt>
<pdfrwt beam="2">  1       21 0.63449130E-02 0.21514903E+03</pdfrwt>
<totfact> 0.35871037E+04</totfact>
</mgrwt>
</event>
<event>
 4    2  0.3944631E+000  0.1780261E+03  0.7546771E-02  0.1169727E+00
         21   -1    0    0  501  502  0.00000000000E+00  0.00000000000E+00  0.89461355536E+02  0.89461355536E+02  0.00000000000E+00 0.  1.
         21   -1    0    0  502  503 -0.00000000000E+00 -0.00000000000E+00 -0.36497259414E+03  0.36497259414E+03  0.00000000000E+00 0.  1.
          6    1    1    2  501    0 -0.23870923630E+02  0.34560911697E+02 -0.98842163078E+02  0.20362477947E+03  0.17300000000E+03 0.  1.
         -6    1    1    2    0  503  0.23870923630E+02 -0.34560911697E+02 -0.17666907552E+03  0.25080917020E+03  0.17300000000E+03 0.  1.
<mgrwt>
<rscale>  2 0.17802606E+03</rscale>
<asrwt>0</asrwt>
<pdfrwt beam="1">  1       21 0.13763285E-01 0.17802606E+03</pdfrwt>
<pdfrwt beam="2">  1       21 0.56149630E-01 0.17802606E+03</pdfrwt>
<totfact> 0.13758733E+05</totfact>
</mgrwt>
</event>
<event>
 4    2  0.3944631E+000  0.1911489E+03  0.7546771E-02  0.1157429E+00
         21   -1    0    0  503  502  0.00000000000E+00  0.00000000000E+00  0.10292143029E+03  0.10292143029E+03  0.00000000000E+00 0. -1.
         21   -1    0    0  501  503 -0.00000000000E+00 -0.00000000000E+00 -0.35654652434E+03  0.35654652434E+03  0.00000000000E+00 0. -1.
          6    1    1    2  501    0  0.78812614597E+02  0.19937113066E+02 -0.14190427953E+03  0.23806457369E+03  0.17300000000E+03 0. -1.
         -6    1    1    2    0  502 -0.78812614597E+02 -0.19937113066E+02 -0.11172081451E+03  0.22140338094E+03  0.17300000000E+03 0. -1.
<mgrwt>
<rscale>  2 0.19114894E+03</rscale>
<asrwt>0</asrwt>
<pdfrwt beam="1">  1       21 0.15834066E-01 0.19114894E+03</pdfrwt>
<pdfrwt beam="2">  1       21 0.54853311E-01 0.19114894E+03</pdfrwt>
<totfact> 0.11154825E+05</totfact>
</mgrwt>
</event>
<event>
 4    2  0.3944631E+000  0.1880337E+03  0.7546771E-02  0.1160247E+00
         21   -1    0    0  503  502  0.00000000000E+00  0.00000000000E+00  0.53531160573E+03  0.53531160573E+03  0.00000000000E+00 0.  1.
         21   -1    0    0  501  503 -0.00000000000E+00 -0.00000000000E+00 -0.75269367101E+02  0.75269367101E+02  0.00000000000E+00 0.  1.
          6    1    1    2  501    0  0.36557963399E+02  0.63962271287E+02  0.12316869547E+03  0.22478252686E+03  0.17300000000E+03 0.  1.
         -6    1    1    2    0  502 -0.36557963399E+02 -0.63962271287E+02  0.33687354315E+03  0.38579844597E+03  0.17300000000E+03 0.  1.
<mgrwt>
<rscale>  2 0.18803366E+03</rscale>
<asrwt>0</asrwt>
<pdfrwt beam="1">  1       21 0.82355629E-01 0.18803366E+03</pdfrwt>
<pdfrwt beam="2">  1       21 0.11579903E-01 0.18803366E+03</pdfrwt>
<totfact> 0.80696478E+04</totfact>
</mgrwt>
</event>
<event>
 4    2  0.3944631E+000  0.2129118E+03  0.7546771E-02  0.1139281E+00
         21   -1    0    0  503  502  0.00000000000E+00  0.00000000000E+00  0.19278935445E+03  0.19278935445E+03  0.00000000000E+00 0.  1.
         21   -1    0    0  501  503 -0.00000000000E+00 -0.00000000000E+00 -0.41958594756E+03  0.41958594756E+03  0.00000000000E+00 0.  1.
          6    1    1    2  501    0  0.69778557972E+02 -0.10263238506E+03 -0.31640860170E+03  0.38137364466E+03  0.17300000000E+03 0.  1.
         -6    1    1    2    0  502 -0.69778557972E+02  0.10263238506E+03  0.89612008585E+02  0.23100165735E+03  0.17300000000E+03 0.  1.
<mgrwt>
<rscale>  2 0.21291184E+03</rscale>
<asrwt>0</asrwt>
<pdfrwt beam="1">  1       21 0.29659901E-01 0.21291184E+03</pdfrwt>
<pdfrwt beam="2">  1       21 0.64551684E-01 0.21291184E+03</pdfrwt>
<totfact> 0.23828777E+04</totfact>
</mgrwt>
</event>
<event>
 4    2  0.3944631E+000  0.2744267E+03  0.7546771E-02  0.1098772E+00
         21   -1    0    0  501  502  0.00000000000E+00  0.00000000000E+00  0.13717708597E+04  0.13717708597E+04  0.00000000000E+00 0.  1.
         21   -1    0    0  502  503 -0.00000000000E+00 -0.00000000000E+00 -0.75056846605E+02  0.75056846605E+02  0.00000000000E+00 0.  1.
          6    1    1    2  501    0 -0.13963051694E+03  0.16088614758E+03  0.10232474965E+04  0.10594080767E+04  0.17300000000E+03 0.  1.
         -6    1    1    2    0  503  0.13963051694E+03 -0.16088614758E+03  0.27346651654E+03  0.38741962962E+03  0.17300000000E+03 0.  1.
<mgrwt>
<rscale>  2 0.27442674E+03</rscale>
<asrwt>0</asrwt>
<pdfrwt beam="1">  1       21 0.21104165E+00 0.27442674E+03</pdfrwt>
<pdfrwt beam="2">  1       21 0.11547208E-01 0.27442674E+03</pdfrwt>
<totfact> 0.67434970E+03</totfact>
</mgrwt>
</event>
<event>
 4    2  0.3944631E+000  0.2134115E+03  0.7546771E-02  0.1138893E+00
         21   -1    0    0  503  502  0.00000000000E+00  0.00000000000E+00  0.10710046467E+04  0.10710046467E+04  0.00000000000E+00 0. -1.
         21   -1    0    0  501  503 -0.00000000000E+00 -0.00000000000E+00 -0.52919842556E+02  0.52919842556E+02  0.00000000000E+00 0. -1.
          6    1    1    2  501    0  0.49897846144E+02  0.11456737282E+03  0.25998083285E+03  0.33635474044E+03  0.17300000000E+03 0. -1.
         -6    1    1    2    0  502 -0.49897846144E+02 -0.11456737282E+03  0.75810397129E+03  0.78756974881E+03  0.17300000000E+03 0. -1.
<mgrwt>
<rscale>  2 0.21341152E+03</rscale>
<asrwt>0</asrwt>
<pdfrwt beam="1">  1       21 0.16476993E+00 0.21341152E+03</pdfrwt>
<pdfrwt beam="2">  1       21 0.81415150E-02 0.21341152E+03</pdfrwt>
<totfact> 0.26690825E+04</totfact>
</mgrwt>
</event>
<event>
 4    2  0.3944631E+000  0.1863229E+03  0.7546771E-02  0.1161820E+00
         21   -1    0    0  503  502  0.00000000000E+00  0.00000000000E+00  0.73585910750E+02  0.73585910750E+02  0.00000000000E+00 0.  1.
         21   -1    0    0  501  503 -0.00000000000E+00 -0.00000000000E+00 -0.15385331635E+04  0.15385331635E+04  0.00000000000E+00 0.  1.
          6    1    1    2  501    0 -0.29561750375E+02  0.62556560129E+02 -0.14036645093E+04  0.14159767919E+04  0.17300000000E+03 0.  1.
         -6    1    1    2    0  502  0.29561750375E+02 -0.62556560129E+02 -0.61282743403E+02  0.19614228239E+03  0.17300000000E+03 0.  1.
<mgrwt>
<rscale>  2 0.18632289E+03</rscale>
<asrwt>0</asrwt>
<pdfrwt beam="1">  1       21 0.11320910E-01 0.18632289E+03</pdfrwt>
<pdfrwt beam="2">  1       21 0.23669739E+00 0.18632289E+03</pdfrwt>
<totfact> 0.52243519E+03</totfact>
</mgrwt>
</event>
<event>
 4    2  0.3944631E+000  0.1892383E+03  0.7546771E-02  0.1159150E+00
         21   -1    0    0  503  502  0.00000000000E+00  0.00000000000E+00  0.72016116711E+03  0.72016116711E+03  0.00000000000E+00 0. -1.
         21   -1    0    0  501  503 -0.00000000000E+00 -0.00000000000E+00 -0.50990506154E+02  0.50990506154E+02  0.00000000000E+00 0. -1.
          6    1    1    2  501    0  0.75286338222E+02  0.14631973607E+02  0.39529136250E+03  0.43825379479E+03  0.17300000000E+03 0. -1.
         -6    1    1    2    0  502 -0.75286338222E+02 -0.14631973607E+02  0.27387929845E+03  0.33289787848E+03  0.17300000000E+03 0. -1.
<mgrwt>
<rscale>  2 0.18923828E+03</rscale>
<asrwt>0</asrwt>
<pdfrwt beam="1">  1       21 0.11079402E+00 0.18923828E+03</pdfrwt>
<pdfrwt beam="2">  1       21 0.78446938E-02 0.18923828E+03</pdfrwt>
<totfact> 0.79816146E+04</totfact>
</mgrwt>
</event>
<event>
 4    2  0.3944631E+000  0.2231250E+03  0.7546771E-02  0.1131574E+00
         21   -1    0    0  503  502  0.00000000000E+00  0.00000000000E+00  0.10073483834E+03  0.10073483834E+03  0.00000000000E+00 0. -1.
         21   -1    0    0  501  503 -0.00000000000E+00 -0.00000000000E+00 -0.63007925252E+03  0.63007925252E+03  0.00000000000E+00 0. -1.
          6    1    1    2  501    0 -0.12395628985E+03  0.67012033604E+02 -0.43435204566E+03  0.48830981355E+03  0.17300000000E+03 0. -1.
         -6    1    1    2    0  502  0.12395628985E+03 -0.67012033604E+02 -0.94992368527E+02  0.24250427732E+03  0.17300000000E+03 0. -1.
<mgrwt>
<rscale>  2 0.22312502E+03</rscale>
<asrwt>0</asrwt>
<pdfrwt beam="1">  1       21 0.15497668E-01 0.22312502E+03</pdfrwt>
<pdfrwt beam="2">  1       21 0.96935267E-01 0.22312502E+03</pdfrwt>
<totfact> 0.32121599E+04</totfact>
</mgrwt>
</event>
<event>
 4    2  0.3944631E+000  0.2213885E+03  0.7546771E-02  0.1132852E+00
         21   -1    0    0  503  502  0.00000000000E+00  0.00000000000E+00  0.82470296861E+03  0.82470296861E+03  0.00000000000E+00 0.  1.
         21   -1    0    0  501  503 -0.00000000000E+00 -0.00000000000E+00 -0.59539545437E+02  0.59539545437E+02  0.00000000000E+00 0.  1.
          6    1    1    2  501    0 -0.11743418029E+03 -0.72753480296E+02  0.36369720020E+03  0.42577988331E+03  0.17300000000E+03 0.  1.
         -6    1    1    2    0  502  0.11743418029E+03  0.72753480296E+02  0.40146622298E+03  0.45846263074E+03  0.17300000000E+03 0.  1.
<mgrwt>
<rscale>  2 0.22138847E+03</rscale>
<asrwt>0</asrwt>
<pdfrwt beam="1">  1       21 0.12687737E+00 0.22138847E+03</pdfrwt>
<pdfrwt beam="2">  1       21 0.91599307E-02 0.22138847E+03</pdfrwt>
<totfact> 0.42852436E+04</totfact>
</mgrwt>
</event>
<event>
 4    2  0.3944631E+000  0.2261012E+03  0.7546771E-02  0.1129414E+00
         21   -1    0    0  501  502  0.00000000000E+00  0.00000000000E+00  0.46216194966E+03  0.46216194966E+03  0.00000000000E+00 0.  1.
         21   -1    0    0  502  503 -0.00000000000E+00 -0.00000000000E+00 -0.11664556093E+03  0.11664556093E+03  0.00000000000E+00 0.  1.
          6    1    1    2  501    0 -0.10597730952E+03  0.99807717627E+02  0.23856490930E+03  0.32868676058E+03  0.17300000000E+03 0.  1.
         -6    1    1    2    0  503  0.10597730952E+03 -0.99807717627E+02  0.10695147943E+03  0.25012075000E+03  0.17300000000E+03 0.  1.
<mgrwt>
<rscale>  2 0.22610124E+03</rscale>
<asrwt>0</asrwt>
<pdfrwt beam="1">  1       21 0.71101838E-01 0.22610124E+03</pdfrwt>
<pdfrwt beam="2">  1       21 0.17945471E-01 0.22610124E+03</pdfrwt>
<totfact> 0.49743356E+04</totfact>
</mgrwt>
</event>
<event>
 4    2  0.3944631E+000  0.1954075E+03  0.7546771E-02  0.1153673E+00
         21   -1    0    0  501  502  0.00000000000E+00  0.00000000000E+00  0.25477578972E+03  0.25477578972E+03  0.00000000000E+00 0.  1.
         21   -1    0    0  502  503 -0.00000000000E+00 -0.00000000000E+00 -0.14987360116E+03  0.14987360116E+03  0.00000000000E+00 0. -1.
          6    1    1    2  501    0  0.69891632396E+02  0.58053746892E+02  0.52756994979E+02  0.20240399780E+03  0.17300000000E+03 0. -1.
         -6    1    1    2    0  503 -0.69891632396E+02 -0.58053746892E+02  0.52145193590E+02  0.20224539308E+03  0.17300000000E+03 0.  1.
<mgrwt>
<rscale>  2 0.19540747E+03</rscale>
<asrwt>0</asrwt>
<pdfrwt beam="1">  1       21 0.39196275E-01 0.19540747E+03</pdfrwt>
<pdfrwt beam="2">  1       21 0.23057477E-01 0.19540747E+03</pdfrwt>
<totfact> 0.11073767E+05</totfact>
</mgrwt>
</event>
<event>
 4    2  0.3944631E+000  0.1843929E+03  0.7546771E-02  0.1163618E+00
         21   -1    0    0  503  502  0.00000000000E+00  0.00000000000E+00  0.19296142861E+03  0.19296142861E+03  0.00000000000E+00 0. -1.
         21   -1    0    0  501  503 -0.00000000000E+00 -0.00000000000E+00 -0.20920453425E+03  0.20920453425E+03  0.00000000000E+00 0. -1.
          6    1    1    2  501    0 -0.51875358002E+02 -0.37157521987E+02 -0.87984410242E+02  0.20430856725E+03  0.17300000000E+03 0. -1.
         -6    1    1    2    0  502  0.51875358002E+02  0.37157521987E+02  0.71741304606E+02  0.19785739560E+03  0.17300000000E+03 0. -1.
<mgrwt>
<rscale>  2 0.18439288E+03</rscale>
<asrwt>0</asrwt>
<pdfrwt beam="1">  1       21 0.29686374E-01 0.18439288E+03</pdfrwt>
<pdfrwt beam="2">  1       21 0.32185313E-01 0.18439288E+03</pdfrwt>
<totfact> 0.10131440E+05</totfact>
</mgrwt>
</event>
<event>
 4    2  0.3944631E+000  0.1733483E+03  0.7546771E-02  0.1174400E+00
         21   -1    0    0  501  502  0.00000000000E+00  0.00000000000E+00  0.21805546553E+03  0.21805546553E+03  0.00000000000E+00 0.  1.
         21   -1    0    0  502  503 -0.00000000000E+00 -0.00000000000E+00 -0.23773941252E+03  0.23773941252E+03  0.00000000000E+00 0.  1.
          6    1    1    2  501    0 -0.66414465069E+00  0.10963886834E+02  0.13791271049E+03  0.22151650868E+03  0.17300000000E+03 0.  1.
         -6    1    1    2    0  503  0.66414465069E+00 -0.10963886834E+02 -0.15759665749E+03  0.23427836937E+03  0.17300000000E+03 0.  1.
<mgrwt>
<rscale>  2 0.17334834E+03</rscale>
<asrwt>0</asrwt>
<pdfrwt beam="1">  1       21 0.33546995E-01 0.17334834E+03</pdfrwt>
<pdfrwt beam="2">  1       21 0.36575294E-01 0.17334834E+03</pdfrwt>
<totfact> 0.62233572E+04</totfact>
</mgrwt>
</event>
<event>
 4    2  0.3944631E+000  0.1942422E+03  0.7546771E-02  0.1154690E+00
         21   -1    0    0  503  502  0.00000000000E+00  0.00000000000E+00  0.17372853450E+03  0.17372853450E+03  0.00000000000E+00 0.  1.
         21   -1    0    0  501  503 -0.00000000000E+00 -0.00000000000E+00 -0.24396995486E+03  0.24396995486E+03  0.00000000000E+00 0.  1.
          6    1    1    2  501    0  0.30461388110E+02  0.82904356745E+02 -0.10433030985E+03  0.22048773682E+03  0.17300000000E+03 0.  1.
         -6    1    1    2    0  502 -0.30461388110E+02 -0.82904356745E+02  0.34088889494E+02  0.19721075255E+03  0.17300000000E+03 0.  1.
<mgrwt>
<rscale>  2 0.19424219E+03</rscale>
<asrwt>0</asrwt>
<pdfrwt beam="1">  1       21 0.26727467E-01 0.19424219E+03</pdfrwt>
<pdfrwt beam="2">  1       21 0.37533839E-01 0.19424219E+03</pdfrwt>
<totfact> 0.91179218E+04</totfact>
</mgrwt>
</event>
<event>
 4    2  0.3944631E+000  0.1804267E+03  0.7546771E-02  0.1167391E+00
         21   -1    0    0  503  502  0.00000000000E+00  0.00000000000E+00  0.73323437789E+02  0.73323437789E+02  0.00000000000E+00 0.  1.
         21   -1    0    0  501  503 -0.00000000000E+00 -0.00000000000E+00 -0.46629876823E+03  0.46629876823E+03  0.00000000000E+00 0.  1.
          6    1    1    2  501    0  0.33127157502E+02 -0.39081796753E+02 -0.25552252046E+03  0.31280273954E+03  0.17300000000E+03 0.  1.
         -6    1    1    2    0  502 -0.33127157502E+02  0.39081796753E+02 -0.13745280998E+03  0.22681946647E+03  0.17300000000E+03 0.  1.
<mgrwt>
<rscale>  2 0.18042670E+03</rscale>
<asrwt>0</asrwt>
<pdfrwt beam="1">  1       21 0.11280529E-01 0.18042670E+03</pdfrwt>
<pdfrwt beam="2">  1       21 0.71738270E-01 0.18042670E+03</pdfrwt>
<totfact> 0.11553614E+05</totfact>
</mgrwt>
</event>
<event>
 4    2  0.3944631E+000  0.1924109E+03  0.7546771E-02  0.1156305E+00
         21   -1    0    0  503  502  0.00000000000E+00  0.00000000000E+00  0.25990585119E+03  0.25990585119E+03  0.00000000000E+00 0. -1.
         21   -1    0    0  501  503 -0.00000000000E+00 -0.00000000000E+00 -0.15121818042E+03  0.15121818042E+03  0.00000000000E+00 0. -1.
          6    1    1    2  501    0 -0.78903564620E+02 -0.29447727605E+02  0.48270419512E+01  0.19247140438E+03  0.17300000000E+03 0. -1.
         -6    1    1    2    0  502  0.78903564620E+02  0.29447727605E+02  0.10386062882E+03  0.21865262722E+03  0.17300000000E+03 0. -1.
<mgrwt>
<rscale>  2 0.19241087E+03</rscale>
<asrwt>0</asrwt>
<pdfrwt beam="1">  1       21 0.39985515E-01 0.19241087E+03</pdfrwt>
<pdfrwt beam="2">  1       21 0.23264335E-01 0.19241087E+03</pdfrwt>
<totfact> 0.10471134E+05</totfact>
</mgrwt>
</event>
<event>
 4    2  0.3944631E+000  0.1937812E+03  0.7546771E-02  0.1155094E+00
         21   -1    0    0  503  502  0.00000000000E+00  0.00000000000E+00  0.59616871942E+03  0.59616871942E+03  0.00000000000E+00 0. -1.
         21   -1    0    0  501  503 -0.00000000000E+00 -0.00000000000E+00 -0.12466415139E+03  0.12466415139E+03  0.00000000000E+00 0. -1.
          6    1    1    2  501    0 -0.29865660542E+02 -0.82037791487E+02 -0.17757256273E+02  0.19459310641E+03  0.17300000000E+03 0. -1.
         -6    1    1    2    0  502  0.29865660542E+02  0.82037791487E+02  0.48926182430E+03  0.52623976440E+03  0.17300000000E+03 0. -1.
<mgrwt>
<rscale>  2 0.19378121E+03</rscale>
<asrwt>0</asrwt>
<pdfrwt beam="1">  1       21 0.91718263E-01 0.19378121E+03</pdfrwt>
<pdfrwt beam="2">  1       21 0.19179100E-01 0.19378121E+03</pdfrwt>
<totfact> 0.25081124E+04</totfact>
</mgrwt>
</event>
<event>
 4    2  0.3944631E+000  0.2226367E+03  0.7546771E-02  0.1131932E+00
         21   -1    0    0  503  502  0.00000000000E+00  0.00000000000E+00  0.22939479339E+03  0.22939479339E+03  0.00000000000E+00 0. -1.
         21   -1    0    0  501  503 -0.00000000000E+00 -0.00000000000E+00 -0.41737968308E+03  0.41737968308E+03  0.00000000000E+00 0. -1.
          6    1    1    2  501    0  0.93526904713E+02 -0.10435907926E+03 -0.31857770612E+03  0.38866290557E+03  0.17300000000E+03 0. -1.
         -6    1    1    2    0  502 -0.93526904713E+02  0.10435907926E+03  0.13059281643E+03  0.25811157090E+03  0.17300000000E+03 0. -1.
<mgrwt>
<rscale>  2 0.22263670E+03</rscale>
<asrwt>0</asrwt>
<pdfrwt beam="1">  1       21 0.35291507E-01 0.22263670E+03</pdfrwt>
<pdfrwt beam="2">  1       21 0.64212258E-01 0.22263670E+03</pdfrwt>
<totfact> 0.17015187E+04</totfact>
</mgrwt>
</event>
<event>
 4    2  0.3944631E+000  0.2117193E+03  0.7546771E-02  0.1140212E+00
         21   -1    0    0  503  502  0.00000000000E+00  0.00000000000E+00  0.12579270700E+03  0.12579270700E+03  0.00000000000E+00 0.  1.
         21   -1    0    0  501  503 -0.00000000000E+00 -0.00000000000E+00 -0.70071260187E+03  0.70071260187E+03  0.00000000000E+00 0. -1.
          6    1    1    2  501    0 -0.12198297525E+03  0.40271723024E+01 -0.57716730627E+03  0.61477407541E+03  0.17300000000E+03 0. -1.
         -6    1    1    2    0  502  0.12198297525E+03 -0.40271723024E+01  0.22474114035E+01  0.21173123347E+03  0.17300000000E+03 0.  1.
<mgrwt>
<rscale>  2 0.21171931E+03</rscale>
<asrwt>0</asrwt>
<pdfrwt beam="1">  1       21 0.19352724E-01 0.21171931E+03</pdfrwt>
<pdfrwt beam="2">  1       21 0.10780194E+00 0.21171931E+03</pdfrwt>
<totfact> 0.16626598E+04</totfact>
</mgrwt>
</event>
<event>
 4    2  0.3944631E+000  0.1800559E+03  0.7546771E-02  0.1167749E+00
         21   -1    0    0  503  502  0.00000000000E+00  0.00000000000E+00  0.17863384854E+03  0.17863384854E+03  0.00000000000E+00 0.  1.
         21   -1    0    0  501  503 -0.00000000000E+00 -0.00000000000E+00 -0.20458751231E+03  0.20458751231E+03  0.00000000000E+00 0.  1.
          6    1    1    2  501    0  0.46813647999E+02 -0.17309443293E+02 -0.77359536043E+02  0.19597099858E+03  0.17300000000E+03 0.  1.
         -6    1    1    2    0  502 -0.46813647999E+02  0.17309443293E+02  0.51405872276E+02  0.18725036227E+03  0.17300000000E+03 0.  1.
<mgrwt>
<rscale>  2 0.18005592E+03</rscale>
<asrwt>0</asrwt>
<pdfrwt beam="1">  1       21 0.27482131E-01 0.18005592E+03</pdfrwt>
<pdfrwt beam="2">  1       21 0.31475002E-01 0.18005592E+03</pdfrwt>
<totfact> 0.12308331E+05</totfact>
</mgrwt>
</event>
<event>
 4    2  0.3944631E+000  0.2376853E+03  0.7546771E-02  0.1121344E+00
         21   -1    0    0  501  502  0.00000000000E+00  0.00000000000E+00  0.73733432583E+03  0.73733432583E+03  0.00000000000E+00 0.  1.
         21   -1    0    0  502  503 -0.00000000000E+00 -0.00000000000E+00 -0.14142975202E+03  0.14142975202E+03  0.00000000000E+00 0. -1.
          6    1    1    2  501    0  0.15623597082E+03  0.46428859408E+02  0.59538804137E+03  0.64107818351E+03  0.17300000000E+03 0.  1.
         -6    1    1    2    0  503 -0.15623597082E+03 -0.46428859408E+02  0.51653243226E+00  0.23768589434E+03  0.17300000000E+03 0. -1.
<mgrwt>
<rscale>  2 0.23768533E+03</rscale>
<asrwt>0</asrwt>
<pdfrwt beam="1">  1       21 0.11343605E+00 0.23768533E+03</pdfrwt>
<pdfrwt beam="2">  1       21 0.21758424E-01 0.23768533E+03</pdfrwt>
<totfact> 0.11601796E+04</totfact>
</mgrwt>
</event>
<event>
 4    2  0.3944631E+000  0.1864598E+03  0.7546771E-02  0.1161694E+00
         21   -1    0    0  501  502  0.00000000000E+00  0.00000000000E+00  0.14710412572E+03  0.14710412572E+03  0.00000000000E+00 0. -1.
         21   -1    0    0  502  503 -0.00000000000E+00 -0.00000000000E+00 -0.24164023392E+03  0.24164023392E+03  0.00000000000E+00 0. -1.
          6    1    1    2  501    0  0.64015733799E+02 -0.27207157037E+02 -0.18493099817E+02  0.18737459355E+03  0.17300000000E+03 0. -1.
         -6    1    1    2    0  503 -0.64015733799E+02  0.27207157037E+02 -0.76043008381E+02  0.20136976608E+03  0.17300000000E+03 0. -1.
<mgrwt>
<rscale>  2 0.18645976E+03</rscale>
<asrwt>0</asrwt>
<pdfrwt beam="1">  1       21 0.22631404E-01 0.18645976E+03</pdfrwt>
<pdfrwt beam="2">  1       21 0.37175420E-01 0.18645976E+03</pdfrwt>
<totfact> 0.12797322E+05</totfact>
</mgrwt>
</event>
<event>
 4    2  0.3944631E+000  0.2052873E+03  0.7546771E-02  0.1145353E+00
         21   -1    0    0  501  502  0.00000000000E+00  0.00000000000E+00  0.21521056147E+04  0.21521056147E+04  0.00000000000E+00 0.  1.
         21   -1    0    0  502  503 -0.00000000000E+00 -0.00000000000E+00 -0.38318419087E+02  0.38318419087E+02  0.00000000000E+00 0. -1.
          6    1    1    2  501    0  0.77351485758E+02 -0.78934265549E+02  0.18227297819E+04  0.18342537252E+04  0.17300000000E+03 0.  1.
         -6    1    1    2    0  503 -0.77351485758E+02  0.78934265549E+02  0.29105741366E+03  0.35617030852E+03  0.17300000000E+03 0. -1.
<mgrwt>
<rscale>  2 0.20528729E+03</rscale>
<asrwt>0</asrwt>
<pdfrwt beam="1">  1       21 0.33109308E+00 0.20528729E+03</pdfrwt>
<pdfrwt beam="2">  1       21 0.58951431E-02 0.20528729E+03</pdfrwt>
<totfact> 0.45167073E+03</totfact>
</mgrwt>
</event>
<event>
 4    2  0.3944631E+000  0.2215918E+03  0.7546771E-02  0.1132702E+00
         21   -1    0    0  501  502  0.00000000000E+00  0.00000000000E+00  0.12322256338E+04  0.12322256338E+04  0.00000000000E+00 0. -1.
         21   -1    0    0  502  503 -0.00000000000E+00 -0.00000000000E+00 -0.97411800804E+02  0.97411800804E+02  0.00000000000E+00 0.  1.
          6    1    1    2  501    0  0.13823910783E+03  0.79913181989E+01  0.10784629913E+04  0.11009928863E+04  0.17300000000E+03 0. -1.
         -6    1    1    2    0  503 -0.13823910783E+03 -0.79913181989E+01  0.56350841679E+02  0.22864454828E+03  0.17300000000E+03 0.  1.
<mgrwt>
<rscale>  2 0.22159177E+03</rscale>
<asrwt>0</asrwt>
<pdfrwt beam="1">  1       21 0.18957316E+00 0.22159177E+03</pdfrwt>
<pdfrwt beam="2">  1       21 0.14986432E-01 0.22159177E+03</pdfrwt>
<totfact> 0.60192785E+03</totfact>
</mgrwt>
</event>
<event>
 4    2  0.3944631E+000  0.1877668E+03  0.7546771E-02  0.1160491E+00
         21   -1    0    0  501  502  0.00000000000E+00  0.00000000000E+00  0.51398212024E+03  0.51398212024E+03  0.00000000000E+00 0. -1.
         21   -1    0    0  502  503 -0.00000000000E+00 -0.00000000000E+00 -0.38539748149E+03  0.38539748149E+03  0.00000000000E+00 0. -1.
          6    1    1    2  501    0 -0.38201056057E+02 -0.62193706831E+02  0.47200403386E+03  0.50798049750E+03  0.17300000000E+03 0. -1.
         -6    1    1    2    0  503  0.38201056057E+02  0.62193706831E+02 -0.34341939511E+03  0.39139910423E+03  0.17300000000E+03 0. -1.
<mgrwt>
<rscale>  2 0.18776682E+03</rscale>
<asrwt>0</asrwt>
<pdfrwt beam="1">  1       21 0.79074173E-01 0.18776682E+03</pdfrwt>
<pdfrwt beam="2">  1       21 0.59291920E-01 0.18776682E+03</pdfrwt>
<totfact> 0.37682718E+03</totfact>
</mgrwt>
</event>
<event>
 4    2  0.3944631E+000  0.1813358E+03  0.7546771E-02  0.1166517E+00
         21   -1    0    0  501  502  0.00000000000E+00  0.00000000000E+00  0.51441138808E+03  0.51441138808E+03  0.00000000000E+00 0. -1.
         21   -1    0    0  502  503 -0.00000000000E+00 -0.00000000000E+00 -0.92796466744E+02  0.92796466744E+02  0.00000000000E+00 0. -1.
          6    1    1    2  501    0 -0.22588004412E+02  0.49431190676E+02  0.38016010702E+03  0.42119397850E+03  0.17300000000E+03 0. -1.
         -6    1    1    2    0  503  0.22588004412E+02 -0.49431190676E+02  0.41454814315E+02  0.18601387632E+03  0.17300000000E+03 0. -1.
<mgrwt>
<rscale>  2 0.18133577E+03</rscale>
<asrwt>0</asrwt>
<pdfrwt beam="1">  1       21 0.79140212E-01 0.18133577E+03</pdfrwt>
<pdfrwt beam="2">  1       21 0.14276380E-01 0.18133577E+03</pdfrwt>
<totfact> 0.60796512E+04</totfact>
</mgrwt>
</event>
<event>
 4    2  0.3944631E+000  0.2255619E+03  0.7546771E-02  0.1129803E+00
         21   -1    0    0  503  502  0.00000000000E+00  0.00000000000E+00  0.23728390329E+03  0.23728390329E+03  0.00000000000E+00 0.  1.
         21   -1    0    0  501  503 -0.00000000000E+00 -0.00000000000E+00 -0.22434230444E+03  0.22434230444E+03  0.00000000000E+00 0. -1.
          6    1    1    2  501    0 -0.57429056034E+02 -0.13285727941E+03  0.55014765146E+02  0.23217402429E+03  0.17300000000E+03 0.  1.
         -6    1    1    2    0  502  0.57429056034E+02  0.13285727941E+03 -0.42073166295E+02  0.22945218345E+03  0.17300000000E+03 0. -1.
<mgrwt>
<rscale>  2 0.22556186E+03</rscale>
<asrwt>0</asrwt>
<pdfrwt beam="1">  1       21 0.36505216E-01 0.22556186E+03</pdfrwt>
<pdfrwt beam="2">  1       21 0.34514201E-01 0.22556186E+03</pdfrwt>
<totfact> 0.57687944E+04</totfact>
</mgrwt>
</event>
<event>
 4    2  0.3944631E+000  0.1808301E+03  0.7546771E-02  0.1167002E+00
         21   -1    0    0  501  502  0.00000000000E+00  0.00000000000E+00  0.14215933615E+04  0.14215933615E+04  0.00000000000E+00 0. -1.
         21   -1    0    0  502  503 -0.00000000000E+00 -0.00000000000E+00 -0.27180322725E+02  0.27180322725E+02  0.00000000000E+00 0. -1.
          6    1    1    2  501    0 -0.51177630773E+02  0.12302759297E+02  0.98122304307E+03  0.99774654498E+03  0.17300000000E+03 0. -1.
         -6    1    1    2    0  503  0.51177630773E+02 -0.12302759297E+02  0.41318999567E+03  0.45102713920E+03  0.17300000000E+03 0. -1.
<mgrwt>
<rscale>  2 0.18083005E+03</rscale>
<asrwt>0</asrwt>
<pdfrwt beam="1">  1       21 0.21870661E+00 0.18083005E+03</pdfrwt>
<pdfrwt beam="2">  1       21 0.41815892E-02 0.18083005E+03</pdfrwt>
<totfact> 0.37591103E+04</totfact>
</mgrwt>
</event>
<event>
 4    2  0.3944631E+000  0.2679437E+03  0.7546771E-02  0.1102462E+00
         21   -1    0    0  501  502  0.00000000000E+00  0.00000000000E+00  0.10680254351E+04  0.10680254351E+04  0.00000000000E+00 0. -1.
         21   -1    0    0  502  503 -0.00000000000E+00 -0.00000000000E+00 -0.25080668848E+03  0.25080668848E+03  0.00000000000E+00 0. -1.
          6    1    1    2  501    0 -0.20466575928E+02 -0.20358277002E+03  0.97277845142E+03  0.10090053223E+04  0.17300000000E+03 0. -1.
         -6    1    1    2    0  503  0.20466575928E+02  0.20358277002E+03 -0.15555970483E+03  0.30982680121E+03  0.17300000000E+03 0. -1.
<mgrwt>
<rscale>  2 0.26794370E+03</rscale>
<asrwt>0</asrwt>
<pdfrwt beam="1">  1       21 0.16431160E+00 0.26794370E+03</pdfrwt>
<pdfrwt beam="2">  1       21 0.38585645E-01 0.26794370E+03</pdfrwt>
<totfact> 0.14200302E+03</totfact>
</mgrwt>
</event>
<event>
 4    2  0.3944631E+000  0.2929735E+03  0.7546771E-02  0.1088807E+00
         21   -1    0    0  501  502  0.00000000000E+00  0.00000000000E+00  0.46047095502E+03  0.46047095502E+03  0.00000000000E+00 0.  1.
         21   -1    0    0  502  503 -0.00000000000E+00 -0.00000000000E+00 -0.21128145834E+03  0.21128145834E+03  0.00000000000E+00 0. -1.
          6    1    1    2  501    0  0.17343194731E+03  0.16070414328E+03  0.93410964819E+01  0.29312236028E+03  0.17300000000E+03 0. -1.
         -6    1    1    2    0  503 -0.17343194731E+03 -0.16070414328E+03  0.23984840020E+03  0.37863005307E+03  0.17300000000E+03 0.  1.
<mgrwt>
<rscale>  2 0.29297348E+03</rscale>
<asrwt>0</asrwt>
<pdfrwt beam="1">  1       21 0.70841685E-01 0.29297348E+03</pdfrwt>
<pdfrwt beam="2">  1       21 0.32504840E-01 0.29297348E+03</pdfrwt>
<totfact> 0.15588694E+04</totfact>
</mgrwt>
</event>
<event>
 4    2  0.3944631E+000  0.1798023E+03  0.7546771E-02  0.1167994E+00
         21   -1    0    0  503  502  0.00000000000E+00  0.00000000000E+00  0.31063518748E+02  0.31063518748E+02  0.00000000000E+00 0.  1.
         21   -1    0    0  501  503 -0.00000000000E+00 -0.00000000000E+00 -0.22801241815E+04  0.22801241815E+04  0.00000000000E+00 0.  1.
          6    1    1    2  501    0  0.47940062427E+02  0.10081045606E+02 -0.19765113160E+04  0.19846727335E+04  0.17300000000E+03 0.  1.
         -6    1    1    2    0  502 -0.47940062427E+02 -0.10081045606E+02 -0.27254934685E+03  0.32651496678E+03  0.17300000000E+03 0.  1.
<mgrwt>
<rscale>  2 0.17980233E+03</rscale>
<asrwt>0</asrwt>
<pdfrwt beam="1">  1       21 0.47790027E-02 0.17980233E+03</pdfrwt>
<pdfrwt beam="2">  1       21 0.35078835E+00 0.17980233E+03</pdfrwt>
<totfact> 0.51100148E+03</totfact>
</mgrwt>
</event>
<event>
 4    2  0.3944631E+000  0.2435649E+03  0.7546771E-02  0.1117441E+00
         21   -1    0    0  501  502  0.00000000000E+00  0.00000000000E+00  0.43313096285E+03  0.43313096285E+03  0.00000000000E+00 0. -1.
         21   -1    0    0  502  503 -0.00000000000E+00 -0.00000000000E+00 -0.15791451186E+03  0.15791451186E+03  0.00000000000E+00 0. -1.
          6    1    1    2  501    0  0.12509978827E+03 -0.11723862481E+03  0.24524611213E+03  0.34564361370E+03  0.17300000000E+03 0. -1.
         -6    1    1    2    0  503 -0.12509978827E+03  0.11723862481E+03  0.29970338864E+02  0.24540186101E+03  0.17300000000E+03 0. -1.
<mgrwt>
<rscale>  2 0.24356488E+03</rscale>
<asrwt>0</asrwt>
<pdfrwt beam="1">  1       21 0.66635532E-01 0.24356488E+03</pdfrwt>
<pdfrwt beam="2">  1       21 0.24294541E-01 0.24356488E+03</pdfrwt>
<totfact> 0.32188383E+04</totfact>
</mgrwt>
</event>
<event>
 4    2  0.3944631E+000  0.1927724E+03  0.7546771E-02  0.1155984E+00
         21   -1    0    0  503  502  0.00000000000E+00  0.00000000000E+00  0.76682305310E+02  0.76682305310E+02  0.00000000000E+00 0. -1.
         21   -1    0    0  501  503 -0.00000000000E+00 -0.00000000000E+00 -0.54675631378E+03  0.54675631378E+03  0.00000000000E+00 0. -1.
          6    1    1    2  501    0  0.44961812331E+02  0.72184654699E+02 -0.34012822214E+03  0.39095830524E+03  0.17300000000E+03 0. -1.
         -6    1    1    2    0  502 -0.44961812331E+02 -0.72184654699E+02 -0.12994578633E+03  0.23248031385E+03  0.17300000000E+03 0. -1.
<mgrwt>
<rscale>  2 0.19277238E+03</rscale>
<asrwt>0</asrwt>
<pdfrwt beam="1">  1       21 0.11797277E-01 0.19277238E+03</pdfrwt>
<pdfrwt beam="2">  1       21 0.84116358E-01 0.19277238E+03</pdfrwt>
<totfact> 0.74243600E+04</totfact>
</mgrwt>
</event>
<event>
 4    2  0.3944631E+000  0.1934012E+03  0.7546771E-02  0.1155429E+00
         21   -1    0    0  501  502  0.00000000000E+00  0.00000000000E+00  0.16548900284E+03  0.16548900284E+03  0.00000000000E+00 0. -1.
         21   -1    0    0  502  503 -0.00000000000E+00 -0.00000000000E+00 -0.27078270682E+03  0.27078270682E+03  0.00000000000E+00 0.  1.
          6    1    1    2  501    0 -0.33456431686E+02  0.79722526806E+02  0.36042034756E+02  0.19673088820E+03  0.17300000000E+03 0. -1.
         -6    1    1    2    0  503  0.33456431686E+02 -0.79722526806E+02 -0.14133573873E+03  0.23954082146E+03  0.17300000000E+03 0.  1.
<mgrwt>
<rscale>  2 0.19340117E+03</rscale>
<asrwt>0</asrwt>
<pdfrwt beam="1">  1       21 0.25459847E-01 0.19340117E+03</pdfrwt>
<pdfrwt beam="2">  1       21 0.41658877E-01 0.19340117E+03</pdfrwt>
<totfact> 0.81129722E+04</totfact>
</mgrwt>
</event>
<event>
 4    2  0.3944631E+000  0.2345739E+03  0.7546771E-02  0.1123461E+00
         21   -1    0    0  503  502  0.00000000000E+00  0.00000000000E+00  0.11963606851E+03  0.11963606851E+03  0.00000000000E+00 0. -1.
         21   -1    0    0  501  503 -0.00000000000E+00 -0.00000000000E+00 -0.77059646492E+03  0.77059646492E+03  0.00000000000E+00 0.  1.
          6    1    1    2  501    0 -0.12837600309E+03  0.92819679700E+02 -0.60810040437E+03  0.65177526257E+03  0.17300000000E+03 0.  1.
         -6    1    1    2    0  502  0.12837600309E+03 -0.92819679700E+02 -0.42859992049E+02  0.23845727086E+03  0.17300000000E+03 0. -1.
<mgrwt>
<rscale>  2 0.23457385E+03</rscale>
<asrwt>0</asrwt>
<pdfrwt beam="1">  1       21 0.18405548E-01 0.23457385E+03</pdfrwt>
<pdfrwt beam="2">  1       21 0.11855331E+00 0.23457385E+03</pdfrwt>
<totfact> 0.14276095E+04</totfact>
</mgrwt>
</event>
<event>
 4    2  0.3944631E+000  0.1874187E+03  0.7546771E-02  0.1160810E+00
         21   -1    0    0  501  502  0.00000000000E+00  0.00000000000E+00  0.12523507626E+03  0.12523507626E+03  0.00000000000E+00 0. -1.
         21   -1    0    0  502  503 -0.00000000000E+00 -0.00000000000E+00 -0.41770043818E+03  0.41770043818E+03  0.00000000000E+00 0.  1.
          6    1    1    2  501    0 -0.67866432224E+02  0.24308996907E+02  0.93628573060E+01  0.18765245282E+03  0.17300000000E+03 0. -1.
         -6    1    1    2    0  503  0.67866432224E+02 -0.24308996907E+02 -0.30182821923E+03  0.35528306162E+03  0.17300000000E+03 0.  1.
<mgrwt>
<rscale>  2 0.18741873E+03</rscale>
<asrwt>0</asrwt>
<pdfrwt beam="1">  1       21 0.19266935E-01 0.18741873E+03</pdfrwt>
<pdfrwt beam="2">  1       21 0.64261605E-01 0.18741873E+03</pdfrwt>
<totfact> 0.55427342E+04</totfact>
</mgrwt>
</event>
<event>
 4    2  0.3944631E+000  0.2135780E+03  0.7546771E-02  0.1138764E+00
         21   -1    0    0  501  502  0.00000000000E+00  0.00000000000E+00  0.50011171385E+03  0.50011171385E+03  0.00000000000E+00 0.  1.
         21   -1    0    0  502  503 -0.00000000000E+00 -0.00000000000E+00 -0.12244426059E+03  0.12244426059E+03  0.00000000000E+00 0. -1.
          6    1    1    2  501    0  0.85709461008E+02 -0.91326044237E+02  0.31620282113E+02  0.21590599877E+03  0.17300000000E+03 0. -1.
         -6    1    1    2    0  503 -0.85709461008E+02  0.91326044237E+02  0.34604717114E+03  0.40664997568E+03  0.17300000000E+03 0.  1.
<mgrwt>
<rscale>  2 0.21357799E+03</rscale>
<asrwt>0</asrwt>
<pdfrwt beam="1">  1       21 0.76940263E-01 0.21357799E+03</pdfrwt>
<pdfrwt beam="2">  1       21 0.18837579E-01 0.21357799E+03</pdfrwt>
<totfact> 0.38331219E+04</totfact>
</mgrwt>
</event>
<event>
 4    2  0.3944631E+000  0.2257308E+03  0.7546771E-02  0.1129681E+00
         21   -1    0    0  503  502  0.00000000000E+00  0.00000000000E+00  0.41724676404E+03  0.41724676404E+03  0.00000000000E+00 0. -1.
         21   -1    0    0  501  503 -0.00000000000E+00 -0.00000000000E+00 -0.20192184501E+03  0.20192184501E+03  0.00000000000E+00 0. -1.
          6    1    1    2  501    0  0.76501185195E+02 -0.12317854776E+03 -0.86959737460E+02  0.24190159549E+03  0.17300000000E+03 0. -1.
         -6    1    1    2    0  502 -0.76501185195E+02  0.12317854776E+03  0.30228465649E+03  0.37726701355E+03  0.17300000000E+03 0. -1.
<mgrwt>
<rscale>  2 0.22573078E+03</rscale>
<asrwt>0</asrwt>
<pdfrwt beam="1">  1       21 0.64191810E-01 0.22573078E+03</pdfrwt>
<pdfrwt beam="2">  1       21 0.31064899E-01 0.22573078E+03</pdfrwt>
<totfact> 0.21879461E+04</totfact>
</mgrwt>
</event>
<event>
 4    2  0.3944631E+000  0.1962589E+03  0.7546771E-02  0.1152934E+00
         21   -1    0    0  503  502  0.00000000000E+00  0.00000000000E+00  0.92167129495E+03  0.92167129495E+03  0.00000000000E+00 0.  1.
         21   -1    0    0  501  503 -0.00000000000E+00 -0.00000000000E+00 -0.68297454063E+02  0.68297454063E+02  0.00000000000E+00 0.  1.
          6    1    1    2  501    0  0.58043432853E+02 -0.72246223468E+02  0.11832189021E+03  0.22916724593E+03  0.17300000000E+03 0.  1.
         -6    1    1    2    0  502 -0.58043432853E+02  0.72246223468E+02  0.73505195068E+03  0.76080150309E+03  0.17300000000E+03 0.  1.
<mgrwt>
<rscale>  2 0.19625890E+03</rscale>
<asrwt>0</asrwt>
<pdfrwt beam="1">  1       21 0.14179558E+00 0.19625890E+03</pdfrwt>
<pdfrwt beam="2">  1       21 0.10507301E-01 0.19625890E+03</pdfrwt>
<totfact> 0.25679744E+04</totfact>
</mgrwt>
</event>
<event>
 4    2  0.3944631E+000  0.2445248E+03  0.7546771E-02  0.1116815E+00
         21   -1    0    0  501  502  0.00000000000E+00  0.00000000000E+00  0.77083619345E+02  0.77083619345E+02  0.00000000000E+00 0. -1.
         21   -1    0    0  502  503 -0.00000000000E+00 -0.00000000000E+00 -0.10181837627E+04  0.10181837627E+04  0.00000000000E+00 0.  1.
          6    1    1    2  501    0  0.29827671483E+02  0.17021658151E+03 -0.20328971639E+03  0.31799226940E+03  0.17300000000E+03 0. -1.
         -6    1    1    2    0  503 -0.29827671483E+02 -0.17021658151E+03 -0.73781042699E+03  0.77727511267E+03  0.17300000000E+03 0.  1.
<mgrwt>
<rscale>  2 0.24452479E+03</rscale>
<asrwt>0</asrwt>
<pdfrwt beam="1">  1       21 0.11859019E-01 0.24452479E+03</pdfrwt>
<pdfrwt beam="2">  1       21 0.15664365E+00 0.24452479E+03</pdfrwt>
<totfact> 0.15436973E+04</totfact>
</mgrwt>
</event>
<event>
 4    2  0.3944631E+000  0.2210069E+03  0.7546771E-02  0.1133135E+00
         21   -1    0    0  503  502  0.00000000000E+00  0.00000000000E+00  0.35314285223E+02  0.35314285223E+02  0.00000000000E+00 0.  1.
         21   -1    0    0  501  503 -0.00000000000E+00 -0.00000000000E+00 -0.27099705282E+04  0.27099705282E+04  0.00000000000E+00 0. -1.
          6    1    1    2  501    0 -0.11220915288E+03 -0.79524651137E+02 -0.22978015205E+04  0.23084054869E+04  0.17300000000E+03 0. -1.
         -6    1    1    2    0  502  0.11220915288E+03  0.79524651137E+02 -0.37685472247E+03  0.43687932656E+03  0.17300000000E+03 0.  1.
<mgrwt>
<rscale>  2 0.22100693E+03</rscale>
<asrwt>0</asrwt>
<pdfrwt beam="1">  1       21 0.54329642E-02 0.22100693E+03</pdfrwt>
<pdfrwt beam="2">  1       21 0.41691875E+00 0.22100693E+03</pdfrwt>
<totfact> 0.15302256E+03</totfact>
</mgrwt>
</event>
<event>
 4    2  0.3944631E+000  0.2300538E+03  0.7546771E-02  0.1126602E+00
         21   -1    0    0  501  502  0.00000000000E+00  0.00000000000E+00  0.32320499687E+03  0.32320499687E+03  0.00000000000E+00 0.  1.
         21   -1    0    0  502  503 -0.00000000000E+00 -0.00000000000E+00 -0.29088964526E+03  0.29088964526E+03  0.00000000000E+00 0. -1.
          6    1    1    2  501    0 -0.13525935044E+03 -0.68561299414E+02  0.21915114853E+03  0.31772939675E+03  0.17300000000E+03 0.  1.
         -6    1    1    2    0  503  0.13525935044E+03  0.68561299414E+02 -0.18683579692E+03  0.29636524538E+03  0.17300000000E+03 0.  1.
<mgrwt>
<rscale>  2 0.23005378E+03</rscale>
<asrwt>0</asrwt>
<pdfrwt beam="1">  1       21 0.49723846E-01 0.23005378E+03</pdfrwt>
<pdfrwt beam="2">  1       21 0.44752253E-01 0.23005378E+03</pdfrwt>
<totfact> 0.18076349E+04</totfact>
</mgrwt>
</event>
<event>
 4    2  0.3944631E+000  0.1770200E+03  0.7546771E-02  0.1170719E+00
         21   -1    0    0  501  502  0.00000000000E+00  0.00000000000E+00  0.58499098363E+03  0.58499098363E+03  0.00000000000E+00 0. -1.
         21   -1    0    0  502  503 -0.00000000000E+00 -0.00000000000E+00 -0.76314057797E+02  0.76314057797E+02  0.00000000000E+00 0.  1.
          6    1    1    2  501    0 -0.37192864582E+02  0.48751896238E+01  0.43486223064E+03  0.46951169984E+03  0.17300000000E+03 0. -1.
         -6    1    1    2    0  503  0.37192864582E+02 -0.48751896238E+01  0.73814695189E+02  0.19179334158E+03  0.17300000000E+03 0.  1.
<mgrwt>
<rscale>  2 0.17701999E+03</rscale>
<asrwt>0</asrwt>
<pdfrwt beam="1">  1       21 0.89998610E-01 0.17701999E+03</pdfrwt>
<pdfrwt beam="2">  1       21 0.11740625E-01 0.17701999E+03</pdfrwt>
<totfact> 0.64571892E+04</totfact>
</mgrwt>
</event>
<event>
 4    2  0.3944631E+000  0.2235463E+03  0.7546771E-02  0.1131266E+00
         21   -1    0    0  503  502  0.00000000000E+00  0.00000000000E+00  0.48020753495E+03  0.48020753495E+03  0.00000000000E+00 0.  1.
         21   -1    0    0  501  503 -0.00000000000E+00 -0.00000000000E+00 -0.10497996291E+03  0.10497996291E+03  0.00000000000E+00 0.  1.
          6    1    1    2  501    0  0.12423826011E+03 -0.67888122448E+02  0.16030252533E+03  0.27508151896E+03  0.17300000000E+03 0.  1.
         -6    1    1    2    0  502 -0.12423826011E+03  0.67888122448E+02  0.21492504671E+03  0.31010597890E+03  0.17300000000E+03 0.  1.
<mgrwt>
<rscale>  2 0.22354629E+03</rscale>
<asrwt>0</asrwt>
<pdfrwt beam="1">  1       21 0.73878081E-01 0.22354629E+03</pdfrwt>
<pdfrwt beam="2">  1       21 0.16150764E-01 0.22354629E+03</pdfrwt>
<totfact> 0.55548888E+04</totfact>
</mgrwt>
</event>
<event>
 4    2  0.3944631E+000  0.1772670E+03  0.7546771E-02  0.1170475E+00
         21   -1    0    0  501  502  0.00000000000E+00  0.00000000000E+00  0.12048877983E+04  0.12048877983E+04  0.00000000000E+00 0. -1.
         21   -1    0    0  502  503 -0.00000000000E+00 -0.00000000000E+00 -0.28063820298E+02  0.28063820298E+02  0.00000000000E+00 0. -1.
          6    1    1    2  501    0 -0.37545961803E+02  0.92137863212E+01  0.75231350410E+03  0.77291603784E+03  0.17300000000E+03 0.  1.
         -6    1    1    2    0  503  0.37545961803E+02 -0.92137863212E+01  0.42451047389E+03  0.46003558074E+03  0.17300000000E+03 0.  1.
<mgrwt>
<rscale>  2 0.17726701E+03</rscale>
<asrwt>0</asrwt>
<pdfrwt beam="1">  1       21 0.18536731E+00 0.17726701E+03</pdfrwt>
<pdfrwt beam="2">  1       21 0.43175117E-02 0.17726701E+03</pdfrwt>
<totfact> 0.58247356E+04</totfact>
</mgrwt>
</event>
<event>
 4    2  0.3944631E+000  0.2488610E+03  0.7546771E-02  0.1114027E+00
         21   -1    0    0  503  502  0.00000000000E+00  0.00000000000E+00  0.11881564858E+04  0.11881564858E+04  0.00000000000E+00 0. -1.
         21   -1    0    0  501  503 -0.00000000000E+00 -0.00000000000E+00 -0.77037898481E+02  0.77037898481E+02  0.00000000000E+00 0.  1.
          6    1    1    2  501    0 -0.13266493693E+03  0.12001165060E+03  0.19581526430E+03  0.31666291148E+03  0.17300000000E+03 0.  1.
         -6    1    1    2    0  502  0.13266493693E+03 -0.12001165060E+03  0.91530332299E+03  0.94853147277E+03  0.17300000000E+03 0. -1.
<mgrwt>
<rscale>  2 0.24886097E+03</rscale>
<asrwt>0</asrwt>
<pdfrwt beam="1">  1       21 0.18279329E+00 0.24886097E+03</pdfrwt>
<pdfrwt beam="2">  1       21 0.11851985E-01 0.24886097E+03</pdfrwt>
<totfact> 0.10031701E+04</totfact>
</mgrwt>
</event>
<event>
 4    2  0.3944631E+000  0.2192667E+03  0.7546771E-02  0.1134431E+00
         21   -1    0    0  501  502  0.00000000000E+00  0.00000000000E+00  0.12483545692E+03  0.12483545692E+03  0.00000000000E+00 0. -1.
         21   -1    0    0  502  503 -0.00000000000E+00 -0.00000000000E+00 -0.53833824656E+03  0.53833824656E+03  0.00000000000E+00 0.  1.
          6    1    1    2  501    0  0.72468888093E+02 -0.11356562727E+03 -0.29858406230E+02  0.22129034290E+03  0.17300000000E+03 0. -1.
         -6    1    1    2    0  503 -0.72468888093E+02  0.11356562727E+03 -0.38364438340E+03  0.44188336058E+03  0.17300000000E+03 0.  1.
<mgrwt>
<rscale>  2 0.21926671E+03</rscale>
<asrwt>0</asrwt>
<pdfrwt beam="1">  1       21 0.19205455E-01 0.21926671E+03</pdfrwt>
<pdfrwt beam="2">  1       21 0.82821269E-01 0.21926671E+03</pdfrwt>
<totfact> 0.31198996E+04</totfact>
</mgrwt>
</event>
<event>
 4    2  0.3944631E+000  0.2059707E+03  0.7546771E-02  0.1144797E+00
         21   -1    0    0  501  502  0.00000000000E+00  0.00000000000E+00  0.21963012249E+03  0.21963012249E+03  0.00000000000E+00 0. -1.
         21   -1    0    0  502  503 -0.00000000000E+00 -0.00000000000E+00 -0.19339996704E+03  0.19339996704E+03  0.00000000000E+00 0. -1.
          6    1    1    2  501    0 -0.10659855295E+03  0.33640476153E+02  0.58529829200E+01  0.20605385348E+03  0.17300000000E+03 0. -1.
         -6    1    1    2    0  503  0.10659855295E+03 -0.33640476153E+02  0.20377172536E+02  0.20697623604E+03  0.17300000000E+03 0. -1.
<mgrwt>
<rscale>  2 0.20597071E+03</rscale>
<asrwt>0</asrwt>
<pdfrwt beam="1">  1       21 0.33789250E-01 0.20597071E+03</pdfrwt>
<pdfrwt beam="2">  1       21 0.29753841E-01 0.20597071E+03</pdfrwt>
<totfact> 0.90867208E+04</totfact>
</mgrwt>
</event>
<event>
 4    2  0.3944631E+000  0.1818574E+03  0.7546771E-02  0.1166017E+00
         21   -1    0    0  501  502  0.00000000000E+00  0.00000000000E+00  0.28894105635E+03  0.28894105635E+03  0.00000000000E+00 0. -1.
         21   -1    0    0  502  503 -0.00000000000E+00 -0.00000000000E+00 -0.31628177523E+03  0.31628177523E+03  0.00000000000E+00 0. -1.
          6    1    1    2  501    0 -0.40433962749E+02  0.38835741090E+02  0.22806072871E+03  0.29169130276E+03  0.17300000000E+03 0. -1.
         -6    1    1    2    0  503  0.40433962749E+02 -0.38835741090E+02 -0.25540144759E+03  0.31353152881E+03  0.17300000000E+03 0. -1.
<mgrwt>
<rscale>  2 0.18185742E+03</rscale>
<asrwt>0</asrwt>
<pdfrwt beam="1">  1       21 0.44452470E-01 0.18185742E+03</pdfrwt>
<pdfrwt beam="2">  1       21 0.48658735E-01 0.18185742E+03</pdfrwt>
<totfact> 0.19719937E+04</totfact>
</mgrwt>
</event>
<event>
 4    2  0.3944631E+000  0.2120487E+03  0.7546771E-02  0.1139954E+00
         21   -1    0    0  501  502  0.00000000000E+00  0.00000000000E+00  0.33723493934E+03  0.33723493934E+03  0.00000000000E+00 0. -1.
         21   -1    0    0  502  503 -0.00000000000E+00 -0.00000000000E+00 -0.35732215884E+03  0.35732215884E+03  0.00000000000E+00 0. -1.
          6    1    1    2  501    0  0.11121283334E+03  0.51646621344E+02  0.26491108122E+03  0.33932661073E+03  0.17300000000E+03 0. -1.
         -6    1    1    2    0  503 -0.11121283334E+03 -0.51646621344E+02 -0.28499830073E+03  0.35523048745E+03  0.17300000000E+03 0. -1.
<mgrwt>
<rscale>  2 0.21204874E+03</rscale>
<asrwt>0</asrwt>
<pdfrwt beam="1">  1       21 0.51882298E-01 0.21204874E+03</pdfrwt>
<pdfrwt beam="2">  1       21 0.54972640E-01 0.21204874E+03</pdfrwt>
<totfact> 0.10871653E+04</totfact>
</mgrwt>
</event>
<event>
 4    2  0.3944631E+000  0.2388082E+03  0.7546771E-02  0.1120589E+00
         21   -1    0    0  503  502  0.00000000000E+00  0.00000000000E+00  0.12649143498E+03  0.12649143498E+03  0.00000000000E+00 0. -1.
         21   -1    0    0  501  503 -0.00000000000E+00 -0.00000000000E+00 -0.49167121136E+03  0.49167121136E+03  0.00000000000E+00 0.  1.
          6    1    1    2  501    0  0.16250478528E+03  0.26316513447E+02 -0.27164294864E+03  0.36168944644E+03  0.17300000000E+03 0.  1.
         -6    1    1    2    0  502 -0.16250478528E+03 -0.26316513447E+02 -0.93536827738E+02  0.25647319989E+03  0.17300000000E+03 0. -1.
<mgrwt>
<rscale>  2 0.23880822E+03</rscale>
<asrwt>0</asrwt>
<pdfrwt beam="1">  1       21 0.19460220E-01 0.23880822E+03</pdfrwt>
<pdfrwt beam="2">  1       21 0.75641726E-01 0.23880822E+03</pdfrwt>
<totfact> 0.37034489E+04</totfact>
</mgrwt>
</event>
<event>
 4    2  0.3944631E+000  0.1943250E+03  0.7546771E-02  0.1154617E+00
         21   -1    0    0  501  502  0.00000000000E+00  0.00000000000E+00  0.66251872685E+03  0.66251872685E+03  0.00000000000E+00 0.  1.
         21   -1    0    0  502  503 -0.00000000000E+00 -0.00000000000E+00 -0.66409685936E+02  0.66409685936E+02  0.00000000000E+00 0.  1.
          6    1    1    2  501    0  0.84717826850E+02  0.25614263479E+02  0.43526090983E+03  0.47666997001E+03  0.17300000000E+03 0.  1.
         -6    1    1    2    0  503 -0.84717826850E+02 -0.25614263479E+02  0.16084813108E+03  0.25225844278E+03  0.17300000000E+03 0.  1.
<mgrwt>
<rscale>  2 0.19432499E+03</rscale>
<asrwt>0</asrwt>
<pdfrwt beam="1">  1       21 0.10192595E+00 0.19432499E+03</pdfrwt>
<pdfrwt beam="2">  1       21 0.10216875E-01 0.19432499E+03</pdfrwt>
<totfact> 0.61240488E+04</totfact>
</mgrwt>
</event>
<event>
 4    2  0.3944631E+000  0.2294553E+03  0.7546771E-02  0.1127024E+00
         21   -1    0    0  503  502  0.00000000000E+00  0.00000000000E+00  0.37301008738E+04  0.37301008738E+04  0.00000000000E+00 0.  1.
         21   -1    0    0  501  503 -0.00000000000E+00 -0.00000000000E+00 -0.25028263397E+03  0.25028263397E+03  0.00000000000E+00 0. -1.
          6    1    1    2  501    0 -0.10488056288E+03  0.10826266690E+03 -0.19334929952E+03  0.30005614331E+03  0.17300000000E+03 0. -1.
         -6    1    1    2    0  502  0.10488056288E+03 -0.10826266690E+03  0.36731675394E+04  0.36803273645E+04  0.17300000000E+03 0.  1.
<mgrwt>
<rscale>  2 0.22945531E+03</rscale>
<asrwt>0</asrwt>
<pdfrwt beam="1">  1       21 0.57386163E+00 0.22945531E+03</pdfrwt>
<pdfrwt beam="2">  1       21 0.38505023E-01 0.22945531E+03</pdfrwt>
<totfact> 0.32772667E+00</totfact>
</mgrwt>
</event>
<event>
 4    2  0.3944631E+000  0.2125018E+03  0.7546771E-02  0.1139600E+00
         21   -1    0    0  503  502  0.00000000000E+00  0.00000000000E+00  0.47327909006E+03  0.47327909006E+03  0.00000000000E+00 0.  1.
         21   -1    0    0  501  503 -0.00000000000E+00 -0.00000000000E+00 -0.16813765599E+03  0.16813765599E+03  0.00000000000E+00 0.  1.
          6    1    1    2  501    0 -0.46471786396E+02  0.11431712744E+03 -0.58349542341E+02  0.22036719731E+03  0.17300000000E+03 0.  1.
         -6    1    1    2    0  502  0.46471786396E+02 -0.11431712744E+03  0.36349097642E+03  0.42104954874E+03  0.17300000000E+03 0.  1.
<mgrwt>
<rscale>  2 0.21250184E+03</rscale>
<asrwt>0</asrwt>
<pdfrwt beam="1">  1       21 0.72812167E-01 0.21250184E+03</pdfrwt>
<pdfrwt beam="2">  1       21 0.25867332E-01 0.21250184E+03</pdfrwt>
<totfact> 0.23824966E+04</totfact>
</mgrwt>
</event>
<event>
 4    2  0.3944631E+000  0.2021529E+03  0.7546771E-02  0.1147935E+00
         21   -1    0    0  501  502  0.00000000000E+00  0.00000000000E+00  0.81220844436E+02  0.81220844436E+02  0.00000000000E+00 0. -1.
         21   -1    0    0  502  503 -0.00000000000E+00 -0.00000000000E+00 -0.71690482752E+03  0.71690482752E+03  0.00000000000E+00 0. -1.
          6    1    1    2  501    0  0.99270998508E+02 -0.32894757042E+02 -0.99933377908E+02  0.22550493610E+03  0.17300000000E+03 0. -1.
         -6    1    1    2    0  503 -0.99270998508E+02  0.32894757042E+02 -0.53575060517E+03  0.57262073585E+03  0.17300000000E+03 0. -1.
<mgrwt>
<rscale>  2 0.20215290E+03</rscale>
<asrwt>0</asrwt>
<pdfrwt beam="1">  1       21 0.12495515E-01 0.20215290E+03</pdfrwt>
<pdfrwt beam="2">  1       21 0.11029305E+00 0.20215290E+03</pdfrwt>
<totfact> 0.35227380E+04</totfact>
</mgrwt>
</event>
<event>
 4    2  0.3944631E+000  0.2186375E+03  0.7546771E-02  0.1134903E+00
         21   -1    0    0  503  502  0.00000000000E+00  0.00000000000E+00  0.13475697320E+03  0.13475697320E+03  0.00000000000E+00 0. -1.
         21   -1    0    0  501  503 -0.00000000000E+00 -0.00000000000E+00 -0.39361613782E+03  0.39361613782E+03  0.00000000000E+00 0. -1.
          6    1    1    2  501    0 -0.90112885525E+02 -0.98757377600E+02 -0.21246650160E+03  0.30486778457E+03  0.17300000000E+03 0. -1.
         -6    1    1    2    0  502  0.90112885525E+02  0.98757377600E+02 -0.46392663021E+02  0.22350532645E+03  0.17300000000E+03 0. -1.
<mgrwt>
<rscale>  2 0.21863749E+03</rscale>
<asrwt>0</asrwt>
<pdfrwt beam="1">  1       21 0.20731842E-01 0.21863749E+03</pdfrwt>
<pdfrwt beam="2">  1       21 0.60556329E-01 0.21863749E+03</pdfrwt>
<totfact> 0.54160517E+04</totfact>
</mgrwt>
</event>
<event>
 4    2  0.3944631E+000  0.2113343E+03  0.7546771E-02  0.1140514E+00
         21   -1    0    0  501  502  0.00000000000E+00  0.00000000000E+00  0.16685330270E+04  0.16685330270E+04  0.00000000000E+00 0. -1.
         21   -1    0    0  502  503 -0.00000000000E+00 -0.00000000000E+00 -0.35460360290E+02  0.35460360290E+02  0.00000000000E+00 0.  1.
          6    1    1    2  501    0  0.94811052100E+02 -0.75789452573E+02  0.12383803518E+04  0.12562834363E+04  0.17300000000E+03 0. -1.
         -6    1    1    2    0  503 -0.94811052100E+02  0.75789452573E+02  0.39469231490E+03  0.44770995093E+03  0.17300000000E+03 0.  1.
<mgrwt>
<rscale>  2 0.21133428E+03</rscale>
<asrwt>0</asrwt>
<pdfrwt beam="1">  1       21 0.25669733E+00 0.21133428E+03</pdfrwt>
<pdfrwt beam="2">  1       21 0.54554413E-02 0.21133428E+03</pdfrwt>
<totfact> 0.13854022E+04</totfact>
</mgrwt>
</event>
<event>
 4    2  0.3944631E+000  0.3547620E+03  0.7546771E-02  0.1060677E+00
         21   -1    0    0  503  502  0.00000000000E+00  0.00000000000E+00  0.34325711650E+03  0.34325711650E+03  0.00000000000E+00 0. -1.
         21   -1    0    0  501  503 -0.00000000000E+00 -0.00000000000E+00 -0.46443186294E+03  0.46443186294E+03  0.00000000000E+00 0.  1.
          6    1    1    2  501    0  0.22149475706E+03 -0.21648814037E+03 -0.24588804877E+03  0.43164450055E+03  0.17300000000E+03 0.  1.
         -6    1    1    2    0  502 -0.22149475706E+03  0.21648814037E+03  0.12471330234E+03  0.37604447889E+03  0.17300000000E+03 0. -1.
<mgrwt>
<rscale>  2 0.35476195E+03</rscale>
<asrwt>0</asrwt>
<pdfrwt beam="1">  1       21 0.52808787E-01 0.35476195E+03</pdfrwt>
<pdfrwt beam="2">  1       21 0.71451055E-01 0.35476195E+03</pdfrwt>
<totfact> 0.54909000E+03</totfact>
</mgrwt>
</event>
<event>
 4    2  0.3944631E+000  0.1889647E+03  0.7546771E-02  0.1159398E+00
         21   -1    0    0  501  502  0.00000000000E+00  0.00000000000E+00  0.90797099954E+02  0.90797099954E+02  0.00000000000E+00 0. -1.
         21   -1    0    0  502  503 -0.00000000000E+00 -0.00000000000E+00 -0.87928379319E+03  0.87928379319E+03  0.00000000000E+00 0. -1.
          6    1    1    2  501    0  0.48645239189E+02  0.58414841416E+02 -0.33632885588E+02  0.19193442627E+03  0.17300000000E+03 0. -1.
         -6    1    1    2    0  503 -0.48645239189E+02 -0.58414841416E+02 -0.75485380765E+03  0.77814646688E+03  0.17300000000E+03 0. -1.
<mgrwt>
<rscale>  2 0.18896469E+03</rscale>
<asrwt>0</asrwt>
<pdfrwt beam="1">  1       21 0.13968784E-01 0.18896469E+03</pdfrwt>
<pdfrwt beam="2">  1       21 0.13527444E+00 0.18896469E+03</pdfrwt>
<totfact> 0.17490585E+04</totfact>
</mgrwt>
</event>
<event>
 4    2  0.3944631E+000  0.2497861E+03  0.7546771E-02  0.1113440E+00
         21   -1    0    0  503  502  0.00000000000E+00  0.00000000000E+00  0.46359512811E+03  0.46359512811E+03  0.00000000000E+00 0.  1.
         21   -1    0    0  501  503 -0.00000000000E+00 -0.00000000000E+00 -0.18404823889E+03  0.18404823889E+03  0.00000000000E+00 0. -1.
          6    1    1    2  501    0  0.15833085331E+03  0.85996798861E+02  0.30764606535E+03  0.39628173066E+03  0.17300000000E+03 0.  1.
         -6    1    1    2    0  502 -0.15833085331E+03 -0.85996798861E+02 -0.28099176139E+02  0.25136163634E+03  0.17300000000E+03 0. -1.
<mgrwt>
<rscale>  2 0.24978613E+03</rscale>
<asrwt>0</asrwt>
<pdfrwt beam="1">  1       21 0.71322327E-01 0.24978613E+03</pdfrwt>
<pdfrwt beam="2">  1       21 0.28315114E-01 0.24978613E+03</pdfrwt>
<totfact> 0.20545122E+04</totfact>
</mgrwt>
</event>
<event>
 4    2  0.3944631E+000  0.2021932E+03  0.7546771E-02  0.1147902E+00
         21   -1    0    0  501  502  0.00000000000E+00  0.00000000000E+00  0.16748586456E+04  0.16748586456E+04  0.00000000000E+00 0. -1.
         21   -1    0    0  502  503 -0.00000000000E+00 -0.00000000000E+00 -0.28941035719E+02  0.28941035719E+02  0.00000000000E+00 0. -1.
          6    1    1    2  501    0 -0.38745840854E+02 -0.97220571647E+02  0.48585384229E+03  0.52624712427E+03  0.17300000000E+03 0. -1.
         -6    1    1    2    0  503  0.38745840854E+02  0.97220571647E+02  0.11600637676E+04  0.11775525571E+04  0.17300000000E+03 0. -1.
<mgrwt>
<rscale>  2 0.20219317E+03</rscale>
<asrwt>0</asrwt>
<pdfrwt beam="1">  1       21 0.25767049E+00 0.20219317E+03</pdfrwt>
<pdfrwt beam="2">  1       21 0.44524683E-02 0.20219317E+03</pdfrwt>
<totfact> 0.19455702E+04</totfact>
</mgrwt>
</event>
<event>
 4    2  0.3944631E+000  0.1811759E+03  0.7546771E-02  0.1166670E+00
         21   -1    0    0  503  502  0.00000000000E+00  0.00000000000E+00  0.44812140154E+03  0.44812140154E+03  0.00000000000E+00 0.  1.
         21   -1    0    0  501  503 -0.00000000000E+00 -0.00000000000E+00 -0.87641012863E+02  0.87641012863E+02  0.00000000000E+00 0.  1.
          6    1    1    2  501    0 -0.20662695238E+02 -0.49686651835E+02  0.71687558584E+02  0.19484305582E+03  0.17300000000E+03 0.  1.
         -6    1    1    2    0  502  0.20662695238E+02  0.49686651835E+02  0.28879283010E+03  0.34091935859E+03  0.17300000000E+03 0.  1.
<mgrwt>
<rscale>  2 0.18117591E+03</rscale>
<asrwt>0</asrwt>
<pdfrwt beam="1">  1       21 0.68941753E-01 0.18117591E+03</pdfrwt>
<pdfrwt beam="2">  1       21 0.13483233E-01 0.18117591E+03</pdfrwt>
<totfact> 0.91611895E+04</totfact>
</mgrwt>
</event>
<event>
 4    2  0.3944631E+000  0.1881080E+03  0.7546771E-02  0.1160179E+00
         21   -1    0    0  501  502  0.00000000000E+00  0.00000000000E+00  0.25516951455E+03  0.25516951455E+03  0.00000000000E+00 0. -1.
         21   -1    0    0  502  503 -0.00000000000E+00 -0.00000000000E+00 -0.17143917205E+03  0.17143917205E+03  0.00000000000E+00 0.  1.
          6    1    1    2  501    0 -0.65503192896E+02 -0.34131218269E+02  0.13511990028E+03  0.23160741740E+03  0.17300000000E+03 0. -1.
         -6    1    1    2    0  503  0.65503192896E+02  0.34131218269E+02 -0.51389557787E+02  0.19500126920E+03  0.17300000000E+03 0.  1.
<mgrwt>
<rscale>  2 0.18810797E+03</rscale>
<asrwt>0</asrwt>
<pdfrwt beam="1">  1       21 0.39256849E-01 0.18810797E+03</pdfrwt>
<pdfrwt beam="2">  1       21 0.26375257E-01 0.18810797E+03</pdfrwt>
<totfact> 0.85676892E+04</totfact>
</mgrwt>
</event>
<event>
 4    2  0.3944631E+000  0.1743377E+03  0.7546771E-02  0.1173398E+00
         21   -1    0    0  501  502  0.00000000000E+00  0.00000000000E+00  0.41845331526E+02  0.41845331526E+02  0.00000000000E+00 0.  1.
         21   -1    0    0  502  503 -0.00000000000E+00 -0.00000000000E+00 -0.74272429202E+03  0.74272429202E+03  0.00000000000E+00 0.  1.
          6    1    1    2  501    0  0.20426590117E+02 -0.68839769901E+01 -0.29216242685E+03  0.34022421781E+03  0.17300000000E+03 0.  1.
         -6    1    1    2    0  503 -0.20426590117E+02  0.68839769901E+01 -0.40871653364E+03  0.44434540573E+03  0.17300000000E+03 0.  1.
<mgrwt>
<rscale>  2 0.17433770E+03</rscale>
<asrwt>0</asrwt>
<pdfrwt beam="1">  1       21 0.64377431E-02 0.17433770E+03</pdfrwt>
<pdfrwt beam="2">  1       21 0.11426528E+00 0.17433770E+03</pdfrwt>
<totfact> 0.10487042E+05</totfact>
</mgrwt>
</event>
<event>
 4    2  0.3944631E+000  0.2242769E+03  0.7546771E-02  0.1130734E+00
         21   -1    0    0  501  502  0.00000000000E+00  0.00000000000E+00  0.28554214087E+03  0.28554214087E+03  0.00000000000E+00 0.  1.
         21   -1    0    0  502  503 -0.00000000000E+00 -0.00000000000E+00 -0.18747809153E+03  0.18747809153E+03  0.00000000000E+00 0. -1.
          6    1    1    2  501    0  0.71984553693E+02 -0.12324516859E+03 -0.90879323510E+01  0.22446099453E+03  0.17300000000E+03 0.  1.
         -6    1    1    2    0  503 -0.71984553693E+02  0.12324516859E+03  0.10715198168E+03  0.24855923787E+03  0.17300000000E+03 0.  1.
<mgrwt>
<rscale>  2 0.22427694E+03</rscale>
<asrwt>0</asrwt>
<pdfrwt beam="1">  1       21 0.43929560E-01 0.22427694E+03</pdfrwt>
<pdfrwt beam="2">  1       21 0.28842783E-01 0.22427694E+03</pdfrwt>
<totfact> 0.56449966E+04</totfact>
</mgrwt>
</event>
<event>
 4    2  0.3944631E+000  0.1890609E+03  0.7546771E-02  0.1159311E+00
         21   -1    0    0  501  502  0.00000000000E+00  0.00000000000E+00  0.65680559966E+03  0.65680559966E+03  0.00000000000E+00 0.  1.
         21   -1    0    0  502  503 -0.00000000000E+00 -0.00000000000E+00 -0.54435942474E+02  0.54435942474E+02  0.00000000000E+00 0.  1.
          6    1    1    2  501    0 -0.75543423820E+02  0.10403393117E+02  0.30707014339E+03  0.36060520300E+03  0.17300000000E+03 0.  1.
         -6    1    1    2    0  503  0.75543423820E+02 -0.10403393117E+02  0.29529951379E+03  0.35063633913E+03  0.17300000000E+03 0.  1.
<mgrwt>
<rscale>  2 0.18906094E+03</rscale>
<asrwt>0</asrwt>
<pdfrwt beam="1">  1       21 0.10104701E+00 0.18906094E+03</pdfrwt>
<pdfrwt beam="2">  1       21 0.83747608E-02 0.18906094E+03</pdfrwt>
<totfact> 0.88870536E+04</totfact>
</mgrwt>
</event>
<event>
 4    2  0.3944631E+000  0.1881385E+03  0.7546771E-02  0.1160151E+00
         21   -1    0    0  503  502  0.00000000000E+00  0.00000000000E+00  0.18404529814E+04  0.18404529814E+04  0.00000000000E+00 0.  1.
         21   -1    0    0  501  503 -0.00000000000E+00 -0.00000000000E+00 -0.23552394340E+02  0.23552394340E+02  0.00000000000E+00 0.  1.
          6    1    1    2  501    0 -0.58627451986E+02 -0.45054778648E+02  0.50929017731E+03  0.54292964176E+03  0.17300000000E+03 0.  1.
         -6    1    1    2    0  502  0.58627451986E+02  0.45054778648E+02  0.13076104097E+04  0.13210757340E+04  0.17300000000E+03 0.  1.
<mgrwt>
<rscale>  2 0.18813854E+03</rscale>
<asrwt>0</asrwt>
<pdfrwt beam="1">  1       21 0.28314650E+00 0.18813854E+03</pdfrwt>
<pdfrwt beam="2">  1       21 0.36234467E-02 0.18813854E+03</pdfrwt>
<totfact> 0.19818963E+04</totfact>
</mgrwt>
</event>
<event>
 4    2  0.3944631E+000  0.2975284E+03  0.7546771E-02  0.1086483E+00
         21   -1    0    0  501  502  0.00000000000E+00  0.00000000000E+00  0.55782827240E+03  0.55782827240E+03  0.00000000000E+00 0.  1.
         21   -1    0    0  502  503 -0.00000000000E+00 -0.00000000000E+00 -0.16446728516E+03  0.16446728516E+03  0.00000000000E+00 0. -1.
          6    1    1    2  501    0 -0.12589165313E+03  0.20674973210E+03  0.12900782411E+03  0.32429335290E+03  0.17300000000E+03 0.  1.
         -6    1    1    2    0  503  0.12589165313E+03 -0.20674973210E+03  0.26435316314E+03  0.39800220466E+03  0.17300000000E+03 0. -1.
<mgrwt>
<rscale>  2 0.29752842E+03</rscale>
<asrwt>0</asrwt>
<pdfrwt beam="1">  1       21 0.85819733E-01 0.29752842E+03</pdfrwt>
<pdfrwt beam="2">  1       21 0.25302660E-01 0.29752842E+03</pdfrwt>
<totfact> 0.16424618E+04</totfact>
</mgrwt>
</event>
<event>
 4    2  0.3944631E+000  0.2226308E+03  0.7546771E-02  0.1131937E+00
         21   -1    0    0  501  502  0.00000000000E+00  0.00000000000E+00  0.10724858806E+03  0.10724858806E+03  0.00000000000E+00 0. -1.
         21   -1    0    0  502  503 -0.00000000000E+00 -0.00000000000E+00 -0.11847262967E+04  0.11847262967E+04  0.00000000000E+00 0.  1.
          6    1    1    2  501    0 -0.37077328484E+02  0.13513228837E+03 -0.34242261394E+02  0.22524874275E+03  0.17300000000E+03 0. -1.
         -6    1    1    2    0  503  0.37077328484E+02 -0.13513228837E+03 -0.10432354473E+04  0.10667261420E+04  0.17300000000E+03 0.  1.
<mgrwt>
<rscale>  2 0.22263078E+03</rscale>
<asrwt>0</asrwt>
<pdfrwt beam="1">  1       21 0.16499782E-01 0.22263078E+03</pdfrwt>
<pdfrwt beam="2">  1       21 0.18226559E+00 0.22263078E+03</pdfrwt>
<totfact> 0.56447180E+03</totfact>
</mgrwt>
</event>
<event>
 4    2  0.3944631E+000  0.1762018E+03  0.7546771E-02  0.1171530E+00
         21   -1    0    0  503  502  0.00000000000E+00  0.00000000000E+00  0.57720303179E+03  0.57720303179E+03  0.00000000000E+00 0.  1.
         21   -1    0    0  501  503 -0.00000000000E+00 -0.00000000000E+00 -0.82086941848E+02  0.82086941848E+02  0.00000000000E+00 0.  1.
          6    1    1    2  501    0 -0.33116298134E+02 -0.46229705276E+01  0.54010190218E+02  0.18429368330E+03  0.17300000000E+03 0.  1.
         -6    1    1    2    0  502  0.33116298134E+02  0.46229705276E+01  0.44110589973E+03  0.47499629033E+03  0.17300000000E+03 0.  1.
<mgrwt>
<rscale>  2 0.17620176E+03</rscale>
<asrwt>0</asrwt>
<pdfrwt beam="1">  1       21 0.88800464E-01 0.17620176E+03</pdfrwt>
<pdfrwt beam="2">  1       21 0.12628761E-01 0.17620176E+03</pdfrwt>
<totfact> 0.58483353E+04</totfact>
</mgrwt>
</event>
<event>
 4    2  0.3944631E+000  0.2002544E+03  0.7546771E-02  0.1149525E+00
         21   -1    0    0  503  502  0.00000000000E+00  0.00000000000E+00  0.11883200374E+04  0.11883200374E+04  0.00000000000E+00 0.  1.
         21   -1    0    0  501  503 -0.00000000000E+00 -0.00000000000E+00 -0.13936597908E+03  0.13936597908E+03  0.00000000000E+00 0.  1.
          6    1    1    2  501    0 -0.87620268725E+02  0.49955242154E+02 -0.53430925876E+02  0.20725998540E+03  0.17300000000E+03 0.  1.
         -6    1    1    2    0  502  0.87620268725E+02 -0.49955242154E+02  0.11023849842E+04  0.11204260311E+04  0.17300000000E+03 0.  1.
<mgrwt>
<rscale>  2 0.20025443E+03</rscale>
<asrwt>0</asrwt>
<pdfrwt beam="1">  1       21 0.18281846E+00 0.20025443E+03</pdfrwt>
<pdfrwt beam="2">  1       21 0.21440921E-01 0.20025443E+03</pdfrwt>
<totfact> 0.35033090E+03</totfact>
</mgrwt>
</event>
<event>
 4    2  0.3944631E+000  0.2297159E+03  0.7546771E-02  0.1126840E+00
         21   -1    0    0  503  502  0.00000000000E+00  0.00000000000E+00  0.90173737826E+02  0.90173737826E+02  0.00000000000E+00 0.  1.
         21   -1    0    0  501  503 -0.00000000000E+00 -0.00000000000E+00 -0.89273919476E+03  0.89273919476E+03  0.00000000000E+00 0.  1.
          6    1    1    2  501    0  0.15087344221E+03  0.88088636026E+01 -0.68973580758E+03  0.72698340827E+03  0.17300000000E+03 0.  1.
         -6    1    1    2    0  502 -0.15087344221E+03 -0.88088636026E+01 -0.11282964935E+03  0.25592952431E+03  0.17300000000E+03 0.  1.
<mgrwt>
<rscale>  2 0.22971589E+03</rscale>
<asrwt>0</asrwt>
<pdfrwt beam="1">  1       21 0.13872883E-01 0.22971589E+03</pdfrwt>
<pdfrwt beam="2">  1       21 0.13734449E+00 0.22971589E+03</pdfrwt>
<totfact> 0.16592471E+04</totfact>
</mgrwt>
</event>
<event>
 4    2  0.3944631E+000  0.1830342E+03  0.7546771E-02  0.1164898E+00
         21   -1    0    0  503  502  0.00000000000E+00  0.00000000000E+00  0.29823770160E+03  0.29823770160E+03  0.00000000000E+00 0.  1.
         21   -1    0    0  501  503 -0.00000000000E+00 -0.00000000000E+00 -0.12690443817E+03  0.12690443817E+03  0.00000000000E+00 0.  1.
          6    1    1    2  501    0 -0.20399526284E+02  0.56181552856E+02  0.13632494966E+02  0.18354114654E+03  0.17300000000E+03 0.  1.
         -6    1    1    2    0  502  0.20399526284E+02 -0.56181552856E+02  0.15770076847E+03  0.24160099323E+03  0.17300000000E+03 0.  1.
<mgrwt>
<rscale>  2 0.18303417E+03</rscale>
<asrwt>0</asrwt>
<pdfrwt beam="1">  1       21 0.45882723E-01 0.18303417E+03</pdfrwt>
<pdfrwt beam="2">  1       21 0.19523760E-01 0.18303417E+03</pdfrwt>
<totfact> 0.11031754E+05</totfact>
</mgrwt>
</event>
<event>
 4    2  0.3944631E+000  0.1773857E+03  0.7546771E-02  0.1170357E+00
         21   -1    0    0  501  502  0.00000000000E+00  0.00000000000E+00  0.23655628811E+02  0.23655628811E+02  0.00000000000E+00 0.  1.
         21   -1    0    0  502  503 -0.00000000000E+00 -0.00000000000E+00 -0.19287221533E+04  0.19287221533E+04  0.00000000000E+00 0.  1.
          6    1    1    2  501    0 -0.29036523840E+02 -0.26335862276E+02 -0.40871374998E+03  0.44554755838E+03  0.17300000000E+03 0.  1.
         -6    1    1    2    0  503  0.29036523840E+02  0.26335862276E+02 -0.14963527745E+04  0.15068302237E+04  0.17300000000E+03 0.  1.
<mgrwt>
<rscale>  2 0.17738573E+03</rscale>
<asrwt>0</asrwt>
<pdfrwt beam="1">  1       21 0.36393275E-02 0.17738573E+03</pdfrwt>
<pdfrwt beam="2">  1       21 0.29672648E+00 0.17738573E+03</pdfrwt>
<totfact> 0.16625394E+04</totfact>
</mgrwt>
</event>
<event>
 4    2  0.3944631E+000  0.2164749E+03  0.7546771E-02  0.1136539E+00
         21   -1    0    0  503  502  0.00000000000E+00  0.00000000000E+00  0.69071742810E+02  0.69071742810E+02  0.00000000000E+00 0.  1.
         21   -1    0    0  501  503 -0.00000000000E+00 -0.00000000000E+00 -0.84523992583E+03  0.84523992583E+03  0.00000000000E+00 0. -1.
          6    1    1    2  501    0 -0.12409740121E+03  0.39143502630E+02 -0.59116340096E+03  0.62955186079E+03  0.17300000000E+03 0. -1.
         -6    1    1    2    0  502  0.12409740121E+03 -0.39143502630E+02 -0.18500478206E+03  0.28475980786E+03  0.17300000000E+03 0.  1.
<mgrwt>
<rscale>  2 0.21647489E+03</rscale>
<asrwt>0</asrwt>
<pdfrwt beam="1">  1       21 0.10626421E-01 0.21647489E+03</pdfrwt>
<pdfrwt beam="2">  1       21 0.13003692E+00 0.21647489E+03</pdfrwt>
<totfact> 0.31041223E+04</totfact>
</mgrwt>
</event>
<event>
 4    2  0.3944631E+000  0.2465594E+03  0.7546771E-02  0.1115499E+00
         21   -1    0    0  501  502  0.00000000000E+00  0.00000000000E+00  0.62266920480E+03  0.62266920480E+03  0.00000000000E+00 0. -1.
         21   -1    0    0  502  503 -0.00000000000E+00 -0.00000000000E+00 -0.16257314117E+03  0.16257314117E+03  0.00000000000E+00 0.  1.
          6    1    1    2  501    0  0.17380855831E+03 -0.25556050255E+02  0.47819797453E+03  0.53801935791E+03  0.17300000000E+03 0. -1.
         -6    1    1    2    0  503 -0.17380855831E+03  0.25556050255E+02 -0.18101910905E+02  0.24722298806E+03  0.17300000000E+03 0.  1.
<mgrwt>
<rscale>  2 0.24655938E+03</rscale>
<asrwt>0</asrwt>
<pdfrwt beam="1">  1       21 0.95795261E-01 0.24655938E+03</pdfrwt>
<pdfrwt beam="2">  1       21 0.25011253E-01 0.24655938E+03</pdfrwt>
<totfact> 0.13303701E+04</totfact>
</mgrwt>
</event>
<event>
 4    2  0.3944631E+000  0.2375967E+03  0.7546771E-02  0.1121404E+00
         21   -1    0    0  501  502  0.00000000000E+00  0.00000000000E+00  0.28668869504E+03  0.28668869504E+03  0.00000000000E+00 0.  1.
         21   -1    0    0  502  503 -0.00000000000E+00 -0.00000000000E+00 -0.22397772623E+03  0.22397772623E+03  0.00000000000E+00 0.  1.
          6    1    1    2  501    0 -0.13953399226E+03  0.83984973492E+02  0.12011629681E+03  0.26623323520E+03  0.17300000000E+03 0.  1.
         -6    1    1    2    0  503  0.13953399226E+03 -0.83984973492E+02 -0.57405328001E+02  0.24443318607E+03  0.17300000000E+03 0.  1.
<mgrwt>
<rscale>  2 0.23759674E+03</rscale>
<asrwt>0</asrwt>
<pdfrwt beam="1">  1       21 0.44105953E-01 0.23759674E+03</pdfrwt>
<pdfrwt beam="2">  1       21 0.34458112E-01 0.23759674E+03</pdfrwt>
<totfact> 0.39216702E+04</totfact>
</mgrwt>
</event>
<event>
 4    2  0.3944631E+000  0.2289771E+03  0.7546771E-02  0.1127362E+00
         21   -1    0    0  503  502  0.00000000000E+00  0.00000000000E+00  0.10535338481E+03  0.10535338481E+03  0.00000000000E+00 0. -1.
         21   -1    0    0  501  503 -0.00000000000E+00 -0.00000000000E+00 -0.74993752946E+03  0.74993752946E+03  0.00000000000E+00 0.  1.
          6    1    1    2  501    0 -0.12985295745E+03 -0.75097998209E+02 -0.74259983072E+02  0.24071777039E+03  0.17300000000E+03 0. -1.
         -6    1    1    2    0  502  0.12985295745E+03  0.75097998209E+02 -0.57032416158E+03  0.61457314387E+03  0.17300000000E+03 0.  1.
<mgrwt>
<rscale>  2 0.22897707E+03</rscale>
<asrwt>0</asrwt>
<pdfrwt beam="1">  1       21 0.16208213E-01 0.22897707E+03</pdfrwt>
<pdfrwt beam="2">  1       21 0.11537500E+00 0.22897707E+03</pdfrwt>
<totfact> 0.19373672E+04</totfact>
</mgrwt>
</event>
<event>
 4    2  0.3944631E+000  0.1941023E+03  0.7546771E-02  0.1154813E+00
         21   -1    0    0  503  502  0.00000000000E+00  0.00000000000E+00  0.23376716549E+03  0.23376716549E+03  0.00000000000E+00 0.  1.
         21   -1    0    0  501  503 -0.00000000000E+00 -0.00000000000E+00 -0.23438622286E+03  0.23438622286E+03  0.00000000000E+00 0.  1.
          6    1    1    2  501    0 -0.59106648672E+02 -0.65215835831E+02 -0.13113816361E+03  0.23424969395E+03  0.17300000000E+03 0.  1.
         -6    1    1    2    0  502  0.59106648672E+02  0.65215835831E+02  0.13051910624E+03  0.23390369440E+03  0.17300000000E+03 0.  1.
<mgrwt>
<rscale>  2 0.19410230E+03</rscale>
<asrwt>0</asrwt>
<pdfrwt beam="1">  1       21 0.35964179E-01 0.19410230E+03</pdfrwt>
<pdfrwt beam="2">  1       21 0.36059419E-01 0.19410230E+03</pdfrwt>
<totfact> 0.55257616E+04</totfact>
</mgrwt>
</event>
<event>
 4    2  0.3944631E+000  0.1893807E+03  0.7546771E-02  0.1159021E+00
         21   -1    0    0  503  502  0.00000000000E+00  0.00000000000E+00  0.80695889952E+03  0.80695889952E+03  0.00000000000E+00 0.  1.
         21   -1    0    0  501  503 -0.00000000000E+00 -0.00000000000E+00 -0.44913284609E+02  0.44913284609E+02  0.00000000000E+00 0.  1.
          6    1    1    2  501    0 -0.13190811329E+02 -0.75908193996E+02  0.33751691855E+03  0.38701772792E+03  0.17300000000E+03 0. -1.
         -6    1    1    2    0  502  0.13190811329E+02  0.75908193996E+02  0.42452869636E+03  0.46485445620E+03  0.17300000000E+03 0. -1.
<mgrwt>
<rscale>  2 0.18938070E+03</rscale>
<asrwt>0</asrwt>
<pdfrwt beam="1">  1       21 0.12414751E+00 0.18938070E+03</pdfrwt>
<pdfrwt beam="2">  1       21 0.69097367E-02 0.18938070E+03</pdfrwt>
<totfact> 0.75183248E+04</totfact>
</mgrwt>
</event>
<event>
 4    2  0.3944631E+000  0.2321658E+03  0.7546771E-02  0.1125125E+00
         21   -1    0    0  503  502  0.00000000000E+00  0.00000000000E+00  0.41467352839E+03  0.41467352839E+03  0.00000000000E+00 0. -1.
         21   -1    0    0  501  503 -0.00000000000E+00 -0.00000000000E+00 -0.13370140147E+03  0.13370140147E+03  0.00000000000E+00 0.  1.
          6    1    1    2  501    0  0.98051308487E+02  0.11982436711E+03  0.18620513041E+03  0.29761264865E+03  0.17300000000E+03 0. -1.
         -6    1    1    2    0  502 -0.98051308487E+02 -0.11982436711E+03  0.94766996521E+02  0.25076228121E+03  0.17300000000E+03 0.  1.
<mgrwt>
<rscale>  2 0.23216576E+03</rscale>
<asrwt>0</asrwt>
<pdfrwt beam="1">  1       21 0.63795927E-01 0.23216576E+03</pdfrwt>
<pdfrwt beam="2">  1       21 0.20569447E-01 0.23216576E+03</pdfrwt>
<totfact> 0.48802345E+04</totfact>
</mgrwt>
</event>
<event>
 4    2  0.3944631E+000  0.1898119E+03  0.7546771E-02  0.1158631E+00
         21   -1    0    0  501  502  0.00000000000E+00  0.00000000000E+00  0.73625333633E+03  0.73625333633E+03  0.00000000000E+00 0.  1.
         21   -1    0    0  502  503 -0.00000000000E+00 -0.00000000000E+00 -0.56513832061E+02  0.56513832061E+02  0.00000000000E+00 0.  1.
          6    1    1    2  501    0 -0.52776771196E+02  0.57568956590E+02  0.19471247024E+03  0.27192189762E+03  0.17300000000E+03 0.  1.
         -6    1    1    2    0  503  0.52776771196E+02 -0.57568956590E+02  0.48502703403E+03  0.52084527077E+03  0.17300000000E+03 0.  1.
<mgrwt>
<rscale>  2 0.18981194E+03</rscale>
<asrwt>0</asrwt>
<pdfrwt beam="1">  1       21 0.11326974E+00 0.18981194E+03</pdfrwt>
<pdfrwt beam="2">  1       21 0.86944362E-02 0.18981194E+03</pdfrwt>
<totfact> 0.63214825E+04</totfact>
</mgrwt>
</event>
<event>
 4    2  0.3944631E+000  0.1944912E+03  0.7546771E-02  0.1154472E+00
         21   -1    0    0  501  502  0.00000000000E+00  0.00000000000E+00  0.64941492497E+03  0.64941492497E+03  0.00000000000E+00 0. -1.
         21   -1    0    0  502  503 -0.00000000000E+00 -0.00000000000E+00 -0.60859843361E+02  0.60859843361E+02  0.00000000000E+00 0. -1.
          6    1    1    2  501    0  0.20757795658E+02 -0.86411500293E+02  0.36785440770E+03  0.41610539377E+03  0.17300000000E+03 0. -1.
         -6    1    1    2    0  503 -0.20757795658E+02  0.86411500293E+02  0.22070067391E+03  0.29416937456E+03  0.17300000000E+03 0. -1.
<mgrwt>
<rscale>  2 0.19449122E+03</rscale>
<asrwt>0</asrwt>
<pdfrwt beam="1">  1       21 0.99909984E-01 0.19449122E+03</pdfrwt>
<pdfrwt beam="2">  1       21 0.93630533E-02 0.19449122E+03</pdfrwt>
<totfact> 0.74911490E+04</totfact>
</mgrwt>
</event>
<event>
 4    2  0.3944631E+000  0.1922416E+03  0.7546771E-02  0.1156455E+00
         21   -1    0    0  501  502  0.00000000000E+00  0.00000000000E+00  0.14060009494E+03  0.14060009494E+03  0.00000000000E+00 0.  1.
         21   -1    0    0  502  503 -0.00000000000E+00 -0.00000000000E+00 -0.26911241293E+03  0.26911241293E+03  0.00000000000E+00 0.  1.
          6    1    1    2  501    0  0.58991847663E+02  0.59563369147E+02 -0.95504648001E+02  0.21465779936E+03  0.17300000000E+03 0.  1.
         -6    1    1    2    0  503 -0.58991847663E+02 -0.59563369147E+02 -0.33007669985E+02  0.19505470851E+03  0.17300000000E+03 0.  1.
<mgrwt>
<rscale>  2 0.19224160E+03</rscale>
<asrwt>0</asrwt>
<pdfrwt beam="1">  1       21 0.21630784E-01 0.19224160E+03</pdfrwt>
<pdfrwt beam="2">  1       21 0.41401909E-01 0.19224160E+03</pdfrwt>
<totfact> 0.11197239E+05</totfact>
</mgrwt>
</event>
<event>
 4    2  0.3944631E+000  0.2160831E+03  0.7546771E-02  0.1136837E+00
         21   -1    0    0  501  502  0.00000000000E+00  0.00000000000E+00  0.42480776690E+02  0.42480776690E+02  0.00000000000E+00 0. -1.
         21   -1    0    0  502  503 -0.00000000000E+00 -0.00000000000E+00 -0.14015965166E+04  0.14015965166E+04  0.00000000000E+00 0. -1.
          6    1    1    2  501    0 -0.12803587088E+03  0.19228271097E+02 -0.10149766269E+04  0.10377232115E+04  0.17300000000E+03 0. -1.
         -6    1    1    2    0  503  0.12803587088E+03 -0.19228271097E+02 -0.34413911302E+03  0.40635408175E+03  0.17300000000E+03 0. -1.
<mgrwt>
<rscale>  2 0.21608311E+03</rscale>
<asrwt>0</asrwt>
<pdfrwt beam="1">  1       21 0.65355052E-02 0.21608311E+03</pdfrwt>
<pdfrwt beam="2">  1       21 0.21563020E+00 0.21608311E+03</pdfrwt>
<totfact> 0.17894534E+04</totfact>
</mgrwt>
</event>
<event>
 4    2  0.3944631E+000  0.1738500E+03  0.7546771E-02  0.1173891E+00
         21   -1    0    0  501  502  0.00000000000E+00  0.00000000000E+00  0.71366653908E+03  0.71366653908E+03  0.00000000000E+00 0.  1.
         21   -1    0    0  502  503 -0.00000000000E+00 -0.00000000000E+00 -0.13083804883E+03  0.13083804883E+03  0.00000000000E+00 0.  1.
          6    1    1    2  501    0 -0.15346489375E+02  0.77009940803E+01  0.63866816179E+03  0.66190697302E+03  0.17300000000E+03 0.  1.
         -6    1    1    2    0  503  0.15346489375E+02 -0.77009940803E+01 -0.55839671535E+02  0.18259761489E+03  0.17300000000E+03 0.  1.
<mgrwt>
<rscale>  2 0.17384999E+03</rscale>
<asrwt>0</asrwt>
<pdfrwt beam="1">  1       21 0.10979485E+00 0.17384999E+03</pdfrwt>
<pdfrwt beam="2">  1       21 0.20128931E-01 0.17384999E+03</pdfrwt>
<totfact> 0.15154028E+04</totfact>
</mgrwt>
</event>
<event>
 4    2  0.3944631E+000  0.2635188E+03  0.7546771E-02  0.1105047E+00
         21   -1    0    0  501  502  0.00000000000E+00  0.00000000000E+00  0.80875252736E+03  0.80875252736E+03  0.00000000000E+00 0. -1.
         21   -1    0    0  502  503 -0.00000000000E+00 -0.00000000000E+00 -0.86199341789E+02  0.86199341789E+02  0.00000000000E+00 0.  1.
          6    1    1    2  501    0  0.13870786677E+03  0.14238420368E+03  0.38921721178E+03  0.47003422397E+03  0.17300000000E+03 0.  1.
         -6    1    1    2    0  503 -0.13870786677E+03 -0.14238420368E+03  0.33333597379E+03  0.42491764518E+03  0.17300000000E+03 0.  1.
<mgrwt>
<rscale>  2 0.26351875E+03</rscale>
<asrwt>0</asrwt>
<pdfrwt beam="1">  1       21 0.12442346E+00 0.26351875E+03</pdfrwt>
<pdfrwt beam="2">  1       21 0.13261438E-01 0.26351875E+03</pdfrwt>
<totfact> 0.22754366E+04</totfact>
</mgrwt>
</event>
<event>
 4    2  0.3944631E+000  0.2571260E+03  0.7546771E-02  0.1108882E+00
         21   -1    0    0  503  502  0.00000000000E+00  0.00000000000E+00  0.35736669512E+03  0.35736669512E+03  0.00000000000E+00 0.  1.
         21   -1    0    0  501  503 -0.00000000000E+00 -0.00000000000E+00 -0.20665032748E+03  0.20665032748E+03  0.00000000000E+00 0.  1.
          6    1    1    2  501    0 -0.12638040054E+03  0.14217168728E+03 -0.15916340378E+02  0.25761817521E+03  0.17300000000E+03 0.  1.
         -6    1    1    2    0  502  0.12638040054E+03 -0.14217168728E+03  0.16663270801E+03  0.30639884739E+03  0.17300000000E+03 0.  1.
<mgrwt>
<rscale>  2 0.25712603E+03</rscale>
<asrwt>0</asrwt>
<pdfrwt beam="1">  1       21 0.54979491E-01 0.25712603E+03</pdfrwt>
<pdfrwt beam="2">  1       21 0.31792358E-01 0.25712603E+03</pdfrwt>
<totfact> 0.28757787E+04</totfact>
</mgrwt>
</event>
<event>
 4    2  0.3944631E+000  0.1863513E+03  0.7546771E-02  0.1161794E+00
         21   -1    0    0  501  502  0.00000000000E+00  0.00000000000E+00  0.61079829482E+03  0.61079829482E+03  0.00000000000E+00 0.  1.
         21   -1    0    0  502  503 -0.00000000000E+00 -0.00000000000E+00 -0.58170122430E+02  0.58170122430E+02  0.00000000000E+00 0.  1.
          6    1    1    2  501    0  0.24452512388E+02  0.64806502306E+02  0.32661125947E+03  0.37603420445E+03  0.17300000000E+03 0.  1.
         -6    1    1    2    0  503 -0.24452512388E+02 -0.64806502306E+02  0.22601691292E+03  0.29293421280E+03  0.17300000000E+03 0.  1.
<mgrwt>
<rscale>  2 0.18635130E+03</rscale>
<asrwt>0</asrwt>
<pdfrwt beam="1">  1       21 0.93968964E-01 0.18635130E+03</pdfrwt>
<pdfrwt beam="2">  1       21 0.89492500E-02 0.18635130E+03</pdfrwt>
<totfact> 0.93995387E+04</totfact>
</mgrwt>
</event>
<event>
 4    2  0.3944631E+000  0.1856385E+03  0.7546771E-02  0.1162455E+00
         21   -1    0    0  503  502  0.00000000000E+00  0.00000000000E+00  0.17020614695E+03  0.17020614695E+03  0.00000000000E+00 0.  1.
         21   -1    0    0  501  503 -0.00000000000E+00 -0.00000000000E+00 -0.21434473995E+03  0.21434473995E+03  0.00000000000E+00 0.  1.
          6    1    1    2  501    0  0.52342214939E+00  0.67322805671E+02  0.23187096511E+02  0.18708093323E+03  0.17300000000E+03 0.  1.
         -6    1    1    2    0  502 -0.52342214939E+00 -0.67322805671E+02 -0.67325689512E+02  0.19746995367E+03  0.17300000000E+03 0.  1.
<mgrwt>
<rscale>  2 0.18563845E+03</rscale>
<asrwt>0</asrwt>
<pdfrwt beam="1">  1       21 0.26185561E-01 0.18563845E+03</pdfrwt>
<pdfrwt beam="2">  1       21 0.32976114E-01 0.18563845E+03</pdfrwt>
<totfact> 0.12301767E+05</totfact>
</mgrwt>
</event>
<event>
 4    2  0.3944631E+000  0.1924915E+03  0.7546771E-02  0.1156233E+00
         21   -1    0    0  503  502  0.00000000000E+00  0.00000000000E+00  0.24598155548E+03  0.24598155548E+03  0.00000000000E+00 0.  1.
         21   -1    0    0  501  503 -0.00000000000E+00 -0.00000000000E+00 -0.19848170490E+03  0.19848170490E+03  0.00000000000E+00 0.  1.
          6    1    1    2  501    0  0.74211633761E+02  0.40207014442E+02 -0.85363993581E+02  0.21057061048E+03  0.17300000000E+03 0. -1.
         -6    1    1    2    0  502 -0.74211633761E+02 -0.40207014442E+02  0.13286384415E+03  0.23389264990E+03  0.17300000000E+03 0. -1.
<mgrwt>
<rscale>  2 0.19249148E+03</rscale>
<asrwt>0</asrwt>
<pdfrwt beam="1">  1       21 0.37843316E-01 0.19249148E+03</pdfrwt>
<pdfrwt beam="2">  1       21 0.30535647E-01 0.19249148E+03</pdfrwt>
<totfact> 0.69334191E+04</totfact>
</mgrwt>
</event>
<event>
 4    2  0.3944631E+000  0.2110744E+03  0.7546771E-02  0.1140718E+00
         21   -1    0    0  503  502  0.00000000000E+00  0.00000000000E+00  0.16707717842E+03  0.16707717842E+03  0.00000000000E+00 0.  1.
         21   -1    0    0  501  503 -0.00000000000E+00 -0.00000000000E+00 -0.40155672816E+03  0.40155672816E+03  0.00000000000E+00 0. -1.
          6    1    1    2  501    0 -0.12087930489E+03 -0.34076785397E+01 -0.28203085087E+03  0.35226952674E+03  0.17300000000E+03 0. -1.
         -6    1    1    2    0  502  0.12087930489E+03  0.34076785397E+01  0.47551301128E+02  0.21636437984E+03  0.17300000000E+03 0.  1.
<mgrwt>
<rscale>  2 0.21107444E+03</rscale>
<asrwt>0</asrwt>
<pdfrwt beam="1">  1       21 0.25704181E-01 0.21107444E+03</pdfrwt>
<pdfrwt beam="2">  1       21 0.61777958E-01 0.21107444E+03</pdfrwt>
<totfact> 0.34611623E+04</totfact>
</mgrwt>
</event>
<event>
 4    2  0.3944631E+000  0.3688776E+03  0.7546771E-02  0.1055123E+00
         21   -1    0    0  501  502  0.00000000000E+00  0.00000000000E+00  0.29380008089E+03  0.29380008089E+03  0.00000000000E+00 0.  1.
         21   -1    0    0  502  503 -0.00000000000E+00 -0.00000000000E+00 -0.79299474600E+03  0.79299474600E+03  0.00000000000E+00 0. -1.
          6    1    1    2  501    0  0.40925683460E+02 -0.32321317421E+03  0.10086678628E+03  0.38241963355E+03  0.17300000000E+03 0.  1.
         -6    1    1    2    0  503 -0.40925683460E+02  0.32321317421E+03 -0.60006145139E+03  0.70437519334E+03  0.17300000000E+03 0. -1.
<mgrwt>
<rscale>  2 0.36887758E+03</rscale>
<asrwt>0</asrwt>
<pdfrwt beam="1">  1       21 0.45200013E-01 0.36887758E+03</pdfrwt>
<pdfrwt beam="2">  1       21 0.12199919E+00 0.36887758E+03</pdfrwt>
<totfact> 0.21204662E+03</totfact>
</mgrwt>
</event>
<event>
 4    2  0.3944631E+000  0.3236354E+03  0.7546771E-02  0.1073988E+00
         21   -1    0    0  501  502  0.00000000000E+00  0.00000000000E+00  0.45687324985E+03  0.45687324985E+03  0.00000000000E+00 0.  1.
         21   -1    0    0  502  503 -0.00000000000E+00 -0.00000000000E+00 -0.34820650079E+03  0.34820650079E+03  0.00000000000E+00 0.  1.
          6    1    1    2  501    0 -0.25857774585E+03 -0.89154050064E+02 -0.18094269542E+03  0.37078316348E+03  0.17300000000E+03 0.  1.
         -6    1    1    2    0  503  0.25857774585E+03  0.89154050064E+02  0.28960944447E+03  0.43429658716E+03  0.17300000000E+03 0.  1.
<mgrwt>
<rscale>  2 0.32363544E+03</rscale>
<asrwt>0</asrwt>
<pdfrwt beam="1">  1       21 0.70288193E-01 0.32363544E+03</pdfrwt>
<pdfrwt beam="2">  1       21 0.53570231E-01 0.32363544E+03</pdfrwt>
<totfact> 0.56010942E+03</totfact>
</mgrwt>
</event>
<event>
 4    2  0.3944631E+000  0.1902701E+03  0.7546771E-02  0.1158218E+00
         21   -1    0    0  503  502  0.00000000000E+00  0.00000000000E+00  0.14891144871E+03  0.14891144871E+03  0.00000000000E+00 0.  1.
         21   -1    0    0  501  503 -0.00000000000E+00 -0.00000000000E+00 -0.52033617465E+03  0.52033617465E+03  0.00000000000E+00 0.  1.
          6    1    1    2  501    0 -0.28973405382E+02 -0.73717278860E+02 -0.42995842246E+03  0.47017756270E+03  0.17300000000E+03 0.  1.
         -6    1    1    2    0  502  0.28973405382E+02  0.73717278860E+02  0.58533696515E+02  0.19907006066E+03  0.17300000000E+03 0.  1.
<mgrwt>
<rscale>  2 0.19027006E+03</rscale>
<asrwt>0</asrwt>
<pdfrwt beam="1">  1       21 0.22909454E-01 0.19027006E+03</pdfrwt>
<pdfrwt beam="2">  1       21 0.80051718E-01 0.19027006E+03</pdfrwt>
<totfact> 0.24591654E+04</totfact>
</mgrwt>
</event>
<event>
 4    2  0.3944631E+000  0.1934780E+03  0.7546771E-02  0.1155361E+00
         21   -1    0    0  503  502  0.00000000000E+00  0.00000000000E+00  0.83487269871E+03  0.83487269871E+03  0.00000000000E+00 0. -1.
         21   -1    0    0  501  503 -0.00000000000E+00 -0.00000000000E+00 -0.64393602169E+02  0.64393602169E+02  0.00000000000E+00 0.  1.
          6    1    1    2  501    0 -0.79785092053E+02  0.33750404772E+02  0.13745388843E+03  0.23733377800E+03  0.17300000000E+03 0.  1.
         -6    1    1    2    0  502  0.79785092053E+02 -0.33750404772E+02  0.63302520812E+03  0.66193252288E+03  0.17300000000E+03 0. -1.
<mgrwt>
<rscale>  2 0.19347804E+03</rscale>
<asrwt>0</asrwt>
<pdfrwt beam="1">  1       21 0.12844195E+00 0.19347804E+03</pdfrwt>
<pdfrwt beam="2">  1       21 0.99067086E-02 0.19347804E+03</pdfrwt>
<totfact> 0.36745264E+04</totfact>
</mgrwt>
</event>
<event>
 4    2  0.3944631E+000  0.1795923E+03  0.7546771E-02  0.1168198E+00
         21   -1    0    0  501  502  0.00000000000E+00  0.00000000000E+00  0.13308558362E+04  0.13308558362E+04  0.00000000000E+00 0. -1.
         21   -1    0    0  502  503 -0.00000000000E+00 -0.00000000000E+00 -0.24605064153E+02  0.24605064153E+02  0.00000000000E+00 0. -1.
          6    1    1    2  501    0  0.10061274828E+02  0.47150579322E+02  0.73623140183E+03  0.75781929470E+03  0.17300000000E+03 0.  1.
         -6    1    1    2    0  503 -0.10061274828E+02 -0.47150579322E+02  0.57001937018E+03  0.59764160561E+03  0.17300000000E+03 0.  1.
<mgrwt>
<rscale>  2 0.17959233E+03</rscale>
<asrwt>0</asrwt>
<pdfrwt beam="1">  1       21 0.20474700E+00 0.17959233E+03</pdfrwt>
<pdfrwt beam="2">  1       21 0.37853955E-02 0.17959233E+03</pdfrwt>
<totfact> 0.54283440E+04</totfact>
</mgrwt>
</event>
<event>
 4    2  0.3944631E+000  0.2362505E+03  0.7546771E-02  0.1122316E+00
         21   -1    0    0  501  502  0.00000000000E+00  0.00000000000E+00  0.12134975261E+04  0.12134975261E+04  0.00000000000E+00 0. -1.
         21   -1    0    0  502  503 -0.00000000000E+00 -0.00000000000E+00 -0.46544801869E+02  0.46544801869E+02  0.00000000000E+00 0. -1.
          6    1    1    2  501    0 -0.15798797231E+03  0.30415513691E+02  0.51497637676E+03  0.56658183124E+03  0.17300000000E+03 0. -1.
         -6    1    1    2    0  503  0.15798797231E+03 -0.30415513691E+02  0.65197634746E+03  0.69346049672E+03  0.17300000000E+03 0. -1.
<mgrwt>
<rscale>  2 0.23625051E+03</rscale>
<asrwt>0</asrwt>
<pdfrwt beam="1">  1       21 0.18669190E+00 0.23625051E+03</pdfrwt>
<pdfrwt beam="2">  1       21 0.71607397E-02 0.23625051E+03</pdfrwt>
<totfact> 0.23171045E+04</totfact>
</mgrwt>
</event>
<event>
 4    2  0.3944631E+000  0.1739274E+03  0.7546771E-02  0.1173813E+00
         21   -1    0    0  501  502  0.00000000000E+00  0.00000000000E+00  0.29366834038E+02  0.29366834038E+02  0.00000000000E+00 0. -1.
         21   -1    0    0  502  503 -0.00000000000E+00 -0.00000000000E+00 -0.18506141473E+04  0.18506141473E+04  0.00000000000E+00 0. -1.
          6    1    1    2  501    0  0.54374791097E+01 -0.17092636248E+02 -0.28471779217E+03  0.33363894493E+03  0.17300000000E+03 0. -1.
         -6    1    1    2    0  503 -0.54374791097E+01  0.17092636248E+02 -0.15365295211E+04  0.15463420364E+04  0.17300000000E+03 0. -1.
<mgrwt>
<rscale>  2 0.17392735E+03</rscale>
<asrwt>0</asrwt>
<pdfrwt beam="1">  1       21 0.45179746E-02 0.17392735E+03</pdfrwt>
<pdfrwt beam="2">  1       21 0.28470986E+00 0.17392735E+03</pdfrwt>
<totfact> 0.13612743E+04</totfact>
</mgrwt>
</event>
<event>
 4    2  0.3944631E+000  0.2294013E+03  0.7546771E-02  0.1127062E+00
         21   -1    0    0  501  502  0.00000000000E+00  0.00000000000E+00  0.35602170829E+03  0.35602170829E+03  0.00000000000E+00 0.  1.
         21   -1    0    0  502  503 -0.00000000000E+00 -0.00000000000E+00 -0.20147341545E+03  0.20147341545E+03  0.00000000000E+00 0. -1.
          6    1    1    2  501    0  0.14988231539E+03 -0.15207046470E+02  0.22112932924E+03  0.31862696525E+03  0.17300000000E+03 0.  1.
         -6    1    1    2    0  503 -0.14988231539E+03  0.15207046470E+02 -0.66581036407E+02  0.23886815849E+03  0.17300000000E+03 0.  1.
<mgrwt>
<rscale>  2 0.22940131E+03</rscale>
<asrwt>0</asrwt>
<pdfrwt beam="1">  1       21 0.54772570E-01 0.22940131E+03</pdfrwt>
<pdfrwt beam="2">  1       21 0.30995910E-01 0.22940131E+03</pdfrwt>
<totfact> 0.30862731E+04</totfact>
</mgrwt>
</event>
<event>
 4    2  0.3944631E+000  0.1923960E+03  0.7546771E-02  0.1156318E+00
         21   -1    0    0  501  502  0.00000000000E+00  0.00000000000E+00  0.51911920467E+03  0.51911920467E+03  0.00000000000E+00 0. -1.
         21   -1    0    0  502  503 -0.00000000000E+00 -0.00000000000E+00 -0.53772295748E+03  0.53772295748E+03  0.00000000000E+00 0. -1.
          6    1    1    2  501    0 -0.25610366387E+02  0.80195554124E+02  0.48283748124E+03  0.51975787734E+03  0.17300000000E+03 0. -1.
         -6    1    1    2    0  503  0.25610366387E+02 -0.80195554124E+02 -0.50144123405E+03  0.53708428480E+03  0.17300000000E+03 0. -1.
<mgrwt>
<rscale>  2 0.19239599E+03</rscale>
<asrwt>0</asrwt>
<pdfrwt beam="1">  1       21 0.79864493E-01 0.19239599E+03</pdfrwt>
<pdfrwt beam="2">  1       21 0.82726609E-01 0.19239599E+03</pdfrwt>
<totfact> 0.17604238E+03</totfact>
</mgrwt>
</event>
<event>
 4    2  0.3944631E+000  0.1730228E+03  0.7546771E-02  0.1174732E+00
         21   -1    0    0  501  502  0.00000000000E+00  0.00000000000E+00  0.14028288609E+03  0.14028288609E+03  0.00000000000E+00 0.  1.
         21   -1    0    0  502  503 -0.00000000000E+00 -0.00000000000E+00 -0.42981923403E+03  0.42981923403E+03  0.00000000000E+00 0.  1.
          6    1    1    2  501    0  0.80745345860E+00  0.26915365747E+01  0.57498291540E+02  0.18232649254E+03  0.17300000000E+03 0.  1.
         -6    1    1    2    0  503 -0.80745345860E+00 -0.26915365747E+01 -0.34703463948E+03  0.38777562759E+03  0.17300000000E+03 0.  1.
<mgrwt>
<rscale>  2 0.17302282E+03</rscale>
<asrwt>0</asrwt>
<pdfrwt beam="1">  1       21 0.21581983E-01 0.17302282E+03</pdfrwt>
<pdfrwt beam="2">  1       21 0.66126035E-01 0.17302282E+03</pdfrwt>
<totfact> 0.42435648E+04</totfact>
</mgrwt>
</event>
<event>
 4    2  0.3944631E+000  0.2158195E+03  0.7546771E-02  0.1137039E+00
         21   -1    0    0  503  502  0.00000000000E+00  0.00000000000E+00  0.19519348578E+03  0.19519348578E+03  0.00000000000E+00 0.  1.
         21   -1    0    0  501  503 -0.00000000000E+00 -0.00000000000E+00 -0.37214850712E+03  0.37214850712E+03  0.00000000000E+00 0. -1.
          6    1    1    2  501    0  0.45886304385E+02 -0.12059636646E+03 -0.25839408128E+03  0.33666829042E+03  0.17300000000E+03 0. -1.
         -6    1    1    2    0  502 -0.45886304385E+02  0.12059636646E+03  0.81439059940E+02  0.23067370248E+03  0.17300000000E+03 0. -1.
<mgrwt>
<rscale>  2 0.21581945E+03</rscale>
<asrwt>0</asrwt>
<pdfrwt beam="1">  1       21 0.30029767E-01 0.21581945E+03</pdfrwt>
<pdfrwt beam="2">  1       21 0.57253616E-01 0.21581945E+03</pdfrwt>
<totfact> 0.30085550E+04</totfact>
</mgrwt>
</event>
<event>
 4    2  0.3944631E+000  0.1972050E+03  0.7546771E-02  0.1152119E+00
         21   -1    0    0  501  502  0.00000000000E+00  0.00000000000E+00  0.34445413901E+03  0.34445413901E+03  0.00000000000E+00 0.  1.
         21   -1    0    0  502  503 -0.00000000000E+00 -0.00000000000E+00 -0.38406963709E+03  0.38406963709E+03  0.00000000000E+00 0.  1.
          6    1    1    2  501    0  0.28028185915E+02 -0.90416963177E+02  0.28626672019E+03  0.34761824107E+03  0.17300000000E+03 0.  1.
         -6    1    1    2    0  503 -0.28028185915E+02  0.90416963177E+02 -0.32588221826E+03  0.38090553503E+03  0.17300000000E+03 0.  1.
<mgrwt>
<rscale>  2 0.19720499E+03</rscale>
<asrwt>0</asrwt>
<pdfrwt beam="1">  1       21 0.52992944E-01 0.19720499E+03</pdfrwt>
<pdfrwt beam="2">  1       21 0.59087637E-01 0.19720499E+03</pdfrwt>
<totfact> 0.90049861E+03</totfact>
</mgrwt>
</event>
<event>
 4    2  0.3944631E+000  0.2373987E+03  0.7546771E-02  0.1121538E+00
         21   -1    0    0  501  502  0.00000000000E+00  0.00000000000E+00  0.32791965298E+03  0.32791965298E+03  0.00000000000E+00 0.  1.
         21   -1    0    0  502  503 -0.00000000000E+00 -0.00000000000E+00 -0.24202450839E+03  0.24202450839E+03  0.00000000000E+00 0.  1.
          6    1    1    2  501    0  0.34567731317E+02  0.15885279288E+03 -0.11048365853E+03  0.26184876677E+03  0.17300000000E+03 0.  1.
         -6    1    1    2    0  503 -0.34567731317E+02 -0.15885279288E+03  0.19637880312E+03  0.30809539459E+03  0.17300000000E+03 0.  1.
<mgrwt>
<rscale>  2 0.23739869E+03</rscale>
<asrwt>0</asrwt>
<pdfrwt beam="1">  1       21 0.50449177E-01 0.23739869E+03</pdfrwt>
<pdfrwt beam="2">  1       21 0.37234540E-01 0.23739869E+03</pdfrwt>
<totfact> 0.25403266E+04</totfact>
</mgrwt>
</event>
<event>
 4    2  0.3944631E+000  0.2916223E+03  0.7546771E-02  0.1089505E+00
         21   -1    0    0  503  502  0.00000000000E+00  0.00000000000E+00  0.12870986898E+03  0.12870986898E+03  0.00000000000E+00 0.  1.
         21   -1    0    0  501  503 -0.00000000000E+00 -0.00000000000E+00 -0.85905920201E+03  0.85905920201E+03  0.00000000000E+00 0.  1.
          6    1    1    2  501    0 -0.18805164468E+03 -0.14053882670E+03 -0.60247467874E+03  0.66934245450E+03  0.17300000000E+03 0.  1.
         -6    1    1    2    0  502  0.18805164468E+03  0.14053882670E+03 -0.12787465429E+03  0.31842661649E+03  0.17300000000E+03 0.  1.
<mgrwt>
<rscale>  2 0.29162233E+03</rscale>
<asrwt>0</asrwt>
<pdfrwt beam="1">  1       21 0.19801518E-01 0.29162233E+03</pdfrwt>
<pdfrwt beam="2">  1       21 0.13216296E+00 0.29162233E+03</pdfrwt>
<totfact> 0.91718010E+03</totfact>
</mgrwt>
</event>
<event>
 4    2  0.3944631E+000  0.2237829E+03  0.7546771E-02  0.1131094E+00
         21   -1    0    0  501  502  0.00000000000E+00  0.00000000000E+00  0.23284623716E+03  0.23284623716E+03  0.00000000000E+00 0. -1.
         21   -1    0    0  502  503 -0.00000000000E+00 -0.00000000000E+00 -0.23520158561E+03  0.23520158561E+03  0.00000000000E+00 0.  1.
          6    1    1    2  501    0 -0.53043084930E+02  0.13166706082E+03  0.67285009885E+02  0.23367938788E+03  0.17300000000E+03 0.  1.
         -6    1    1    2    0  503  0.53043084930E+02 -0.13166706082E+03 -0.69640358336E+02  0.23436843489E+03  0.17300000000E+03 0.  1.
<mgrwt>
<rscale>  2 0.22378289E+03</rscale>
<asrwt>0</asrwt>
<pdfrwt beam="1">  1       21 0.35822498E-01 0.22378289E+03</pdfrwt>
<pdfrwt beam="2">  1       21 0.36184859E-01 0.22378289E+03</pdfrwt>
<totfact> 0.54558988E+04</totfact>
</mgrwt>
</event>
<event>
 4    2  0.3944631E+000  0.2552193E+03  0.7546771E-02  0.1110050E+00
         21   -1    0    0  503  502  0.00000000000E+00  0.00000000000E+00  0.22074417707E+03  0.22074417707E+03  0.00000000000E+00 0.  1.
         21   -1    0    0  501  503 -0.00000000000E+00 -0.00000000000E+00 -0.29848320624E+03  0.29848320624E+03  0.00000000000E+00 0.  1.
          6    1    1    2  501    0 -0.12018287042E+03  0.14409715757E+03 -0.66595838557E+02  0.26376489319E+03  0.17300000000E+03 0. -1.
         -6    1    1    2    0  502  0.12018287042E+03 -0.14409715757E+03 -0.11143190608E+02  0.25546249013E+03  0.17300000000E+03 0. -1.
<mgrwt>
<rscale>  2 0.25521934E+03</rscale>
<asrwt>0</asrwt>
<pdfrwt beam="1">  1       21 0.33960643E-01 0.25521934E+03</pdfrwt>
<pdfrwt beam="2">  1       21 0.45920493E-01 0.25521934E+03</pdfrwt>
<totfact> 0.36865337E+04</totfact>
</mgrwt>
</event>
<event>
 4    2  0.3944631E+000  0.2192874E+03  0.7546771E-02  0.1134415E+00
         21   -1    0    0  501  502  0.00000000000E+00  0.00000000000E+00  0.67003571072E+03  0.67003571072E+03  0.00000000000E+00 0.  1.
         21   -1    0    0  502  503 -0.00000000000E+00 -0.00000000000E+00 -0.15729471568E+03  0.15729471568E+03  0.00000000000E+00 0. -1.
          6    1    1    2  501    0 -0.89200766198E+02  0.10100094806E+03  0.56140110391E+03  0.60270902405E+03  0.17300000000E+03 0.  1.
         -6    1    1    2    0  503  0.89200766198E+02 -0.10100094806E+03 -0.48660108867E+02  0.22462140235E+03  0.17300000000E+03 0. -1.
<mgrwt>
<rscale>  2 0.21928741E+03</rscale>
<asrwt>0</asrwt>
<pdfrwt beam="1">  1       21 0.10308242E+00 0.21928741E+03</pdfrwt>
<pdfrwt beam="2">  1       21 0.24199187E-01 0.21928741E+03</pdfrwt>
<totfact> 0.12091117E+04</totfact>
</mgrwt>
</event>
<event>
 4    2  0.3944631E+000  0.1890024E+03  0.7546771E-02  0.1159364E+00
         21   -1    0    0  503  502  0.00000000000E+00  0.00000000000E+00  0.10109294440E+03  0.10109294440E+03  0.00000000000E+00 0.  1.
         21   -1    0    0  501  503 -0.00000000000E+00 -0.00000000000E+00 -0.40887006306E+03  0.40887006306E+03  0.00000000000E+00 0. -1.
          6    1    1    2  501    0  0.62301285957E+01  0.75855685331E+02 -0.59934917448E+02  0.19827781981E+03  0.17300000000E+03 0.  1.
         -6    1    1    2    0  502 -0.62301285957E+01 -0.75855685331E+02 -0.24784220122E+03  0.31168518765E+03  0.17300000000E+03 0. -1.
<mgrwt>
<rscale>  2 0.18900238E+03</rscale>
<asrwt>0</asrwt>
<pdfrwt beam="1">  1       21 0.15552761E-01 0.18900238E+03</pdfrwt>
<pdfrwt beam="2">  1       21 0.62903086E-01 0.18900238E+03</pdfrwt>
<totfact> 0.86069417E+04</totfact>
</mgrwt>
</event>
<event>
 4    2  0.3944631E+000  0.1797499E+03  0.7546771E-02  0.1168045E+00
         21   -1    0    0  501  502  0.00000000000E+00  0.00000000000E+00  0.13329672675E+03  0.13329672675E+03  0.00000000000E+00 0.  1.
         21   -1    0    0  502  503 -0.00000000000E+00 -0.00000000000E+00 -0.70787690058E+03  0.70787690058E+03  0.00000000000E+00 0.  1.
          6    1    1    2  501    0  0.38681672313E+02  0.29745092971E+02  0.53769014561E+02  0.18761969314E+03  0.17300000000E+03 0.  1.
         -6    1    1    2    0  503 -0.38681672313E+02 -0.29745092971E+02 -0.62834918840E+03  0.65355393418E+03  0.17300000000E+03 0.  1.
<mgrwt>
<rscale>  2 0.17974994E+03</rscale>
<asrwt>0</asrwt>
<pdfrwt beam="1">  1       21 0.20507189E-01 0.17974994E+03</pdfrwt>
<pdfrwt beam="2">  1       21 0.10890414E+00 0.17974994E+03</pdfrwt>
<totfact> 0.14865802E+04</totfact>
</mgrwt>
</event>
<event>
 4    2  0.3944631E+000  0.2428347E+03  0.7546771E-02  0.1117919E+00
         21   -1    0    0  501  502  0.00000000000E+00  0.00000000000E+00  0.23270642173E+03  0.23270642173E+03  0.00000000000E+00 0.  1.
         21   -1    0    0  502  503 -0.00000000000E+00 -0.00000000000E+00 -0.31126562057E+03  0.31126562057E+03  0.00000000000E+00 0. -1.
          6    1    1    2  501    0  0.71039631579E+02 -0.15489686928E+03  0.77987831573E+02  0.25505052684E+03  0.17300000000E+03 0.  1.
         -6    1    1    2    0  503 -0.71039631579E+02  0.15489686928E+03 -0.15654703041E+03  0.28892151546E+03  0.17300000000E+03 0. -1.
<mgrwt>
<rscale>  2 0.24283465E+03</rscale>
<asrwt>0</asrwt>
<pdfrwt beam="1">  1       21 0.35800988E-01 0.24283465E+03</pdfrwt>
<pdfrwt beam="2">  1       21 0.47887018E-01 0.24283465E+03</pdfrwt>
<totfact> 0.30572638E+04</totfact>
</mgrwt>
</event>
<event>
 4    2  0.3944631E+000  0.1923025E+03  0.7546771E-02  0.1156401E+00
         21   -1    0    0  501  502  0.00000000000E+00  0.00000000000E+00  0.13027342446E+04  0.13027342446E+04  0.00000000000E+00 0. -1.
         21   -1    0    0  502  503 -0.00000000000E+00 -0.00000000000E+00 -0.38627328916E+02  0.38627328916E+02  0.00000000000E+00 0. -1.
          6    1    1    2  501    0  0.64728437029E+02  0.53492827447E+02  0.97738244076E+03  0.99612082031E+03  0.17300000000E+03 0. -1.
         -6    1    1    2    0  503 -0.64728437029E+02 -0.53492827447E+02  0.28672447487E+03  0.34524075316E+03  0.17300000000E+03 0. -1.
<mgrwt>
<rscale>  2 0.19230250E+03</rscale>
<asrwt>0</asrwt>
<pdfrwt beam="1">  1       21 0.20042062E+00 0.19230250E+03</pdfrwt>
<pdfrwt beam="2">  1       21 0.59426670E-02 0.19230250E+03</pdfrwt>
<totfact> 0.26754244E+04</totfact>
</mgrwt>
</event>
<event>
 4    2  0.3944631E+000  0.2000135E+03  0.7546771E-02  0.1149728E+00
         21   -1    0    0  503  502  0.00000000000E+00  0.00000000000E+00  0.13728379500E+03  0.13728379500E+03  0.00000000000E+00 0. -1.
         21   -1    0    0  501  503 -0.00000000000E+00 -0.00000000000E+00 -0.57276712719E+03  0.57276712719E+03  0.00000000000E+00 0. -1.
          6    1    1    2  501    0  0.79158775764E+02  0.61727422464E+02 -0.46657132293E+03  0.50763587919E+03  0.17300000000E+03 0. -1.
         -6    1    1    2    0  502 -0.79158775764E+02 -0.61727422464E+02  0.31087990737E+02  0.20241504300E+03  0.17300000000E+03 0. -1.
<mgrwt>
<rscale>  2 0.20001347E+03</rscale>
<asrwt>0</asrwt>
<pdfrwt beam="1">  1       21 0.21120584E-01 0.20001347E+03</pdfrwt>
<pdfrwt beam="2">  1       21 0.88118019E-01 0.20001347E+03</pdfrwt>
<totfact> 0.22891212E+04</totfact>
</mgrwt>
</event>
<event>
 4    2  0.3944631E+000  0.2079820E+03  0.7546771E-02  0.1143174E+00
         21   -1    0    0  503  502  0.00000000000E+00  0.00000000000E+00  0.63680430566E+03  0.63680430566E+03  0.00000000000E+00 0.  1.
         21   -1    0    0  501  503 -0.00000000000E+00 -0.00000000000E+00 -0.82729444868E+02  0.82729444868E+02  0.00000000000E+00 0.  1.
          6    1    1    2  501    0 -0.97640241809E+02 -0.61594650581E+02  0.12485985374E+03  0.24258297730E+03  0.17300000000E+03 0.  1.
         -6    1    1    2    0  502  0.97640241809E+02  0.61594650581E+02  0.42921500706E+03  0.47695077323E+03  0.17300000000E+03 0.  1.
<mgrwt>
<rscale>  2 0.20798201E+03</rscale>
<asrwt>0</asrwt>
<pdfrwt beam="1">  1       21 0.97969890E-01 0.20798201E+03</pdfrwt>
<pdfrwt beam="2">  1       21 0.12727607E-01 0.20798201E+03</pdfrwt>
<totfact> 0.45141510E+04</totfact>
</mgrwt>
</event>
<event>
 4    2  0.3944631E+000  0.1978251E+03  0.7546771E-02  0.1151587E+00
         21   -1    0    0  501  502  0.00000000000E+00  0.00000000000E+00  0.60223480151E+03  0.60223480151E+03  0.00000000000E+00 0.  1.
         21   -1    0    0  502  503 -0.00000000000E+00 -0.00000000000E+00 -0.71099002918E+02  0.71099002918E+02  0.00000000000E+00 0.  1.
          6    1    1    2  501    0 -0.90988280944E+02  0.30444791920E+02  0.16682212619E+03  0.25877475613E+03  0.17300000000E+03 0.  1.
         -6    1    1    2    0  503  0.90988280944E+02 -0.30444791920E+02  0.36431367241E+03  0.41455904830E+03  0.17300000000E+03 0.  1.
<mgrwt>
<rscale>  2 0.19782506E+03</rscale>
<asrwt>0</asrwt>
<pdfrwt beam="1">  1       21 0.92651504E-01 0.19782506E+03</pdfrwt>
<pdfrwt beam="2">  1       21 0.10938309E-01 0.19782506E+03</pdfrwt>
<totfact> 0.67817734E+04</totfact>
</mgrwt>
</event>
<event>
 4    2  0.3944631E+000  0.2506029E+03  0.7546771E-02  0.1112924E+00
         21   -1    0    0  501  502  0.00000000000E+00  0.00000000000E+00  0.49595584823E+03  0.49595584823E+03  0.00000000000E+00 0. -1.
         21   -1    0    0  502  503 -0.00000000000E+00 -0.00000000000E+00 -0.19750341517E+03  0.19750341517E+03  0.00000000000E+00 0. -1.
          6    1    1    2  501    0  0.17178337227E+03  0.57994041404E+02  0.35693355472E+03  0.43612314581E+03  0.17300000000E+03 0. -1.
         -6    1    1    2    0  503 -0.17178337227E+03 -0.57994041404E+02 -0.58481121660E+02  0.25733611759E+03  0.17300000000E+03 0. -1.
<mgrwt>
<rscale>  2 0.25060294E+03</rscale>
<asrwt>0</asrwt>
<pdfrwt beam="1">  1       21 0.76300899E-01 0.25060294E+03</pdfrwt>
<pdfrwt beam="2">  1       21 0.30385141E-01 0.25060294E+03</pdfrwt>
<totfact> 0.15378262E+04</totfact>
</mgrwt>
</event>
<event>
 4    2  0.3944631E+000  0.1763075E+03  0.7546771E-02  0.1171425E+00
         21   -1    0    0  501  502  0.00000000000E+00  0.00000000000E+00  0.15623678109E+03  0.15623678109E+03  0.00000000000E+00 0.  1.
         21   -1    0    0  502  503 -0.00000000000E+00 -0.00000000000E+00 -0.21911745115E+03  0.21911745115E+03  0.00000000000E+00 0.  1.
          6    1    1    2  501    0 -0.32235076536E+02 -0.10782009035E+02  0.25487722448E+02  0.17814032635E+03  0.17300000000E+03 0.  1.
         -6    1    1    2    0  503  0.32235076536E+02  0.10782009035E+02 -0.88368392509E+02  0.19721390588E+03  0.17300000000E+03 0.  1.
<mgrwt>
<rscale>  2 0.17630755E+03</rscale>
<asrwt>0</asrwt>
<pdfrwt beam="1">  1       21 0.24036428E-01 0.17630755E+03</pdfrwt>
<pdfrwt beam="2">  1       21 0.33710377E-01 0.17630755E+03</pdfrwt>
<totfact> 0.13913546E+05</totfact>
</mgrwt>
</event>
<event>
 4    2  0.3944631E+000  0.2615275E+03  0.7546771E-02  0.1106229E+00
         21   -1    0    0  503  502  0.00000000000E+00  0.00000000000E+00  0.60576591156E+02  0.60576591156E+02  0.00000000000E+00 0.  1.
         21   -1    0    0  501  503 -0.00000000000E+00 -0.00000000000E+00 -0.11290934701E+04  0.11290934701E+04  0.00000000000E+00 0.  1.
          6    1    1    2  501    0 -0.11333699501E+03  0.16006982633E+03 -0.53403357039E+03  0.59463306168E+03  0.17300000000E+03 0.  1.
         -6    1    1    2    0  502  0.11333699501E+03 -0.16006982633E+03 -0.53448330855E+03  0.59503699957E+03  0.17300000000E+03 0.  1.
<mgrwt>
<rscale>  2 0.26152748E+03</rscale>
<asrwt>0</asrwt>
<pdfrwt beam="1">  1       21 0.93194764E-02 0.26152748E+03</pdfrwt>
<pdfrwt beam="2">  1       21 0.17370667E+00 0.26152748E+03</pdfrwt>
<totfact> 0.17673758E+04</totfact>
</mgrwt>
</event>
<event>
 4    2  0.3944631E+000  0.1869365E+03  0.7546771E-02  0.1161254E+00
         21   -1    0    0  501  502  0.00000000000E+00  0.00000000000E+00  0.13194235011E+03  0.13194235011E+03  0.00000000000E+00 0.  1.
         21   -1    0    0  502  503 -0.00000000000E+00 -0.00000000000E+00 -0.27461534420E+03  0.27461534420E+03  0.00000000000E+00 0. -1.
          6    1    1    2  501    0 -0.63399645725E+02  0.31571013884E+02 -0.33008080084E+02  0.18982828384E+03  0.17300000000E+03 0.  1.
         -6    1    1    2    0  503  0.63399645725E+02 -0.31571013884E+02 -0.10966491401E+03  0.21672941046E+03  0.17300000000E+03 0. -1.
<mgrwt>
<rscale>  2 0.18693647E+03</rscale>
<asrwt>0</asrwt>
<pdfrwt beam="1">  1       21 0.20298823E-01 0.18693647E+03</pdfrwt>
<pdfrwt beam="2">  1       21 0.42248515E-01 0.18693647E+03</pdfrwt>
<totfact> 0.12128417E+05</totfact>
</mgrwt>
</event>
<event>
 4    2  0.3944631E+000  0.2384177E+03  0.7546771E-02  0.1120851E+00
         21   -1    0    0  501  502  0.00000000000E+00  0.00000000000E+00  0.37126280672E+03  0.37126280672E+03  0.00000000000E+00 0. -1.
         21   -1    0    0  502  503 -0.00000000000E+00 -0.00000000000E+00 -0.21687015523E+03  0.21687015523E+03  0.00000000000E+00 0.  1.
          6    1    1    2  501    0  0.60072252231E+02  0.15266083034E+03  0.23664829469E+03  0.33592472369E+03  0.17300000000E+03 0. -1.
         -6    1    1    2    0  503 -0.60072252231E+02 -0.15266083034E+03 -0.82255643197E+02  0.25220823826E+03  0.17300000000E+03 0. -1.
<mgrwt>
<rscale>  2 0.23841771E+03</rscale>
<asrwt>0</asrwt>
<pdfrwt beam="1">  1       21 0.57117355E-01 0.23841771E+03</pdfrwt>
<pdfrwt beam="2">  1       21 0.33364639E-01 0.23841771E+03</pdfrwt>
<totfact> 0.24299818E+04</totfact>
</mgrwt>
</event>
<event>
 4    2  0.3944631E+000  0.2052211E+03  0.7546771E-02  0.1145407E+00
         21   -1    0    0  501  502  0.00000000000E+00  0.00000000000E+00  0.84803502225E+02  0.84803502225E+02  0.00000000000E+00 0.  1.
         21   -1    0    0  502  503 -0.00000000000E+00 -0.00000000000E+00 -0.70596756504E+03  0.70596756504E+03  0.00000000000E+00 0.  1.
          6    1    1    2  501    0 -0.62797954441E+02  0.90791524697E+02 -0.95276393978E+02  0.22625930984E+03  0.17300000000E+03 0.  1.
         -6    1    1    2    0  503  0.62797954441E+02 -0.90791524697E+02 -0.52588766884E+03  0.56451175743E+03  0.17300000000E+03 0.  1.
<mgrwt>
<rscale>  2 0.20522106E+03</rscale>
<asrwt>0</asrwt>
<pdfrwt beam="1">  1       21 0.13046693E-01 0.20522106E+03</pdfrwt>
<pdfrwt beam="2">  1       21 0.10861039E+00 0.20522106E+03</pdfrwt>
<totfact> 0.33773135E+04</totfact>
</mgrwt>
</event>
<event>
 4    2  0.3944631E+000  0.1748535E+03  0.7546771E-02  0.1172879E+00
         21   -1    0    0  501  502  0.00000000000E+00  0.00000000000E+00  0.20845222396E+02  0.20845222396E+02  0.00000000000E+00 0. -1.
         21   -1    0    0  502  503 -0.00000000000E+00 -0.00000000000E+00 -0.20778202413E+04  0.20778202413E+04  0.00000000000E+00 0. -1.
          6    1    1    2  501    0 -0.74656816434E+01 -0.24269182969E+02 -0.45940943578E+03  0.49155951758E+03  0.17300000000E+03 0. -1.
         -6    1    1    2    0  503  0.74656816434E+01  0.24269182969E+02 -0.15975655831E+04  0.16071059461E+04  0.17300000000E+03 0. -1.
<mgrwt>
<rscale>  2 0.17485345E+03</rscale>
<asrwt>0</asrwt>
<pdfrwt beam="1">  1       21 0.32069573E-02 0.17485345E+03</pdfrwt>
<pdfrwt beam="2">  1       21 0.31966465E+00 0.17485345E+03</pdfrwt>
<totfact> 0.15195062E+04</totfact>
</mgrwt>
</event>
<event>
 4    2  0.3944631E+000  0.1792967E+03  0.7546771E-02  0.1168485E+00
         21   -1    0    0  501  502  0.00000000000E+00  0.00000000000E+00  0.60633060168E+03  0.60633060168E+03  0.00000000000E+00 0.  1.
         21   -1    0    0  502  503 -0.00000000000E+00 -0.00000000000E+00 -0.59304740334E+02  0.59304740334E+02  0.00000000000E+00 0.  1.
          6    1    1    2  501    0  0.45452009184E+02 -0.12345616251E+02  0.38186201260E+03  0.42186004320E+03  0.17300000000E+03 0. -1.
         -6    1    1    2    0  503 -0.45452009184E+02  0.12345616251E+02  0.16516384874E+03  0.24377529881E+03  0.17300000000E+03 0. -1.
<mgrwt>
<rscale>  2 0.17929668E+03</rscale>
<asrwt>0</asrwt>
<pdfrwt beam="1">  1       21 0.93281626E-01 0.17929668E+03</pdfrwt>
<pdfrwt beam="2">  1       21 0.91238067E-02 0.17929668E+03</pdfrwt>
<totfact> 0.92705694E+04</totfact>
</mgrwt>
</event>
<event>
 4    2  0.3944631E+000  0.1739638E+03  0.7546771E-02  0.1173776E+00
         21   -1    0    0  503  502  0.00000000000E+00  0.00000000000E+00  0.24090885324E+03  0.24090885324E+03  0.00000000000E+00 0. -1.
         21   -1    0    0  501  503 -0.00000000000E+00 -0.00000000000E+00 -0.12677203876E+03  0.12677203876E+03  0.00000000000E+00 0. -1.
          6    1    1    2  501    0 -0.19160352139E+01  0.18186230100E+02  0.39557109579E+02  0.17840452650E+03  0.17300000000E+03 0. -1.
         -6    1    1    2    0  502  0.19160352139E+01 -0.18186230100E+02  0.74579704903E+02  0.18927636551E+03  0.17300000000E+03 0. -1.
<mgrwt>
<rscale>  2 0.17396382E+03</rscale>
<asrwt>0</asrwt>
<pdfrwt beam="1">  1       21 0.37062900E-01 0.17396382E+03</pdfrwt>
<pdfrwt beam="2">  1       21 0.19503391E-01 0.17396382E+03</pdfrwt>
<totfact> 0.17082976E+05</totfact>
</mgrwt>
</event>
<event>
 4    2  0.3944631E+000  0.2697688E+03  0.7546771E-02  0.1101412E+00
         21   -1    0    0  503  502  0.00000000000E+00  0.00000000000E+00  0.20995198037E+03  0.20995198037E+03  0.00000000000E+00 0. -1.
         21   -1    0    0  501  503 -0.00000000000E+00 -0.00000000000E+00 -0.60004846056E+03  0.60004846056E+03  0.00000000000E+00 0. -1.
          6    1    1    2  501    0  0.18857798858E+03  0.85349555468E+02 -0.45824652790E+03  0.53175660290E+03  0.17300000000E+03 0. -1.
         -6    1    1    2    0  502 -0.18857798858E+03 -0.85349555468E+02  0.68150047709E+02  0.27824383802E+03  0.17300000000E+03 0. -1.
<mgrwt>
<rscale>  2 0.26976880E+03</rscale>
<asrwt>0</asrwt>
<pdfrwt beam="1">  1       21 0.32300306E-01 0.26976880E+03</pdfrwt>
<pdfrwt beam="2">  1       21 0.92315145E-01 0.26976880E+03</pdfrwt>
<totfact> 0.87057268E+03</totfact>
</mgrwt>
</event>
<event>
 4    2  0.3944631E+000  0.3897342E+03  0.7546771E-02  0.1047393E+00
         21   -1    0    0  503  502  0.00000000000E+00  0.00000000000E+00  0.24381324655E+04  0.24381324655E+04  0.00000000000E+00 0. -1.
         21   -1    0    0  501  503 -0.00000000000E+00 -0.00000000000E+00 -0.68910988775E+02  0.68910988775E+02  0.00000000000E+00 0.  1.
          6    1    1    2  501    0 -0.30837637480E+03 -0.16391385730E+03  0.79631729749E+03  0.88657429437E+03  0.17300000000E+03 0. -1.
         -6    1    1    2    0  502  0.30837637480E+03  0.16391385730E+03  0.15729041792E+04  0.16204691599E+04  0.17300000000E+03 0.  1.
<mgrwt>
<rscale>  2 0.38973419E+03</rscale>
<asrwt>0</asrwt>
<pdfrwt beam="1">  1       21 0.37509724E+00 0.38973419E+03</pdfrwt>
<pdfrwt beam="2">  1       21 0.10601692E-01 0.38973419E+03</pdfrwt>
<totfact> 0.73981916E+02</totfact>
</mgrwt>
</event>
<event>
 4    2  0.3944631E+000  0.2563156E+03  0.7546771E-02  0.1109377E+00
         21   -1    0    0  501  502  0.00000000000E+00  0.00000000000E+00  0.52793359252E+03  0.52793359252E+03  0.00000000000E+00 0.  1.
         21   -1    0    0  502  503 -0.00000000000E+00 -0.00000000000E+00 -0.15767627165E+03  0.15767627165E+03  0.00000000000E+00 0.  1.
          6    1    1    2  501    0  0.13942807067E+02  0.18861146010E+03  0.27748535365E+02  0.25781323854E+03  0.17300000000E+03 0.  1.
         -6    1    1    2    0  503 -0.13942807067E+02 -0.18861146010E+03  0.34250878550E+03  0.42779662563E+03  0.17300000000E+03 0.  1.
<mgrwt>
<rscale>  2 0.25631560E+03</rscale>
<asrwt>0</asrwt>
<pdfrwt beam="1">  1       21 0.81220552E-01 0.25631560E+03</pdfrwt>
<pdfrwt beam="2">  1       21 0.24257888E-01 0.25631560E+03</pdfrwt>
<totfact> 0.20596586E+04</totfact>
</mgrwt>
</event>
<event>
 4    2  0.3944631E+000  0.1794058E+03  0.7546771E-02  0.1168379E+00
         21   -1    0    0  501  502  0.00000000000E+00  0.00000000000E+00  0.17437070886E+03  0.17437070886E+03  0.00000000000E+00 0. -1.
         21   -1    0    0  502  503 -0.00000000000E+00 -0.00000000000E+00 -0.26006397810E+03  0.26006397810E+03  0.00000000000E+00 0.  1.
          6    1    1    2  501    0 -0.45304680066E+02  0.14315893517E+02  0.74174261045E+02  0.19413469511E+03  0.17300000000E+03 0. -1.
         -6    1    1    2    0  503  0.45304680066E+02 -0.14315893517E+02 -0.15986753029E+03  0.24029999185E+03  0.17300000000E+03 0.  1.
<mgrwt>
<rscale>  2 0.17940585E+03</rscale>
<asrwt>0</asrwt>
<pdfrwt beam="1">  1       21 0.26826263E-01 0.17940585E+03</pdfrwt>
<pdfrwt beam="2">  1       21 0.40009843E-01 0.17940585E+03</pdfrwt>
<totfact> 0.80097239E+04</totfact>
</mgrwt>
</event>
<event>
 4    2  0.3944631E+000  0.2229066E+03  0.7546771E-02  0.1131734E+00
         21   -1    0    0  501  502  0.00000000000E+00  0.00000000000E+00  0.48915462591E+03  0.48915462591E+03  0.00000000000E+00 0. -1.
         21   -1    0    0  502  503 -0.00000000000E+00 -0.00000000000E+00 -0.10751467456E+03  0.10751467456E+03  0.00000000000E+00 0. -1.
          6    1    1    2  501    0 -0.13274700859E+03 -0.46223386380E+02  0.26092350213E+03  0.34317407202E+03  0.17300000000E+03 0. -1.
         -6    1    1    2    0  503  0.13274700859E+03  0.46223386380E+02  0.12071644922E+03  0.25349522846E+03  0.17300000000E+03 0. -1.
<mgrwt>
<rscale>  2 0.22290664E+03</rscale>
<asrwt>0</asrwt>
<pdfrwt beam="1">  1       21 0.75254557E-01 0.22290664E+03</pdfrwt>
<pdfrwt beam="2">  1       21 0.16540719E-01 0.22290664E+03</pdfrwt>
<totfact> 0.51024913E+04</totfact>
</mgrwt>
</event>
<event>
 4    2  0.3944631E+000  0.1969816E+03  0.7546771E-02  0.1152311E+00
         21   -1    0    0  503  502  0.00000000000E+00  0.00000000000E+00  0.15790833470E+03  0.15790833470E+03  0.00000000000E+00 0.  1.
         21   -1    0    0  501  503 -0.00000000000E+00 -0.00000000000E+00 -0.50315331002E+03  0.50315331002E+03  0.00000000000E+00 0.  1.
          6    1    1    2  501    0 -0.72560028523E+02 -0.60064962537E+02 -0.40904639032E+03  0.45400518378E+03  0.17300000000E+03 0.  1.
         -6    1    1    2    0  502  0.72560028523E+02  0.60064962537E+02  0.63801414990E+02  0.20705646094E+03  0.17300000000E+03 0.  1.
<mgrwt>
<rscale>  2 0.19698162E+03</rscale>
<asrwt>0</asrwt>
<pdfrwt beam="1">  1       21 0.24293590E-01 0.19698162E+03</pdfrwt>
<pdfrwt beam="2">  1       21 0.77408202E-01 0.19698162E+03</pdfrwt>
<totfact> 0.23636828E+04</totfact>
</mgrwt>
</event>
<event>
 4    2  0.3944631E+000  0.2309682E+03  0.7546771E-02  0.1125960E+00
         21   -1    0    0  501  502  0.00000000000E+00  0.00000000000E+00  0.66900793657E+03  0.66900793657E+03  0.00000000000E+00 0.  1.
         21   -1    0    0  502  503 -0.00000000000E+00 -0.00000000000E+00 -0.99043347491E+02  0.99043347491E+02  0.00000000000E+00 0.  1.
          6    1    1    2  501    0 -0.99882272581E+02  0.11593461957E+03  0.45452160599E+03  0.50983938128E+03  0.17300000000E+03 0.  1.
         -6    1    1    2    0  503  0.99882272581E+02 -0.11593461957E+03  0.11544298308E+03  0.25821190277E+03  0.17300000000E+03 0.  1.
<mgrwt>
<rscale>  2 0.23096819E+03</rscale>
<asrwt>0</asrwt>
<pdfrwt beam="1">  1       21 0.10292430E+00 0.23096819E+03</pdfrwt>
<pdfrwt beam="2">  1       21 0.15237439E-01 0.23096819E+03</pdfrwt>
<totfact> 0.28606584E+04</totfact>
</mgrwt>
</event>
<event>
 4    2  0.3944631E+000  0.2446550E+03  0.7546771E-02  0.1116730E+00
         21   -1    0    0  503  502  0.00000000000E+00  0.00000000000E+00  0.12703427136E+04  0.12703427136E+04  0.00000000000E+00 0. -1.
         21   -1    0    0  501  503 -0.00000000000E+00 -0.00000000000E+00 -0.58095991989E+02  0.58095991989E+02  0.00000000000E+00 0.  1.
          6    1    1    2  501    0 -0.88756930655E+02 -0.14849005396E+03  0.31738889068E+03  0.40073906322E+03  0.17300000000E+03 0.  1.
         -6    1    1    2    0  502  0.88756930655E+02  0.14849005396E+03  0.89485783089E+03  0.92769964232E+03  0.17300000000E+03 0. -1.
<mgrwt>
<rscale>  2 0.24465504E+03</rscale>
<asrwt>0</asrwt>
<pdfrwt beam="1">  1       21 0.19543732E+00 0.24465504E+03</pdfrwt>
<pdfrwt beam="2">  1       21 0.89378458E-02 0.24465504E+03</pdfrwt>
<totfact> 0.13682232E+04</totfact>
</mgrwt>
</event>
<event>
 4    2  0.3944631E+000  0.1886109E+03  0.7546771E-02  0.1159720E+00
         21   -1    0    0  501  502  0.00000000000E+00  0.00000000000E+00  0.14007169833E+04  0.14007169833E+04  0.00000000000E+00 0.  1.
         21   -1    0    0  502  503 -0.00000000000E+00 -0.00000000000E+00 -0.11273685500E+03  0.11273685500E+03  0.00000000000E+00 0.  1.
          6    1    1    2  501    0 -0.95477563419E+00 -0.75127723518E+02  0.13100484830E+04  0.13235562377E+04  0.17300000000E+03 0.  1.
         -6    1    1    2    0  503  0.95477563419E+00  0.75127723518E+02 -0.22068354725E+02  0.18989760061E+03  0.17300000000E+03 0.  1.
<mgrwt>
<rscale>  2 0.18861094E+03</rscale>
<asrwt>0</asrwt>
<pdfrwt beam="1">  1       21 0.21549491E+00 0.18861094E+03</pdfrwt>
<pdfrwt beam="2">  1       21 0.17344133E-01 0.18861094E+03</pdfrwt>
<totfact> 0.32377980E+03</totfact>
</mgrwt>
</event>
<event>
 4    2  0.3944631E+000  0.1838242E+03  0.7546771E-02  0.1164152E+00
         21   -1    0    0  501  502  0.00000000000E+00  0.00000000000E+00  0.38690076321E+03  0.38690076321E+03  0.00000000000E+00 0.  1.
         21   -1    0    0  502  503 -0.00000000000E+00 -0.00000000000E+00 -0.95611960198E+02  0.95611960198E+02  0.00000000000E+00 0. -1.
          6    1    1    2  501    0  0.27647073579E+02 -0.55659558973E+02  0.21661283925E+03  0.28409940040E+03  0.17300000000E+03 0.  1.
         -6    1    1    2    0  503 -0.27647073579E+02  0.55659558973E+02  0.74675963768E+02  0.19841332301E+03  0.17300000000E+03 0. -1.
<mgrwt>
<rscale>  2 0.18382423E+03</rscale>
<asrwt>0</asrwt>
<pdfrwt beam="1">  1       21 0.59523193E-01 0.18382423E+03</pdfrwt>
<pdfrwt beam="2">  1       21 0.14709533E-01 0.18382423E+03</pdfrwt>
<totfact> 0.10750087E+05</totfact>
</mgrwt>
</event>
<event>
 4    2  0.3944631E+000  0.2139505E+03  0.7546771E-02  0.1138475E+00
         21   -1    0    0  503  502  0.00000000000E+00  0.00000000000E+00  0.11475927324E+03  0.11475927324E+03  0.00000000000E+00 0.  1.
         21   -1    0    0  501  503 -0.00000000000E+00 -0.00000000000E+00 -0.13259020746E+04  0.13259020746E+04  0.00000000000E+00 0.  1.
          6    1    1    2  501    0 -0.12573480846E+03 -0.60484345832E+01 -0.12078839928E+04  0.12266860094E+04  0.17300000000E+03 0.  1.
         -6    1    1    2    0  502  0.12573480846E+03  0.60484345832E+01 -0.32588085564E+01  0.21397533842E+03  0.17300000000E+03 0.  1.
<mgrwt>
<rscale>  2 0.21395052E+03</rscale>
<asrwt>0</asrwt>
<pdfrwt beam="1">  1       21 0.17655273E-01 0.21395052E+03</pdfrwt>
<pdfrwt beam="2">  1       21 0.20398493E+00 0.21395052E+03</pdfrwt>
<totfact> 0.36112291E+03</totfact>
</mgrwt>
</event>
<event>
 4    2  0.3944631E+000  0.2380503E+03  0.7546771E-02  0.1121098E+00
         21   -1    0    0  501  502  0.00000000000E+00  0.00000000000E+00  0.16802932755E+03  0.16802932755E+03  0.00000000000E+00 0.  1.
         21   -1    0    0  502  503 -0.00000000000E+00 -0.00000000000E+00 -0.34704012636E+03  0.34704012636E+03  0.00000000000E+00 0. -1.
          6    1    1    2  501    0 -0.13232220303E+03 -0.96071846389E+02 -0.46251000126E+02  0.24250179400E+03  0.17300000000E+03 0. -1.
         -6    1    1    2    0  503  0.13232220303E+03  0.96071846389E+02 -0.13275979869E+03  0.27256765991E+03  0.17300000000E+03 0.  1.
<mgrwt>
<rscale>  2 0.23805034E+03</rscale>
<asrwt>0</asrwt>
<pdfrwt beam="1">  1       21 0.25850666E-01 0.23805034E+03</pdfrwt>
<pdfrwt beam="2">  1       21 0.53390788E-01 0.23805034E+03</pdfrwt>
<totfact> 0.46195648E+04</totfact>
</mgrwt>
</event>
<event>
 4    2  0.3944631E+000  0.4114950E+03  0.7546771E-02  0.1039870E+00
         21   -1    0    0  503  502  0.00000000000E+00  0.00000000000E+00  0.11536738519E+03  0.11536738519E+03  0.00000000000E+00 0.  1.
         21   -1    0    0  501  503 -0.00000000000E+00 -0.00000000000E+00 -0.16687177110E+04  0.16687177110E+04  0.00000000000E+00 0. -1.
          6    1    1    2  501    0  0.68518611531E+02 -0.36702090853E+03 -0.10862595973E+04  0.11615885933E+04  0.17300000000E+03 0. -1.
         -6    1    1    2    0  502 -0.68518611531E+02  0.36702090853E+03 -0.46709072856E+03  0.62249650290E+03  0.17300000000E+03 0.  1.
<mgrwt>
<rscale>  2 0.41149502E+03</rscale>
<asrwt>0</asrwt>
<pdfrwt beam="1">  1       21 0.17748829E-01 0.41149502E+03</pdfrwt>
<pdfrwt beam="2">  1       21 0.25672579E+00 0.41149502E+03</pdfrwt>
<totfact> 0.14720848E+03</totfact>
</mgrwt>
</event>
<event>
 4    2  0.3944631E+000  0.2961357E+03  0.7546771E-02  0.1087188E+00
         21   -1    0    0  501  502  0.00000000000E+00  0.00000000000E+00  0.56180100186E+03  0.56180100186E+03  0.00000000000E+00 0.  1.
         21   -1    0    0  502  503 -0.00000000000E+00 -0.00000000000E+00 -0.18105959676E+03  0.18105959676E+03  0.00000000000E+00 0. -1.
          6    1    1    2  501    0  0.23904852785E+03 -0.24963318019E+02  0.52460223405E+02  0.30074647288E+03  0.17300000000E+03 0. -1.
         -6    1    1    2    0  503 -0.23904852785E+03  0.24963318019E+02  0.32828118170E+03  0.44211412573E+03  0.17300000000E+03 0.  1.
<mgrwt>
<rscale>  2 0.29613572E+03</rscale>
<asrwt>0</asrwt>
<pdfrwt beam="1">  1       21 0.86430923E-01 0.29613572E+03</pdfrwt>
<pdfrwt beam="2">  1       21 0.27855323E-01 0.29613572E+03</pdfrwt>
<totfact> 0.13414454E+04</totfact>
</mgrwt>
</event>
<event>
 4    2  0.3944631E+000  0.2152534E+03  0.7546771E-02  0.1137472E+00
         21   -1    0    0  501  502  0.00000000000E+00  0.00000000000E+00  0.11954779457E+04  0.11954779457E+04  0.00000000000E+00 0.  1.
         21   -1    0    0  502  503 -0.00000000000E+00 -0.00000000000E+00 -0.46603697881E+02  0.46603697881E+02  0.00000000000E+00 0. -1.
          6    1    1    2  501    0  0.10135660391E+03  0.78306145845E+02  0.31961732366E+03  0.38534302539E+03  0.17300000000E+03 0. -1.
         -6    1    1    2    0  503 -0.10135660391E+03 -0.78306145845E+02  0.82925692418E+03  0.85673861821E+03  0.17300000000E+03 0.  1.
<mgrwt>
<rscale>  2 0.21525337E+03</rscale>
<asrwt>0</asrwt>
<pdfrwt beam="1">  1       21 0.18391966E+00 0.21525337E+03</pdfrwt>
<pdfrwt beam="2">  1       21 0.71698006E-02 0.21525337E+03</pdfrwt>
<totfact> 0.24460663E+04</totfact>
</mgrwt>
</event>
<event>
 4    2  0.3944631E+000  0.2545113E+03  0.7546771E-02  0.1110487E+00
         21   -1    0    0  503  502  0.00000000000E+00  0.00000000000E+00  0.75958025151E+02  0.75958025151E+02  0.00000000000E+00 0. -1.
         21   -1    0    0  501  503 -0.00000000000E+00 -0.00000000000E+00 -0.85348999647E+03  0.85348999647E+03  0.00000000000E+00 0.  1.
          6    1    1    2  501    0 -0.65152011306E+02 -0.17493482637E+03 -0.37542375872E+03  0.45356253887E+03  0.17300000000E+03 0. -1.
         -6    1    1    2    0  502  0.65152011306E+02  0.17493482637E+03 -0.40210821261E+03  0.47588548276E+03  0.17300000000E+03 0. -1.
<mgrwt>
<rscale>  2 0.25451125E+03</rscale>
<asrwt>0</asrwt>
<pdfrwt beam="1">  1       21 0.11685850E-01 0.25451125E+03</pdfrwt>
<pdfrwt beam="2">  1       21 0.13130615E+00 0.25451125E+03</pdfrwt>
<totfact> 0.25049159E+04</totfact>
</mgrwt>
</event>
<event>
 4    2  0.3944631E+000  0.2008578E+03  0.7546771E-02  0.1149017E+00
         21   -1    0    0  501  502  0.00000000000E+00  0.00000000000E+00  0.11842434389E+03  0.11842434389E+03  0.00000000000E+00 0. -1.
         21   -1    0    0  502  503 -0.00000000000E+00 -0.00000000000E+00 -0.18396573367E+04  0.18396573367E+04  0.00000000000E+00 0.  1.
          6    1    1    2  501    0  0.95070145626E+02 -0.37101603705E+02  0.23136762262E+02  0.20218598209E+03  0.17300000000E+03 0. -1.
         -6    1    1    2    0  503 -0.95070145626E+02  0.37101603705E+02 -0.17443697551E+04  0.17558956985E+04  0.17300000000E+03 0.  1.
<mgrwt>
<rscale>  2 0.20085781E+03</rscale>
<asrwt>0</asrwt>
<pdfrwt beam="1">  1       21 0.18219131E-01 0.20085781E+03</pdfrwt>
<pdfrwt beam="2">  1       21 0.28302418E+00 0.20085781E+03</pdfrwt>
<totfact> 0.11615141E+03</totfact>
</mgrwt>
</event>
<event>
 4    2  0.3944631E+000  0.2125582E+03  0.7546771E-02  0.1139556E+00
         21   -1    0    0  503  502  0.00000000000E+00  0.00000000000E+00  0.24357324152E+03  0.24357324152E+03  0.00000000000E+00 0.  1.
         21   -1    0    0  501  503 -0.00000000000E+00 -0.00000000000E+00 -0.40983937344E+03  0.40983937344E+03  0.00000000000E+00 0. -1.
          6    1    1    2  501    0 -0.26136497951E+02 -0.12070163249E+03 -0.32485203082E+03  0.38821365579E+03  0.17300000000E+03 0. -1.
         -6    1    1    2    0  502  0.26136497951E+02  0.12070163249E+03  0.15858589891E+03  0.26519895917E+03  0.17300000000E+03 0.  1.
<mgrwt>
<rscale>  2 0.21255823E+03</rscale>
<asrwt>0</asrwt>
<pdfrwt beam="1">  1       21 0.37472807E-01 0.21255823E+03</pdfrwt>
<pdfrwt beam="2">  1       21 0.63052211E-01 0.21255823E+03</pdfrwt>
<totfact> 0.15794473E+04</totfact>
</mgrwt>
</event>
<event>
 4    2  0.3944631E+000  0.2040365E+03  0.7546771E-02  0.1146377E+00
         21   -1    0    0  503  502  0.00000000000E+00  0.00000000000E+00  0.47255519526E+02  0.47255519526E+02  0.00000000000E+00 0. -1.
         21   -1    0    0  501  503 -0.00000000000E+00 -0.00000000000E+00 -0.98130543049E+03  0.98130543049E+03  0.00000000000E+00 0. -1.
          6    1    1    2  501    0 -0.16104859224E+02  0.10696983045E+03 -0.63146788237E+03  0.66361328918E+03  0.17300000000E+03 0. -1.
         -6    1    1    2    0  502  0.16104859224E+02 -0.10696983045E+03 -0.30258202860E+03  0.36494766083E+03  0.17300000000E+03 0. -1.
<mgrwt>
<rscale>  2 0.20403654E+03</rscale>
<asrwt>0</asrwt>
<pdfrwt beam="1">  1       21 0.72700797E-02 0.20403654E+03</pdfrwt>
<pdfrwt beam="2">  1       21 0.15097007E+00 0.20403654E+03</pdfrwt>
<totfact> 0.41356751E+04</totfact>
</mgrwt>
</event>
<event>
 4    2  0.3944631E+000  0.1788157E+03  0.7546771E-02  0.1168954E+00
         21   -1    0    0  503  502  0.00000000000E+00  0.00000000000E+00  0.86819751690E+02  0.86819751690E+02  0.00000000000E+00 0.  1.
         21   -1    0    0  501  503 -0.00000000000E+00 -0.00000000000E+00 -0.47201672416E+03  0.47201672416E+03  0.00000000000E+00 0.  1.
          6    1    1    2  501    0 -0.44693942508E+01 -0.45012109147E+02 -0.32358183944E+03  0.36970295140E+03  0.17300000000E+03 0.  1.
         -6    1    1    2    0  502  0.44693942508E+01  0.45012109147E+02 -0.61615133031E+02  0.18913352446E+03  0.17300000000E+03 0.  1.
<mgrwt>
<rscale>  2 0.17881573E+03</rscale>
<asrwt>0</asrwt>
<pdfrwt beam="1">  1       21 0.13356885E-01 0.17881573E+03</pdfrwt>
<pdfrwt beam="2">  1       21 0.72617959E-01 0.17881573E+03</pdfrwt>
<totfact> 0.83175603E+04</totfact>
</mgrwt>
</event>
<event>
 4    2  0.3944631E+000  0.1982552E+03  0.7546771E-02  0.1151220E+00
         21   -1    0    0  503  502  0.00000000000E+00  0.00000000000E+00  0.19824628760E+02  0.19824628760E+02  0.00000000000E+00 0. -1.
         21   -1    0    0  501  503 -0.00000000000E+00 -0.00000000000E+00 -0.24538222275E+04  0.24538222275E+04  0.00000000000E+00 0. -1.
          6    1    1    2  501    0  0.15046750819E+02 -0.95654074539E+02 -0.17589753490E+04  0.17701128170E+04  0.17300000000E+03 0. -1.
         -6    1    1    2    0  502 -0.15046750819E+02  0.95654074539E+02 -0.67502224971E+03  0.70353403919E+03  0.17300000000E+03 0. -1.
<mgrwt>
<rscale>  2 0.19825516E+03</rscale>
<asrwt>0</asrwt>
<pdfrwt beam="1">  1       21 0.30499437E-02 0.19825516E+03</pdfrwt>
<pdfrwt beam="2">  1       21 0.37751101E+00 0.19825516E+03</pdfrwt>
<totfact> 0.73198083E+03</totfact>
</mgrwt>
</event>
<event>
 4    2  0.3944631E+000  0.2219741E+03  0.7546771E-02  0.1132420E+00
         21   -1    0    0  503  502  0.00000000000E+00  0.00000000000E+00  0.25569771879E+04  0.25569771879E+04  0.00000000000E+00 0. -1.
         21   -1    0    0  501  503 -0.00000000000E+00 -0.00000000000E+00 -0.32878648928E+02  0.32878648928E+02  0.00000000000E+00 0.  1.
          6    1    1    2  501    0 -0.12599821237E+02  0.13850900457E+03  0.42894582562E+03  0.48297724704E+03  0.17300000000E+03 0.  1.
         -6    1    1    2    0  502  0.12599821237E+02 -0.13850900457E+03  0.20951527134E+04  0.21068785898E+04  0.17300000000E+03 0. -1.
<mgrwt>
<rscale>  2 0.22197410E+03</rscale>
<asrwt>0</asrwt>
<pdfrwt beam="1">  1       21 0.39338095E+00 0.22197410E+03</pdfrwt>
<pdfrwt beam="2">  1       21 0.50582557E-02 0.22197410E+03</pdfrwt>
<totfact> 0.24281373E+03</totfact>
</mgrwt>
</event>
<event>
 4    2  0.3944631E+000  0.1895239E+03  0.7546771E-02  0.1158891E+00
         21   -1    0    0  501  502  0.00000000000E+00  0.00000000000E+00  0.28789138344E+03  0.28789138344E+03  0.00000000000E+00 0.  1.
         21   -1    0    0  502  503 -0.00000000000E+00 -0.00000000000E+00 -0.16174590637E+03  0.16174590637E+03  0.00000000000E+00 0. -1.
          6    1    1    2  501    0 -0.74586211991E+02  0.20669083208E+02  0.17056899114E+03  0.25497665532E+03  0.17300000000E+03 0.  1.
         -6    1    1    2    0  503  0.74586211991E+02 -0.20669083208E+02 -0.44423514065E+02  0.19466063449E+03  0.17300000000E+03 0. -1.
<mgrwt>
<rscale>  2 0.18952391E+03</rscale>
<asrwt>0</asrwt>
<pdfrwt beam="1">  1       21 0.44290982E-01 0.18952391E+03</pdfrwt>
<pdfrwt beam="2">  1       21 0.24883986E-01 0.18952391E+03</pdfrwt>
<totfact> 0.74911831E+04</totfact>
</mgrwt>
</event>
<event>
 4    2  0.3944631E+000  0.2507368E+03  0.7546771E-02  0.1112840E+00
         21   -1    0    0  501  502  0.00000000000E+00  0.00000000000E+00  0.32515881653E+03  0.32515881653E+03  0.00000000000E+00 0.  1.
         21   -1    0    0  502  503 -0.00000000000E+00 -0.00000000000E+00 -0.48753756224E+03  0.48753756224E+03  0.00000000000E+00 0. -1.
          6    1    1    2  501    0  0.17775580270E+03  0.36644600870E+02  0.23446193157E+03  0.34328027837E+03  0.17300000000E+03 0.  1.
         -6    1    1    2    0  503 -0.17775580270E+03 -0.36644600870E+02 -0.39684067728E+03  0.46941610039E+03  0.17300000000E+03 0. -1.
<mgrwt>
<rscale>  2 0.25073682E+03</rscale>
<asrwt>0</asrwt>
<pdfrwt beam="1">  1       21 0.50024434E-01 0.25073682E+03</pdfrwt>
<pdfrwt beam="2">  1       21 0.75005778E-01 0.25073682E+03</pdfrwt>
<totfact> 0.58150318E+03</totfact>
</mgrwt>
</event>
<event>
 4    2  0.3944631E+000  0.1898426E+03  0.7546771E-02  0.1158603E+00
         21   -1    0    0  503  502  0.00000000000E+00  0.00000000000E+00  0.83550729236E+02  0.83550729236E+02  0.00000000000E+00 0.  1.
         21   -1    0    0  501  503 -0.00000000000E+00 -0.00000000000E+00 -0.43173350358E+03  0.43173350358E+03  0.00000000000E+00 0.  1.
          6    1    1    2  501    0  0.70381931507E+00  0.78171136126E+02 -0.16648660941E+03  0.25250349106E+03  0.17300000000E+03 0.  1.
         -6    1    1    2    0  502 -0.70381931507E+00 -0.78171136126E+02 -0.18169616493E+03  0.26278074175E+03  0.17300000000E+03 0.  1.
<mgrwt>
<rscale>  2 0.18984262E+03</rscale>
<asrwt>0</asrwt>
<pdfrwt beam="1">  1       21 0.12853958E-01 0.18984262E+03</pdfrwt>
<pdfrwt beam="2">  1       21 0.66420539E-01 0.18984262E+03</pdfrwt>
<totfact> 0.10797122E+05</totfact>
</mgrwt>
</event>
<event>
 4    2  0.3944631E+000  0.2006722E+03  0.7546771E-02  0.1149173E+00
         21   -1    0    0  501  502  0.00000000000E+00  0.00000000000E+00  0.59447255468E+03  0.59447255468E+03  0.00000000000E+00 0. -1.
         21   -1    0    0  502  503 -0.00000000000E+00 -0.00000000000E+00 -0.16098590548E+03  0.16098590548E+03  0.00000000000E+00 0.  1.
          6    1    1    2  501    0 -0.90960663219E+02 -0.45458524064E+02  0.50421994817E+03  0.54268506134E+03  0.17300000000E+03 0. -1.
         -6    1    1    2    0  503  0.90960663219E+02  0.45458524064E+02 -0.70733298966E+02  0.21277339882E+03  0.17300000000E+03 0.  1.
<mgrwt>
<rscale>  2 0.20067217E+03</rscale>
<asrwt>0</asrwt>
<pdfrwt beam="1">  1       21 0.91457315E-01 0.20067217E+03</pdfrwt>
<pdfrwt beam="2">  1       21 0.24767063E-01 0.20067217E+03</pdfrwt>
<totfact> 0.15526728E+04</totfact>
</mgrwt>
</event>
<event>
 4    2  0.3944631E+000  0.3166187E+03  0.7546771E-02  0.1077216E+00
         21   -1    0    0  501  502  0.00000000000E+00  0.00000000000E+00  0.10699147093E+03  0.10699147093E+03  0.00000000000E+00 0. -1.
         21   -1    0    0  502  503 -0.00000000000E+00 -0.00000000000E+00 -0.98185391369E+03  0.98185391369E+03  0.00000000000E+00 0.  1.
          6    1    1    2  501    0 -0.25657398256E+03 -0.66994021231E+02 -0.32102509832E+03  0.45089302630E+03  0.17300000000E+03 0. -1.
         -6    1    1    2    0  503  0.25657398256E+03  0.66994021231E+02 -0.55383734444E+03  0.63795235833E+03  0.17300000000E+03 0.  1.
<mgrwt>
<rscale>  2 0.31661871E+03</rscale>
<asrwt>0</asrwt>
<pdfrwt beam="1">  1       21 0.16460226E-01 0.31661871E+03</pdfrwt>
<pdfrwt beam="2">  1       21 0.15105445E+00 0.31661871E+03</pdfrwt>
<totfact> 0.90071517E+03</totfact>
</mgrwt>
</event>
<event>
 4    2  0.3944631E+000  0.1978910E+03  0.7546771E-02  0.1151531E+00
         21   -1    0    0  503  502  0.00000000000E+00  0.00000000000E+00  0.18057463294E+03  0.18057463294E+03  0.00000000000E+00 0. -1.
         21   -1    0    0  501  503 -0.00000000000E+00 -0.00000000000E+00 -0.25365733595E+03  0.25365733595E+03  0.00000000000E+00 0. -1.
          6    1    1    2  501    0 -0.10582174181E+02  0.95498080417E+02 -0.11922675574E+03  0.23103221649E+03  0.17300000000E+03 0. -1.
         -6    1    1    2    0  502  0.10582174181E+02 -0.95498080417E+02  0.46144052727E+02  0.20319975240E+03  0.17300000000E+03 0. -1.
<mgrwt>
<rscale>  2 0.19789105E+03</rscale>
<asrwt>0</asrwt>
<pdfrwt beam="1">  1       21 0.27780713E-01 0.19789105E+03</pdfrwt>
<pdfrwt beam="2">  1       21 0.39024205E-01 0.19789105E+03</pdfrwt>
<totfact> 0.78140518E+04</totfact>
</mgrwt>
</event>
<event>
 4    2  0.3944631E+000  0.2413345E+03  0.7546771E-02  0.1118907E+00
         21   -1    0    0  501  502  0.00000000000E+00  0.00000000000E+00  0.32888045888E+03  0.32888045888E+03  0.00000000000E+00 0.  1.
         21   -1    0    0  502  503 -0.00000000000E+00 -0.00000000000E+00 -0.23643286752E+03  0.23643286752E+03  0.00000000000E+00 0.  1.
          6    1    1    2  501    0  0.16521307403E+02  0.16745265298E+03  0.18782909533E+03  0.30581385456E+03  0.17300000000E+03 0.  1.
         -6    1    1    2    0  503 -0.16521307403E+02 -0.16745265298E+03 -0.95381503965E+02  0.25949947184E+03  0.17300000000E+03 0.  1.
<mgrwt>
<rscale>  2 0.24133451E+03</rscale>
<asrwt>0</asrwt>
<pdfrwt beam="1">  1       21 0.50596994E-01 0.24133451E+03</pdfrwt>
<pdfrwt beam="2">  1       21 0.36374287E-01 0.24133451E+03</pdfrwt>
<totfact> 0.26411492E+04</totfact>
</mgrwt>
</event>
<event>
 4    2  0.3944631E+000  0.2571718E+03  0.7546771E-02  0.1108854E+00
         21   -1    0    0  501  502  0.00000000000E+00  0.00000000000E+00  0.37506478163E+03  0.37506478163E+03  0.00000000000E+00 0.  1.
         21   -1    0    0  502  503 -0.00000000000E+00 -0.00000000000E+00 -0.19028727566E+03  0.19028727566E+03  0.00000000000E+00 0.  1.
          6    1    1    2  501    0  0.43170783667E+02  0.18532300688E+03  0.16892987027E+03  0.30769243492E+03  0.17300000000E+03 0.  1.
         -6    1    1    2    0  503 -0.43170783667E+02 -0.18532300688E+03  0.15847635702E+02  0.25765962237E+03  0.17300000000E+03 0.  1.
<mgrwt>
<rscale>  2 0.25717180E+03</rscale>
<asrwt>0</asrwt>
<pdfrwt beam="1">  1       21 0.57702274E-01 0.25717180E+03</pdfrwt>
<pdfrwt beam="2">  1       21 0.29274966E-01 0.25717180E+03</pdfrwt>
<totfact> 0.30498923E+04</totfact>
</mgrwt>
</event>
<event>
 4    2  0.3944631E+000  0.1844456E+03  0.7546771E-02  0.1163569E+00
         21   -1    0    0  503  502  0.00000000000E+00  0.00000000000E+00  0.69329948235E+02  0.69329948235E+02  0.00000000000E+00 0. -1.
         21   -1    0    0  501  503 -0.00000000000E+00 -0.00000000000E+00 -0.83442448543E+03  0.83442448543E+03  0.00000000000E+00 0. -1.
          6    1    1    2  501    0  0.21428412028E+02  0.60265967048E+02 -0.67257033709E+03  0.69740305560E+03  0.17300000000E+03 0. -1.
         -6    1    1    2    0  502 -0.21428412028E+02 -0.60265967048E+02 -0.92524200113E+02  0.20635137807E+03  0.17300000000E+03 0. -1.
<mgrwt>
<rscale>  2 0.18444556E+03</rscale>
<asrwt>0</asrwt>
<pdfrwt beam="1">  1       21 0.10666145E-01 0.18444556E+03</pdfrwt>
<pdfrwt beam="2">  1       21 0.12837301E+00 0.18444556E+03</pdfrwt>
<totfact> 0.32454007E+04</totfact>
</mgrwt>
</event>
<event>
 4    2  0.3944631E+000  0.1946444E+03  0.7546771E-02  0.1154338E+00
         21   -1    0    0  501  502  0.00000000000E+00  0.00000000000E+00  0.49371774603E+03  0.49371774603E+03  0.00000000000E+00 0.  1.
         21   -1    0    0  502  503 -0.00000000000E+00 -0.00000000000E+00 -0.15845986614E+03  0.15845986614E+03  0.00000000000E+00 0.  1.
          6    1    1    2  501    0 -0.48398661246E+02  0.74933388285E+02  0.40180792085E+03  0.44647065788E+03  0.17300000000E+03 0.  1.
         -6    1    1    2    0  503  0.48398661246E+02 -0.74933388285E+02 -0.66550040969E+02  0.20570695429E+03  0.17300000000E+03 0.  1.
<mgrwt>
<rscale>  2 0.19464440E+03</rscale>
<asrwt>0</asrwt>
<pdfrwt beam="1">  1       21 0.75956576E-01 0.19464440E+03</pdfrwt>
<pdfrwt beam="2">  1       21 0.24378441E-01 0.19464440E+03</pdfrwt>
<totfact> 0.24533230E+04</totfact>
</mgrwt>
</event>
<event>
 4    2  0.3944631E+000  0.2553551E+03  0.7546771E-02  0.1109967E+00
         21   -1    0    0  501  502  0.00000000000E+00  0.00000000000E+00  0.50264855625E+02  0.50264855625E+02  0.00000000000E+00 0. -1.
         21   -1    0    0  502  503 -0.00000000000E+00 -0.00000000000E+00 -0.13565409451E+04  0.13565409451E+04  0.00000000000E+00 0.  1.
          6    1    1    2  501    0 -0.46145633400E+02  0.18206536620E+03 -0.80019046959E+03  0.83994702492E+03  0.17300000000E+03 0.  1.
         -6    1    1    2    0  503  0.46145633400E+02 -0.18206536620E+03 -0.50608561990E+03  0.56685877582E+03  0.17300000000E+03 0. -1.
<mgrwt>
<rscale>  2 0.25535508E+03</rscale>
<asrwt>0</asrwt>
<pdfrwt beam="1">  1       21 0.77330538E-02 0.25535508E+03</pdfrwt>
<pdfrwt beam="2">  1       21 0.20869863E+00 0.25535508E+03</pdfrwt>
<totfact> 0.14382004E+04</totfact>
</mgrwt>
</event>
<event>
 4    2  0.3944631E+000  0.2097138E+03  0.7546771E-02  0.1141793E+00
         21   -1    0    0  503  502  0.00000000000E+00  0.00000000000E+00  0.16497725962E+04  0.16497725962E+04  0.00000000000E+00 0.  1.
         21   -1    0    0  501  503 -0.00000000000E+00 -0.00000000000E+00 -0.37386938710E+02  0.37386938710E+02  0.00000000000E+00 0. -1.
          6    1    1    2  501    0 -0.51315918900E+02  0.10685287830E+03  0.35429334503E+03  0.41170819213E+03  0.17300000000E+03 0. -1.
         -6    1    1    2    0  502  0.51315918900E+02 -0.10685287830E+03  0.12580923124E+04  0.12754513428E+04  0.17300000000E+03 0.  1.
<mgrwt>
<rscale>  2 0.20971376E+03</rscale>
<asrwt>0</asrwt>
<pdfrwt beam="1">  1       21 0.25381111E+00 0.20971376E+03</pdfrwt>
<pdfrwt beam="2">  1       21 0.57518380E-02 0.20971376E+03</pdfrwt>
<totfact> 0.13179722E+04</totfact>
</mgrwt>
</event>
<event>
 4    2  0.3944631E+000  0.1948824E+03  0.7546771E-02  0.1154130E+00
         21   -1    0    0  501  502  0.00000000000E+00  0.00000000000E+00  0.19983697686E+02  0.19983697686E+02  0.00000000000E+00 0. -1.
         21   -1    0    0  502  503 -0.00000000000E+00 -0.00000000000E+00 -0.19130633704E+04  0.19130633704E+04  0.00000000000E+00 0. -1.
          6    1    1    2  501    0 -0.57771150537E+02  0.68648564302E+02 -0.10248471669E+04  0.10432117938E+04  0.17300000000E+03 0. -1.
         -6    1    1    2    0  503  0.57771150537E+02 -0.68648564302E+02 -0.86823250580E+03  0.88983527427E+03  0.17300000000E+03 0. -1.
<mgrwt>
<rscale>  2 0.19488235E+03</rscale>
<asrwt>0</asrwt>
<pdfrwt beam="1">  1       21 0.30744148E-02 0.19488235E+03</pdfrwt>
<pdfrwt beam="2">  1       21 0.29431747E+00 0.19488235E+03</pdfrwt>
<totfact> 0.22313410E+04</totfact>
</mgrwt>
</event>
<event>
 4    2  0.3944631E+000  0.1834917E+03  0.7546771E-02  0.1164466E+00
         21   -1    0    0  501  502  0.00000000000E+00  0.00000000000E+00  0.48471514960E+03  0.48471514960E+03  0.00000000000E+00 0.  1.
         21   -1    0    0  502  503 -0.00000000000E+00 -0.00000000000E+00 -0.12940607269E+03  0.12940607269E+03  0.00000000000E+00 0.  1.
          6    1    1    2  501    0  0.61043878716E+02 -0.37222289741E+01  0.38664210765E+03  0.42797351498E+03  0.17300000000E+03 0.  1.
         -6    1    1    2    0  503 -0.61043878716E+02  0.37222289741E+01 -0.31333030745E+02  0.18614770730E+03  0.17300000000E+03 0.  1.
<mgrwt>
<rscale>  2 0.18349172E+03</rscale>
<asrwt>0</asrwt>
<pdfrwt beam="1">  1       21 0.74571560E-01 0.18349172E+03</pdfrwt>
<pdfrwt beam="2">  1       21 0.19908627E-01 0.18349172E+03</pdfrwt>
<totfact> 0.37669202E+04</totfact>
</mgrwt>
</event>
<event>
 4    2  0.3944631E+000  0.2377800E+03  0.7546771E-02  0.1121281E+00
         21   -1    0    0  501  502  0.00000000000E+00  0.00000000000E+00  0.45502194746E+03  0.45502194746E+03  0.00000000000E+00 0.  1.
         21   -1    0    0  502  503 -0.00000000000E+00 -0.00000000000E+00 -0.33673042185E+03  0.33673042185E+03  0.00000000000E+00 0. -1.
          6    1    1    2  501    0 -0.16200609385E+03 -0.19088386785E+02  0.37360997415E+03  0.44285861597E+03  0.17300000000E+03 0.  1.
         -6    1    1    2    0  503  0.16200609385E+03  0.19088386785E+02 -0.25531844855E+03  0.34889375334E+03  0.17300000000E+03 0. -1.
<mgrwt>
<rscale>  2 0.23778003E+03</rscale>
<asrwt>0</asrwt>
<pdfrwt beam="1">  1       21 0.70003377E-01 0.23778003E+03</pdfrwt>
<pdfrwt beam="2">  1       21 0.51804680E-01 0.23778003E+03</pdfrwt>
<totfact> 0.63528481E+03</totfact>
</mgrwt>
</event>
<event>
 4    2  0.3944631E+000  0.2692340E+03  0.7546771E-02  0.1101719E+00
         21   -1    0    0  501  502  0.00000000000E+00  0.00000000000E+00  0.21130702675E+03  0.21130702675E+03  0.00000000000E+00 0. -1.
         21   -1    0    0  502  503 -0.00000000000E+00 -0.00000000000E+00 -0.35697682429E+03  0.35697682429E+03  0.00000000000E+00 0. -1.
          6    1    1    2  501    0 -0.11194404047E+03  0.17328156477E+03 -0.12897613854E+03  0.29853276738E+03  0.17300000000E+03 0. -1.
         -6    1    1    2    0  503  0.11194404047E+03 -0.17328156477E+03 -0.16693658992E+02  0.26975108366E+03  0.17300000000E+03 0. -1.
<mgrwt>
<rscale>  2 0.26923404E+03</rscale>
<asrwt>0</asrwt>
<pdfrwt beam="1">  1       21 0.32508774E-01 0.26923404E+03</pdfrwt>
<pdfrwt beam="2">  1       21 0.54919511E-01 0.26923404E+03</pdfrwt>
<totfact> 0.27438881E+04</totfact>
</mgrwt>
</event>
<event>
 4    2  0.3944631E+000  0.1847996E+03  0.7546771E-02  0.1163237E+00
         21   -1    0    0  503  502  0.00000000000E+00  0.00000000000E+00  0.47760903538E+02  0.47760903538E+02  0.00000000000E+00 0.  1.
         21   -1    0    0  501  503 -0.00000000000E+00 -0.00000000000E+00 -0.73596129138E+03  0.73596129138E+03  0.00000000000E+00 0. -1.
          6    1    1    2  501    0 -0.15059835642E+02  0.63206738116E+02 -0.41017155697E+03  0.44987953559E+03  0.17300000000E+03 0. -1.
         -6    1    1    2    0  502  0.15059835642E+02 -0.63206738116E+02 -0.27802883087E+03  0.33384265933E+03  0.17300000000E+03 0. -1.
<mgrwt>
<rscale>  2 0.18479960E+03</rscale>
<asrwt>0</asrwt>
<pdfrwt beam="1">  1       21 0.73478307E-02 0.18479960E+03</pdfrwt>
<pdfrwt beam="2">  1       21 0.11322482E+00 0.18479960E+03</pdfrwt>
<totfact> 0.84989713E+04</totfact>
</mgrwt>
</event>
<event>
 4    2  0.3944631E+000  0.2144072E+03  0.7546771E-02  0.1138123E+00
         21   -1    0    0  503  502  0.00000000000E+00  0.00000000000E+00  0.76814395052E+02  0.76814395052E+02  0.00000000000E+00 0.  1.
         21   -1    0    0  501  503 -0.00000000000E+00 -0.00000000000E+00 -0.60486624079E+03  0.60486624079E+03  0.00000000000E+00 0.  1.
          6    1    1    2  501    0  0.12446149115E+03 -0.23468878119E+02 -0.22895273946E+03  0.31367149683E+03  0.17300000000E+03 0.  1.
         -6    1    1    2    0  502 -0.12446149115E+03  0.23468878119E+02 -0.29909910628E+03  0.36800913901E+03  0.17300000000E+03 0.  1.
<mgrwt>
<rscale>  2 0.21440721E+03</rscale>
<asrwt>0</asrwt>
<pdfrwt beam="1">  1       21 0.11817599E-01 0.21440721E+03</pdfrwt>
<pdfrwt beam="2">  1       21 0.93056343E-01 0.21440721E+03</pdfrwt>
<totfact> 0.58021669E+04</totfact>
</mgrwt>
</event>
<event>
 4    2  0.3944631E+000  0.2206711E+03  0.7546771E-02  0.1133384E+00
         21   -1    0    0  501  502  0.00000000000E+00  0.00000000000E+00  0.20706617146E+04  0.20706617146E+04  0.00000000000E+00 0.  1.
         21   -1    0    0  502  503 -0.00000000000E+00 -0.00000000000E+00 -0.26514970572E+02  0.26514970572E+02  0.00000000000E+00 0. -1.
          6    1    1    2  501    0  0.62917588887E+02 -0.12168863982E+03  0.13746660223E+04  0.13922652121E+04  0.17300000000E+03 0.  1.
         -6    1    1    2    0  503 -0.62917588887E+02  0.12168863982E+03  0.66948072169E+03  0.70491147300E+03  0.17300000000E+03 0. -1.
<mgrwt>
<rscale>  2 0.22067113E+03</rscale>
<asrwt>0</asrwt>
<pdfrwt beam="1">  1       21 0.31856321E+00 0.22067113E+03</pdfrwt>
<pdfrwt beam="2">  1       21 0.40792279E-02 0.22067113E+03</pdfrwt>
<totfact> 0.98191794E+03</totfact>
</mgrwt>
</event>
<event>
 4    2  0.3944631E+000  0.1786447E+03  0.7546771E-02  0.1169121E+00
         21   -1    0    0  501  502  0.00000000000E+00  0.00000000000E+00  0.17489233043E+03  0.17489233043E+03  0.00000000000E+00 0.  1.
         21   -1    0    0  502  503 -0.00000000000E+00 -0.00000000000E+00 -0.47613093573E+03  0.47613093573E+03  0.00000000000E+00 0.  1.
          6    1    1    2  501    0  0.20810723744E+02  0.39393413413E+02  0.10501598686E+03  0.20722520296E+03  0.17300000000E+03 0.  1.
         -6    1    1    2    0  503 -0.20810723744E+02 -0.39393413413E+02 -0.40625459217E+03  0.44379806320E+03  0.17300000000E+03 0.  1.
<mgrwt>
<rscale>  2 0.17864470E+03</rscale>
<asrwt>0</asrwt>
<pdfrwt beam="1">  1       21 0.26906513E-01 0.17864470E+03</pdfrwt>
<pdfrwt beam="2">  1       21 0.73250912E-01 0.17864470E+03</pdfrwt>
<totfact> 0.22230305E+04</totfact>
</mgrwt>
</event>
<event>
 4    2  0.3944631E+000  0.2246948E+03  0.7546771E-02  0.1130431E+00
         21   -1    0    0  503  502  0.00000000000E+00  0.00000000000E+00  0.34323267888E+03  0.34323267888E+03  0.00000000000E+00 0.  1.
         21   -1    0    0  501  503 -0.00000000000E+00 -0.00000000000E+00 -0.17203939029E+03  0.17203939029E+03  0.00000000000E+00 0. -1.
          6    1    1    2  501    0  0.43221121932E+02  0.13671382495E+03 -0.12506069718E+02  0.22504252286E+03  0.17300000000E+03 0. -1.
         -6    1    1    2    0  502 -0.43221121932E+02 -0.13671382495E+03  0.18369935830E+03  0.29022954632E+03  0.17300000000E+03 0.  1.
<mgrwt>
<rscale>  2 0.22469476E+03</rscale>
<asrwt>0</asrwt>
<pdfrwt beam="1">  1       21 0.52805027E-01 0.22469476E+03</pdfrwt>
<pdfrwt beam="2">  1       21 0.26467599E-01 0.22469476E+03</pdfrwt>
<totfact> 0.45448997E+04</totfact>
</mgrwt>
</event>
<event>
 4    2  0.3944631E+000  0.2000340E+03  0.7546771E-02  0.1149710E+00
         21   -1    0    0  503  502  0.00000000000E+00  0.00000000000E+00  0.46653065048E+03  0.46653065048E+03  0.00000000000E+00 0. -1.
         21   -1    0    0  501  503 -0.00000000000E+00 -0.00000000000E+00 -0.13166853211E+03  0.13166853211E+03  0.00000000000E+00 0. -1.
          6    1    1    2  501    0 -0.30483960910E+02  0.95683399795E+02 -0.91653287958E+01  0.20024382168E+03  0.17300000000E+03 0. -1.
         -6    1    1    2    0  502  0.30483960910E+02 -0.95683399795E+02  0.34402744717E+03  0.39795536090E+03  0.17300000000E+03 0. -1.
<mgrwt>
<rscale>  2 0.20003396E+03</rscale>
<asrwt>0</asrwt>
<pdfrwt beam="1">  1       21 0.71773945E-01 0.20003396E+03</pdfrwt>
<pdfrwt beam="2">  1       21 0.20256698E-01 0.20003396E+03</pdfrwt>
<totfact> 0.39363683E+04</totfact>
</mgrwt>
</event>
<event>
 4    2  0.3944631E+000  0.1771305E+03  0.7546771E-02  0.1170609E+00
         21   -1    0    0  501  502  0.00000000000E+00  0.00000000000E+00  0.82205556638E+02  0.82205556638E+02  0.00000000000E+00 0. -1.
         21   -1    0    0  502  503 -0.00000000000E+00 -0.00000000000E+00 -0.38472528611E+03  0.38472528611E+03  0.00000000000E+00 0. -1.
          6    1    1    2  501    0  0.31034902182E+02 -0.21978559304E+02 -0.17207227122E+03  0.24694956721E+03  0.17300000000E+03 0. -1.
         -6    1    1    2    0  503 -0.31034902182E+02  0.21978559304E+02 -0.13044745825E+03  0.21998127554E+03  0.17300000000E+03 0. -1.
<mgrwt>
<rscale>  2 0.17713052E+03</rscale>
<asrwt>0</asrwt>
<pdfrwt beam="1">  1       21 0.12647009E-01 0.17713052E+03</pdfrwt>
<pdfrwt beam="2">  1       21 0.59188506E-01 0.17713052E+03</pdfrwt>
<totfact> 0.14324640E+05</totfact>
</mgrwt>
</event>
<event>
 4    2  0.3944631E+000  0.2259603E+03  0.7546771E-02  0.1129516E+00
         21   -1    0    0  501  502  0.00000000000E+00  0.00000000000E+00  0.39186612571E+03  0.39186612571E+03  0.00000000000E+00 0.  1.
         21   -1    0    0  502  503 -0.00000000000E+00 -0.00000000000E+00 -0.20605044667E+03  0.20605044667E+03  0.00000000000E+00 0. -1.
          6    1    1    2  501    0  0.23914664162E+02  0.14337762522E+03  0.27418028236E+03  0.35529267064E+03  0.17300000000E+03 0.  1.
         -6    1    1    2    0  503 -0.23914664162E+02 -0.14337762522E+03 -0.88364603325E+02  0.24262390174E+03  0.17300000000E+03 0. -1.
<mgrwt>
<rscale>  2 0.22596029E+03</rscale>
<asrwt>0</asrwt>
<pdfrwt beam="1">  1       21 0.60287096E-01 0.22596029E+03</pdfrwt>
<pdfrwt beam="2">  1       21 0.31700069E-01 0.22596029E+03</pdfrwt>
<totfact> 0.24088932E+04</totfact>
</mgrwt>
</event>
<event>
 4    2  0.3944631E+000  0.1957089E+03  0.7546771E-02  0.1153411E+00
         21   -1    0    0  501  502  0.00000000000E+00  0.00000000000E+00  0.83684149112E+02  0.83684149112E+02  0.00000000000E+00 0.  1.
         21   -1    0    0  502  503 -0.00000000000E+00 -0.00000000000E+00 -0.48632345864E+03  0.48632345864E+03  0.00000000000E+00 0.  1.
          6    1    1    2  501    0 -0.23307547110E+02  0.88485788755E+02 -0.13217278364E+03  0.23616016027E+03  0.17300000000E+03 0. -1.
         -6    1    1    2    0  503  0.23307547110E+02 -0.88485788755E+02 -0.27046652588E+03  0.33384744748E+03  0.17300000000E+03 0. -1.
<mgrwt>
<rscale>  2 0.19570891E+03</rscale>
<asrwt>0</asrwt>
<pdfrwt beam="1">  1       21 0.12874485E-01 0.19570891E+03</pdfrwt>
<pdfrwt beam="2">  1       21 0.74818992E-01 0.19570891E+03</pdfrwt>
<totfact> 0.82577882E+04</totfact>
</mgrwt>
</event>
<event>
 4    2  0.3944631E+000  0.1902158E+03  0.7546771E-02  0.1158267E+00
         21   -1    0    0  501  502  0.00000000000E+00  0.00000000000E+00  0.95975403149E+02  0.95975403149E+02  0.00000000000E+00 0. -1.
         21   -1    0    0  502  503 -0.00000000000E+00 -0.00000000000E+00 -0.38445348272E+03  0.38445348272E+03  0.00000000000E+00 0. -1.
          6    1    1    2  501    0 -0.44904535348E+02 -0.65089443757E+02 -0.11077631200E+03  0.22012143077E+03  0.17300000000E+03 0. -1.
         -6    1    1    2    0  503  0.44904535348E+02  0.65089443757E+02 -0.17770176758E+03  0.26030745511E+03  0.17300000000E+03 0. -1.
<mgrwt>
<rscale>  2 0.19021581E+03</rscale>
<asrwt>0</asrwt>
<pdfrwt beam="1">  1       21 0.14765447E-01 0.19021581E+03</pdfrwt>
<pdfrwt beam="2">  1       21 0.59146690E-01 0.19021581E+03</pdfrwt>
<totfact> 0.10797007E+05</totfact>
</mgrwt>
</event>
<event>
 4    2  0.3944631E+000  0.2997623E+03  0.7546771E-02  0.1085359E+00
         21   -1    0    0  503  502  0.00000000000E+00  0.00000000000E+00  0.13443104947E+03  0.13443104947E+03  0.00000000000E+00 0.  1.
         21   -1    0    0  501  503 -0.00000000000E+00 -0.00000000000E+00 -0.12488397633E+04  0.12488397633E+04  0.00000000000E+00 0. -1.
          6    1    1    2  501    0 -0.11579553011E+03  0.21568460568E+03 -0.10287155721E+04  0.10715004350E+04  0.17300000000E+03 0. -1.
         -6    1    1    2    0  502  0.11579553011E+03 -0.21568460568E+03 -0.85693141736E+02  0.31177037778E+03  0.17300000000E+03 0.  1.
<mgrwt>
<rscale>  2 0.29976233E+03</rscale>
<asrwt>0</asrwt>
<pdfrwt beam="1">  1       21 0.20681700E-01 0.29976233E+03</pdfrwt>
<pdfrwt beam="2">  1       21 0.19212919E+00 0.29976233E+03</pdfrwt>
<totfact> 0.30106777E+03</totfact>
</mgrwt>
</event>
<event>
 4    2  0.3944631E+000  0.1868133E+03  0.7546771E-02  0.1161367E+00
         21   -1    0    0  501  502  0.00000000000E+00  0.00000000000E+00  0.81353095478E+02  0.81353095478E+02  0.00000000000E+00 0. -1.
         21   -1    0    0  502  503 -0.00000000000E+00 -0.00000000000E+00 -0.66484852223E+03  0.66484852223E+03  0.00000000000E+00 0. -1.
          6    1    1    2  501    0  0.70478347196E+02  0.17402927674E+01 -0.69521347409E+02  0.19932998718E+03  0.17300000000E+03 0. -1.
         -6    1    1    2    0  503 -0.70478347196E+02 -0.17402927674E+01 -0.51397407935E+03  0.54687163053E+03  0.17300000000E+03 0. -1.
<mgrwt>
<rscale>  2 0.18681335E+03</rscale>
<asrwt>0</asrwt>
<pdfrwt beam="1">  1       21 0.12515861E-01 0.18681335E+03</pdfrwt>
<pdfrwt beam="2">  1       21 0.10228439E+00 0.18681335E+03</pdfrwt>
<totfact> 0.42463217E+04</totfact>
</mgrwt>
</event>
<event>
 4    2  0.3944631E+000  0.2577706E+03  0.7546771E-02  0.1108490E+00
         21   -1    0    0  501  502  0.00000000000E+00  0.00000000000E+00  0.57625517107E+02  0.57625517107E+02  0.00000000000E+00 0. -1.
         21   -1    0    0  502  503 -0.00000000000E+00 -0.00000000000E+00 -0.11936742051E+04  0.11936742051E+04  0.00000000000E+00 0. -1.
          6    1    1    2  501    0  0.27803683869E+02  0.18905987294E+03 -0.45261863989E+03  0.52087360614E+03  0.17300000000E+03 0. -1.
         -6    1    1    2    0  503 -0.27803683869E+02 -0.18905987294E+03 -0.68343004811E+03  0.73042611608E+03  0.17300000000E+03 0. -1.
<mgrwt>
<rscale>  2 0.25777060E+03</rscale>
<asrwt>0</asrwt>
<pdfrwt beam="1">  1       21 0.88654646E-02 0.25777060E+03</pdfrwt>
<pdfrwt beam="2">  1       21 0.18364218E+00 0.25777060E+03</pdfrwt>
<totfact> 0.16510576E+04</totfact>
</mgrwt>
</event>
<event>
 4    2  0.3944631E+000  0.2083476E+03  0.7546771E-02  0.1142881E+00
         21   -1    0    0  503  502  0.00000000000E+00  0.00000000000E+00  0.13490252769E+04  0.13490252769E+04  0.00000000000E+00 0. -1.
         21   -1    0    0  501  503 -0.00000000000E+00 -0.00000000000E+00 -0.37866890508E+02  0.37866890508E+02  0.00000000000E+00 0.  1.
          6    1    1    2  501    0 -0.11539010959E+03 -0.12839279452E+02  0.92436271001E+03  0.94755218544E+03  0.17300000000E+03 0. -1.
         -6    1    1    2    0  502  0.11539010959E+03  0.12839279452E+02  0.38679567643E+03  0.43933998201E+03  0.17300000000E+03 0. -1.
<mgrwt>
<rscale>  2 0.20834760E+03</rscale>
<asrwt>0</asrwt>
<pdfrwt beam="1">  1       21 0.20754231E+00 0.20834760E+03</pdfrwt>
<pdfrwt beam="2">  1       21 0.58256765E-02 0.20834760E+03</pdfrwt>
<totfact> 0.24646071E+04</totfact>
</mgrwt>
</event>
<event>
 4    2  0.3944631E+000  0.2056774E+03  0.7546771E-02  0.1145035E+00
         21   -1    0    0  501  502  0.00000000000E+00  0.00000000000E+00  0.13824170105E+03  0.13824170105E+03  0.00000000000E+00 0.  1.
         21   -1    0    0  502  503 -0.00000000000E+00 -0.00000000000E+00 -0.44953804457E+03  0.44953804457E+03  0.00000000000E+00 0.  1.
          6    1    1    2  501    0 -0.93348032252E+02 -0.60500687214E+02  0.10414289895E+02  0.20594087917E+03  0.17300000000E+03 0.  1.
         -6    1    1    2    0  503  0.93348032252E+02  0.60500687214E+02 -0.32171063342E+03  0.38183886645E+03  0.17300000000E+03 0.  1.
<mgrwt>
<rscale>  2 0.20567739E+03</rscale>
<asrwt>0</asrwt>
<pdfrwt beam="1">  1       21 0.21267954E-01 0.20567739E+03</pdfrwt>
<pdfrwt beam="2">  1       21 0.69159699E-01 0.20567739E+03</pdfrwt>
<totfact> 0.38880502E+04</totfact>
</mgrwt>
</event>
<event>
 4    2  0.3944631E+000  0.1944598E+03  0.7546771E-02  0.1154499E+00
         21   -1    0    0  503  502  0.00000000000E+00  0.00000000000E+00  0.16695910637E+03  0.16695910637E+03  0.00000000000E+00 0.  1.
         21   -1    0    0  501  503 -0.00000000000E+00 -0.00000000000E+00 -0.25424466092E+03  0.25424466092E+03  0.00000000000E+00 0.  1.
          6    1    1    2  501    0  0.12590237513E+02  0.87903954167E+02 -0.11322557594E+03  0.22502144406E+03  0.17300000000E+03 0. -1.
         -6    1    1    2    0  502 -0.12590237513E+02 -0.87903954167E+02  0.25940021393E+02  0.19618232323E+03  0.17300000000E+03 0. -1.
<mgrwt>
<rscale>  2 0.19445981E+03</rscale>
<asrwt>0</asrwt>
<pdfrwt beam="1">  1       21 0.25686016E-01 0.19445981E+03</pdfrwt>
<pdfrwt beam="2">  1       21 0.39114563E-01 0.19445981E+03</pdfrwt>
<totfact> 0.90573719E+04</totfact>
</mgrwt>
</event>
<event>
 4    2  0.3944631E+000  0.1760894E+03  0.7546771E-02  0.1171642E+00
         21   -1    0    0  503  502  0.00000000000E+00  0.00000000000E+00  0.16632145975E+03  0.16632145975E+03  0.00000000000E+00 0. -1.
         21   -1    0    0  501  503 -0.00000000000E+00 -0.00000000000E+00 -0.21196536967E+03  0.21196536967E+03  0.00000000000E+00 0.  1.
          6    1    1    2  501    0 -0.32345340720E+02 -0.56792561111E+01 -0.88469938869E+02  0.19706446940E+03  0.17300000000E+03 0.  1.
         -6    1    1    2    0  502  0.32345340720E+02  0.56792561111E+01  0.42826028940E+02  0.18122236002E+03  0.17300000000E+03 0. -1.
<mgrwt>
<rscale>  2 0.17608939E+03</rscale>
<asrwt>0</asrwt>
<pdfrwt beam="1">  1       21 0.25587917E-01 0.17608939E+03</pdfrwt>
<pdfrwt beam="2">  1       21 0.32610057E-01 0.17608939E+03</pdfrwt>
<totfact> 0.13186263E+05</totfact>
</mgrwt>
</event>
<event>
 4    2  0.3944631E+000  0.1795884E+03  0.7546771E-02  0.1168202E+00
         21   -1    0    0  501  502  0.00000000000E+00  0.00000000000E+00  0.12744440513E+04  0.12744440513E+04  0.00000000000E+00 0.  1.
         21   -1    0    0  502  503 -0.00000000000E+00 -0.00000000000E+00 -0.46598237134E+02  0.46598237134E+02  0.00000000000E+00 0.  1.
          6    1    1    2  501    0 -0.40581544925E+00  0.48195663156E+02  0.10604063744E+04  0.10755062369E+04  0.17300000000E+03 0.  1.
         -6    1    1    2    0  503  0.40581544925E+00 -0.48195663156E+02  0.16743943973E+03  0.24553605155E+03  0.17300000000E+03 0.  1.
<mgrwt>
<rscale>  2 0.17958838E+03</rscale>
<asrwt>0</asrwt>
<pdfrwt beam="1">  1       21 0.19606829E+00 0.17958838E+03</pdfrwt>
<pdfrwt beam="2">  1       21 0.71689605E-02 0.17958838E+03</pdfrwt>
<totfact> 0.20868746E+04</totfact>
</mgrwt>
</event>
<event>
 4    2  0.3944631E+000  0.1818887E+03  0.7546771E-02  0.1165988E+00
         21   -1    0    0  503  502  0.00000000000E+00  0.00000000000E+00  0.26114236632E+03  0.26114236632E+03  0.00000000000E+00 0.  1.
         21   -1    0    0  501  503 -0.00000000000E+00 -0.00000000000E+00 -0.28778535105E+03  0.28778535105E+03  0.00000000000E+00 0.  1.
          6    1    1    2  501    0 -0.68306525722E+00 -0.56160681062E+02 -0.21867192325E+03  0.28443083288E+03  0.17300000000E+03 0.  1.
         -6    1    1    2    0  502  0.68306525722E+00  0.56160681062E+02  0.19202893852E+03  0.26449688449E+03  0.17300000000E+03 0.  1.
<mgrwt>
<rscale>  2 0.18188867E+03</rscale>
<asrwt>0</asrwt>
<pdfrwt beam="1">  1       21 0.40175749E-01 0.18188867E+03</pdfrwt>
<pdfrwt beam="2">  1       21 0.44274669E-01 0.18188867E+03</pdfrwt>
<totfact> 0.29421216E+04</totfact>
</mgrwt>
</event>
<event>
 4    2  0.3944631E+000  0.1887042E+03  0.7546771E-02  0.1159635E+00
         21   -1    0    0  501  502  0.00000000000E+00  0.00000000000E+00  0.85096329064E+03  0.85096329064E+03  0.00000000000E+00 0.  1.
         21   -1    0    0  502  503 -0.00000000000E+00 -0.00000000000E+00 -0.10650707095E+03  0.10650707095E+03  0.00000000000E+00 0.  1.
          6    1    1    2  501    0 -0.62836666699E+02 -0.41615388080E+02  0.74524461919E+03  0.76876448256E+03  0.17300000000E+03 0.  1.
         -6    1    1    2    0  503  0.62836666699E+02  0.41615388080E+02 -0.78839949690E+00  0.18870587903E+03  0.17300000000E+03 0.  1.
<mgrwt>
<rscale>  2 0.18870423E+03</rscale>
<asrwt>0</asrwt>
<pdfrwt beam="1">  1       21 0.13091742E+00 0.18870423E+03</pdfrwt>
<pdfrwt beam="2">  1       21 0.16385704E-01 0.18870423E+03</pdfrwt>
<totfact> 0.14212905E+04</totfact>
</mgrwt>
</event>
<event>
 4    2  0.3944631E+000  0.1846841E+03  0.7546771E-02  0.1163345E+00
         21   -1    0    0  501  502  0.00000000000E+00  0.00000000000E+00  0.43243842179E+03  0.43243842179E+03  0.00000000000E+00 0. -1.
         21   -1    0    0  502  503 -0.00000000000E+00 -0.00000000000E+00 -0.11530050532E+03  0.11530050532E+03  0.00000000000E+00 0.  1.
          6    1    1    2  501    0 -0.40529511888E+02 -0.50364549302E+02  0.31250334363E+03  0.36299665142E+03  0.17300000000E+03 0. -1.
         -6    1    1    2    0  503  0.40529511888E+02  0.50364549302E+02  0.46345728424E+01  0.18474227569E+03  0.17300000000E+03 0.  1.
<mgrwt>
<rscale>  2 0.18468413E+03</rscale>
<asrwt>0</asrwt>
<pdfrwt beam="1">  1       21 0.66528987E-01 0.18468413E+03</pdfrwt>
<pdfrwt beam="2">  1       21 0.17738540E-01 0.18468413E+03</pdfrwt>
<totfact> 0.59974295E+04</totfact>
</mgrwt>
</event>
<event>
 4    2  0.3944631E+000  0.1745797E+03  0.7546771E-02  0.1173154E+00
         21   -1    0    0  501  502  0.00000000000E+00  0.00000000000E+00  0.75837935258E+02  0.75837935258E+02  0.00000000000E+00 0. -1.
         21   -1    0    0  502  503 -0.00000000000E+00 -0.00000000000E+00 -0.54583174546E+03  0.54583174546E+03  0.00000000000E+00 0. -1.
          6    1    1    2  501    0  0.20874710485E+02  0.10644391751E+02 -0.75371264437E+02  0.19015489506E+03  0.17300000000E+03 0.  1.
         -6    1    1    2    0  503 -0.20874710485E+02 -0.10644391751E+02 -0.39462254577E+03  0.43151478566E+03  0.17300000000E+03 0.  1.
<mgrwt>
<rscale>  2 0.17457966E+03</rscale>
<asrwt>0</asrwt>
<pdfrwt beam="1">  1       21 0.11667375E-01 0.17457966E+03</pdfrwt>
<pdfrwt beam="2">  1       21 0.83974115E-01 0.17457966E+03</pdfrwt>
<totfact> 0.76620368E+04</totfact>
</mgrwt>
</event>
<event>
 4    2  0.3944631E+000  0.2259835E+03  0.7546771E-02  0.1129499E+00
         21   -1    0    0  501  502  0.00000000000E+00  0.00000000000E+00  0.12266108628E+03  0.12266108628E+03  0.00000000000E+00 0.  1.
         21   -1    0    0  502  503 -0.00000000000E+00 -0.00000000000E+00 -0.12734557851E+04  0.12734557851E+04  0.00000000000E+00 0. -1.
          6    1    1    2  501    0  0.13480569895E+03  0.54469685940E+02 -0.27068338743E+01  0.22599966837E+03  0.17300000000E+03 0.  1.
         -6    1    1    2    0  503 -0.13480569895E+03 -0.54469685940E+02 -0.11480878649E+04  0.11701172030E+04  0.17300000000E+03 0. -1.
<mgrwt>
<rscale>  2 0.22598346E+03</rscale>
<asrwt>0</asrwt>
<pdfrwt beam="1">  1       21 0.18870937E-01 0.22598346E+03</pdfrwt>
<pdfrwt beam="2">  1       21 0.19591627E+00 0.22598346E+03</pdfrwt>
<totfact> 0.35604345E+03</totfact>
</mgrwt>
</event>
<event>
 4    2  0.3944631E+000  0.1894132E+03  0.7546771E-02  0.1158992E+00
         21   -1    0    0  501  502  0.00000000000E+00  0.00000000000E+00  0.13703281184E+04  0.13703281184E+04  0.00000000000E+00 0. -1.
         21   -1    0    0  502  503 -0.00000000000E+00 -0.00000000000E+00 -0.26650411297E+02  0.26650411297E+02  0.00000000000E+00 0.  1.
          6    1    1    2  501    0  0.77568692732E+01 -0.76734609612E+02  0.76448157787E+03  0.78759726526E+03  0.17300000000E+03 0. -1.
         -6    1    1    2    0  503 -0.77568692732E+01  0.76734609612E+02  0.57919612920E+03  0.60938126441E+03  0.17300000000E+03 0.  1.
<mgrwt>
<rscale>  2 0.18941322E+03</rscale>
<asrwt>0</asrwt>
<pdfrwt beam="1">  1       21 0.21081966E+00 0.18941322E+03</pdfrwt>
<pdfrwt beam="2">  1       21 0.41000643E-02 0.18941322E+03</pdfrwt>
<totfact> 0.43209354E+04</totfact>
</mgrwt>
</event>
<event>
 4    2  0.3944631E+000  0.3313164E+03  0.7546771E-02  0.1070556E+00
         21   -1    0    0  503  502  0.00000000000E+00  0.00000000000E+00  0.15282027937E+03  0.15282027937E+03  0.00000000000E+00 0.  1.
         21   -1    0    0  501  503 -0.00000000000E+00 -0.00000000000E+00 -0.72833685301E+03  0.72833685301E+03  0.00000000000E+00 0.  1.
          6    1    1    2  501    0 -0.18275568724E+03  0.21550379596E+03 -0.23603387587E+03  0.40679542506E+03  0.17300000000E+03 0.  1.
         -6    1    1    2    0  502  0.18275568724E+03 -0.21550379596E+03 -0.33948269776E+03  0.47436170732E+03  0.17300000000E+03 0.  1.
<mgrwt>
<rscale>  2 0.33131636E+03</rscale>
<asrwt>0</asrwt>
<pdfrwt beam="1">  1       21 0.23510812E-01 0.33131636E+03</pdfrwt>
<pdfrwt beam="2">  1       21 0.11205182E+00 0.33131636E+03</pdfrwt>
<totfact> 0.98473210E+03</totfact>
</mgrwt>
</event>
<event>
 4    2  0.3944631E+000  0.2293347E+03  0.7546771E-02  0.1127109E+00
         21   -1    0    0  503  502  0.00000000000E+00  0.00000000000E+00  0.40518346607E+02  0.40518346607E+02  0.00000000000E+00 0.  1.
         21   -1    0    0  501  503 -0.00000000000E+00 -0.00000000000E+00 -0.12982837789E+04  0.12982837789E+04  0.00000000000E+00 0.  1.
          6    1    1    2  501    0  0.13083716627E+03  0.74478314028E+02 -0.61968617965E+03  0.66076118575E+03  0.17300000000E+03 0. -1.
         -6    1    1    2    0  502 -0.13083716627E+03 -0.74478314028E+02 -0.63807925263E+03  0.67804093975E+03  0.17300000000E+03 0. -1.
<mgrwt>
<rscale>  2 0.22933465E+03</rscale>
<asrwt>0</asrwt>
<pdfrwt beam="1">  1       21 0.62335930E-02 0.22933465E+03</pdfrwt>
<pdfrwt beam="2">  1       21 0.19973593E+00 0.22933465E+03</pdfrwt>
<totfact> 0.24264011E+04</totfact>
</mgrwt>
</event>
<event>
 4    2  0.3944631E+000  0.2267529E+03  0.7546771E-02  0.1128946E+00
         21   -1    0    0  501  502  0.00000000000E+00  0.00000000000E+00  0.19131758647E+04  0.19131758647E+04  0.00000000000E+00 0. -1.
         21   -1    0    0  502  503 -0.00000000000E+00 -0.00000000000E+00 -0.57688368596E+02  0.57688368596E+02  0.00000000000E+00 0. -1.
          6    1    1    2  501    0  0.20099576535E+02  0.14520288650E+03  0.16479405346E+04  0.16634677264E+04  0.17300000000E+03 0. -1.
         -6    1    1    2    0  503 -0.20099576535E+02 -0.14520288650E+03  0.20754696154E+03  0.30739650693E+03  0.17300000000E+03 0. -1.
<mgrwt>
<rscale>  2 0.22675289E+03</rscale>
<asrwt>0</asrwt>
<pdfrwt beam="1">  1       21 0.29433470E+00 0.22675289E+03</pdfrwt>
<pdfrwt beam="2">  1       21 0.88751351E-02 0.22675289E+03</pdfrwt>
<totfact> 0.35470340E+03</totfact>
</mgrwt>
</event>
<event>
 4    2  0.3944631E+000  0.2017668E+03  0.7546771E-02  0.1148257E+00
         21   -1    0    0  501  502  0.00000000000E+00  0.00000000000E+00  0.17530373294E+04  0.17530373294E+04  0.00000000000E+00 0. -1.
         21   -1    0    0  502  503 -0.00000000000E+00 -0.00000000000E+00 -0.23449795213E+02  0.23449795213E+02  0.00000000000E+00 0. -1.
          6    1    1    2  501    0 -0.10074256815E+03  0.25134921780E+02  0.77733541159E+03  0.80309412365E+03  0.17300000000E+03 0.  1.
         -6    1    1    2    0  503  0.10074256815E+03 -0.25134921780E+02  0.95225212258E+03  0.97339300095E+03  0.17300000000E+03 0.  1.
<mgrwt>
<rscale>  2 0.20176677E+03</rscale>
<asrwt>0</asrwt>
<pdfrwt beam="1">  1       21 0.26969795E+00 0.20176677E+03</pdfrwt>
<pdfrwt beam="2">  1       21 0.36076622E-02 0.20176677E+03</pdfrwt>
<totfact> 0.23576514E+04</totfact>
</mgrwt>
</event>
<event>
 4    2  0.3944631E+000  0.4245089E+03  0.7546771E-02  0.1035609E+00
         21   -1    0    0  503  502  0.00000000000E+00  0.00000000000E+00  0.10385242889E+04  0.10385242889E+04  0.00000000000E+00 0. -1.
         21   -1    0    0  501  503 -0.00000000000E+00 -0.00000000000E+00 -0.34914524243E+03  0.34914524243E+03  0.00000000000E+00 0.  1.
          6    1    1    2  501    0 -0.77095425748E+02 -0.37991461732E+03 -0.14739849027E+03  0.44937082244E+03  0.17300000000E+03 0.  1.
         -6    1    1    2    0  502  0.77095425748E+02  0.37991461732E+03  0.83677753673E+03  0.93829870889E+03  0.17300000000E+03 0. -1.
<mgrwt>
<rscale>  2 0.42450892E+03</rscale>
<asrwt>0</asrwt>
<pdfrwt beam="1">  1       21 0.15977297E+00 0.42450892E+03</pdfrwt>
<pdfrwt beam="2">  1       21 0.53714653E-01 0.42450892E+03</pdfrwt>
<totfact> 0.70157045E+02</totfact>
</mgrwt>
</event>
<event>
 4    2  0.3944631E+000  0.2357932E+03  0.7546771E-02  0.1122627E+00
         21   -1    0    0  503  502  0.00000000000E+00  0.00000000000E+00  0.28666669333E+03  0.28666669333E+03  0.00000000000E+00 0.  1.
         21   -1    0    0  501  503 -0.00000000000E+00 -0.00000000000E+00 -0.19984688909E+03  0.19984688909E+03  0.00000000000E+00 0. -1.
          6    1    1    2  501    0  0.15780511619E+03 -0.27694174167E+02  0.16169875523E+01  0.23579872058E+03  0.17300000000E+03 0.  1.
         -6    1    1    2    0  502 -0.15780511619E+03  0.27694174167E+02  0.85202816687E+02  0.25071486184E+03  0.17300000000E+03 0.  1.
<mgrwt>
<rscale>  2 0.23579318E+03</rscale>
<asrwt>0</asrwt>
<pdfrwt beam="1">  1       21 0.44102568E-01 0.23579318E+03</pdfrwt>
<pdfrwt beam="2">  1       21 0.30745675E-01 0.23579318E+03</pdfrwt>
<totfact> 0.49178310E+04</totfact>
</mgrwt>
</event>
<event>
 4    2  0.3944631E+000  0.1995104E+03  0.7546771E-02  0.1150153E+00
         21   -1    0    0  503  502  0.00000000000E+00  0.00000000000E+00  0.10947183183E+04  0.10947183183E+04  0.00000000000E+00 0.  1.
         21   -1    0    0  501  503 -0.00000000000E+00 -0.00000000000E+00 -0.47778695313E+02  0.47778695313E+02  0.00000000000E+00 0.  1.
          6    1    1    2  501    0  0.74693235441E+02  0.65546272494E+02  0.24420988665E+03  0.31534562308E+03  0.17300000000E+03 0.  1.
         -6    1    1    2    0  502 -0.74693235441E+02 -0.65546272494E+02  0.80272973631E+03  0.82715139050E+03  0.17300000000E+03 0.  1.
<mgrwt>
<rscale>  2 0.19951038E+03</rscale>
<asrwt>0</asrwt>
<pdfrwt beam="1">  1       21 0.16841818E+00 0.19951038E+03</pdfrwt>
<pdfrwt beam="2">  1       21 0.73505693E-02 0.19951038E+03</pdfrwt>
<totfact> 0.30296216E+04</totfact>
</mgrwt>
</event>
<event>
 4    2  0.3944631E+000  0.2153080E+03  0.7546771E-02  0.1137430E+00
         21   -1    0    0  503  502  0.00000000000E+00  0.00000000000E+00  0.12926379750E+04  0.12926379750E+04  0.00000000000E+00 0.  1.
         21   -1    0    0  501  503 -0.00000000000E+00 -0.00000000000E+00 -0.36160427256E+02  0.36160427256E+02  0.00000000000E+00 0. -1.
          6    1    1    2  501    0  0.12685156892E+03  0.18363933679E+02  0.56795728239E+03  0.60739857525E+03  0.17300000000E+03 0.  1.
         -6    1    1    2    0  502 -0.12685156892E+03 -0.18363933679E+02  0.68852026532E+03  0.72139982697E+03  0.17300000000E+03 0. -1.
<mgrwt>
<rscale>  2 0.21530805E+03</rscale>
<asrwt>0</asrwt>
<pdfrwt beam="1">  1       21 0.19886735E+00 0.21530805E+03</pdfrwt>
<pdfrwt beam="2">  1       21 0.55631436E-02 0.21530805E+03</pdfrwt>
<totfact> 0.30156490E+04</totfact>
</mgrwt>
</event>
<event>
 4    2  0.3944631E+000  0.1738599E+03  0.7546771E-02  0.1173881E+00
         21   -1    0    0  503  502  0.00000000000E+00  0.00000000000E+00  0.92637396150E+02  0.92637396150E+02  0.00000000000E+00 0.  1.
         21   -1    0    0  501  503 -0.00000000000E+00 -0.00000000000E+00 -0.67358741526E+03  0.67358741526E+03  0.00000000000E+00 0.  1.
          6    1    1    2  501    0 -0.15154740692E+02 -0.82831254336E+01 -0.56556565451E+03  0.59168554646E+03  0.17300000000E+03 0.  1.
         -6    1    1    2    0  502  0.15154740692E+02  0.82831254336E+01 -0.15384364596E+02  0.17453926494E+03  0.17300000000E+03 0.  1.
<mgrwt>
<rscale>  2 0.17385993E+03</rscale>
<asrwt>0</asrwt>
<pdfrwt beam="1">  1       21 0.14251907E-01 0.17385993E+03</pdfrwt>
<pdfrwt beam="2">  1       21 0.10362883E+00 0.17385993E+03</pdfrwt>
<totfact> 0.32806729E+04</totfact>
</mgrwt>
</event>
<event>
 4    2  0.3944631E+000  0.1737107E+03  0.7546771E-02  0.1174032E+00
         21   -1    0    0  501  502  0.00000000000E+00  0.00000000000E+00  0.10915238778E+03  0.10915238778E+03  0.00000000000E+00 0. -1.
         21   -1    0    0  502  503 -0.00000000000E+00 -0.00000000000E+00 -0.27685924929E+03  0.27685924929E+03  0.00000000000E+00 0. -1.
          6    1    1    2  501    0  0.13153921720E+02 -0.85671687868E+01 -0.91253629308E+02  0.19622091351E+03  0.17300000000E+03 0. -1.
         -6    1    1    2    0  503 -0.13153921720E+02  0.85671687868E+01 -0.76453232200E+02  0.18979072357E+03  0.17300000000E+03 0. -1.
<mgrwt>
<rscale>  2 0.17371074E+03</rscale>
<asrwt>0</asrwt>
<pdfrwt beam="1">  1       21 0.16792676E-01 0.17371074E+03</pdfrwt>
<pdfrwt beam="2">  1       21 0.42593729E-01 0.17371074E+03</pdfrwt>
<totfact> 0.17019354E+05</totfact>
</mgrwt>
</event>
<event>
 4    2  0.3944631E+000  0.1949879E+03  0.7546771E-02  0.1154038E+00
         21   -1    0    0  501  502  0.00000000000E+00  0.00000000000E+00  0.28227452822E+03  0.28227452822E+03  0.00000000000E+00 0.  1.
         21   -1    0    0  502  503 -0.00000000000E+00 -0.00000000000E+00 -0.15336584864E+03  0.15336584864E+03  0.00000000000E+00 0.  1.
          6    1    1    2  501    0  0.83656253739E+02 -0.33059418236E+02  0.14045958801E+03  0.24031061106E+03  0.17300000000E+03 0.  1.
         -6    1    1    2    0  503 -0.83656253739E+02  0.33059418236E+02 -0.11550908425E+02  0.19532976580E+03  0.17300000000E+03 0.  1.
<mgrwt>
<rscale>  2 0.19498793E+03</rscale>
<asrwt>0</asrwt>
<pdfrwt beam="1">  1       21 0.43426850E-01 0.19498793E+03</pdfrwt>
<pdfrwt beam="2">  1       21 0.23594746E-01 0.19498793E+03</pdfrwt>
<totfact> 0.86109459E+04</totfact>
</mgrwt>
</event>
<event>
 4    2  0.3944631E+000  0.2032410E+03  0.7546771E-02  0.1147033E+00
         21   -1    0    0  501  502  0.00000000000E+00  0.00000000000E+00  0.41031747781E+03  0.41031747781E+03  0.00000000000E+00 0.  1.
         21   -1    0    0  502  503 -0.00000000000E+00 -0.00000000000E+00 -0.10101824770E+03  0.10101824770E+03  0.00000000000E+00 0.  1.
          6    1    1    2  501    0 -0.10632293388E+03  0.85643483876E+01  0.16964764647E+03  0.26473994463E+03  0.17300000000E+03 0. -1.
         -6    1    1    2    0  503  0.10632293388E+03 -0.85643483876E+01  0.13965158364E+03  0.24659578088E+03  0.17300000000E+03 0. -1.
<mgrwt>
<rscale>  2 0.20324103E+03</rscale>
<asrwt>0</asrwt>
<pdfrwt beam="1">  1       21 0.63125765E-01 0.20324103E+03</pdfrwt>
<pdfrwt beam="2">  1       21 0.15541269E-01 0.20324103E+03</pdfrwt>
<totfact> 0.85014756E+04</totfact>
</mgrwt>
</event>
<event>
 4    2  0.3944631E+000  0.2216900E+03  0.7546771E-02  0.1132629E+00
         21   -1    0    0  503  502  0.00000000000E+00  0.00000000000E+00  0.41688089276E+02  0.41688089276E+02  0.00000000000E+00 0.  1.
         21   -1    0    0  501  503 -0.00000000000E+00 -0.00000000000E+00 -0.18577259391E+04  0.18577259391E+04  0.00000000000E+00 0.  1.
          6    1    1    2  501    0  0.44069687296E+02 -0.13143563527E+03 -0.14821025497E+04  0.14985908152E+04  0.17300000000E+03 0.  1.
         -6    1    1    2    0  502 -0.44069687296E+02  0.13143563527E+03 -0.33393530012E+03  0.40082321318E+03  0.17300000000E+03 0.  1.
<mgrwt>
<rscale>  2 0.22169002E+03</rscale>
<asrwt>0</asrwt>
<pdfrwt beam="1">  1       21 0.64135516E-02 0.22169002E+03</pdfrwt>
<pdfrwt beam="2">  1       21 0.28580402E+00 0.22169002E+03</pdfrwt>
<totfact> 0.70342021E+03</totfact>
</mgrwt>
</event>
<event>
 4    2  0.3944631E+000  0.1743615E+03  0.7546771E-02  0.1173374E+00
         21   -1    0    0  501  502  0.00000000000E+00  0.00000000000E+00  0.14797045082E+03  0.14797045082E+03  0.00000000000E+00 0. -1.
         21   -1    0    0  502  503 -0.00000000000E+00 -0.00000000000E+00 -0.23507721775E+03  0.23507721775E+03  0.00000000000E+00 0. -1.
          6    1    1    2  501    0 -0.21744439356E+02  0.33811390545E+00  0.24428523929E+02  0.17606444202E+03  0.17300000000E+03 0. -1.
         -6    1    1    2    0  503  0.21744439356E+02 -0.33811390545E+00 -0.11153529086E+03  0.20698322654E+03  0.17300000000E+03 0. -1.
<mgrwt>
<rscale>  2 0.17436151E+03</rscale>
<asrwt>0</asrwt>
<pdfrwt beam="1">  1       21 0.22764685E-01 0.17436151E+03</pdfrwt>
<pdfrwt beam="2">  1       21 0.36165725E-01 0.17436151E+03</pdfrwt>
<totfact> 0.13426166E+05</totfact>
</mgrwt>
</event>
<event>
 4    2  0.3944631E+000  0.1771736E+03  0.7546771E-02  0.1170567E+00
         21   -1    0    0  501  502  0.00000000000E+00  0.00000000000E+00  0.66899397175E+02  0.66899397175E+02  0.00000000000E+00 0. -1.
         21   -1    0    0  502  503 -0.00000000000E+00 -0.00000000000E+00 -0.74412588564E+03  0.74412588564E+03  0.00000000000E+00 0. -1.
          6    1    1    2  501    0 -0.32155727720E+02  0.20675594334E+02 -0.92137624519E+02  0.19969930615E+03  0.17300000000E+03 0. -1.
         -6    1    1    2    0  503  0.32155727720E+02 -0.20675594334E+02 -0.58508886394E+03  0.61132597666E+03  0.17300000000E+03 0. -1.
<mgrwt>
<rscale>  2 0.17717356E+03</rscale>
<asrwt>0</asrwt>
<pdfrwt beam="1">  1       21 0.10292215E-01 0.17717356E+03</pdfrwt>
<pdfrwt beam="2">  1       21 0.11448091E+00 0.17717356E+03</pdfrwt>
<totfact> 0.46085689E+04</totfact>
</mgrwt>
</event>
<event>
 4    2  0.3944631E+000  0.2253540E+03  0.7546771E-02  0.1129953E+00
         21   -1    0    0  503  502  0.00000000000E+00  0.00000000000E+00  0.49776516383E+02  0.49776516383E+02  0.00000000000E+00 0.  1.
         21   -1    0    0  501  503 -0.00000000000E+00 -0.00000000000E+00 -0.11620689476E+04  0.11620689476E+04  0.00000000000E+00 0. -1.
          6    1    1    2  501    0 -0.87113687006E+02 -0.11518077710E+03 -0.76782193302E+03  0.80020930181E+03  0.17300000000E+03 0.  1.
         -6    1    1    2    0  502  0.87113687006E+02  0.11518077710E+03 -0.34447049818E+03  0.41163616215E+03  0.17300000000E+03 0.  1.
<mgrwt>
<rscale>  2 0.22535396E+03</rscale>
<asrwt>0</asrwt>
<pdfrwt beam="1">  1       21 0.76579256E-02 0.22535396E+03</pdfrwt>
<pdfrwt beam="2">  1       21 0.17877984E+00 0.22535396E+03</pdfrwt>
<totfact> 0.23493319E+04</totfact>
</mgrwt>
</event>
<event>
 4    2  0.3944631E+000  0.2136486E+03  0.7546771E-02  0.1138709E+00
         21   -1    0    0  503  502  0.00000000000E+00  0.00000000000E+00  0.30623863804E+03  0.30623863804E+03  0.00000000000E+00 0.  1.
         21   -1    0    0  501  503 -0.00000000000E+00 -0.00000000000E+00 -0.64194485664E+03  0.64194485664E+03  0.00000000000E+00 0.  1.
          6    1    1    2  501    0 -0.52431147192E+02 -0.11387580133E+03 -0.58327506679E+03  0.62117270293E+03  0.17300000000E+03 0.  1.
         -6    1    1    2    0  502  0.52431147192E+02  0.11387580133E+03  0.24756884819E+03  0.32701079175E+03  0.17300000000E+03 0.  1.
<mgrwt>
<rscale>  2 0.21364860E+03</rscale>
<asrwt>0</asrwt>
<pdfrwt beam="1">  1       21 0.47113637E-01 0.21364860E+03</pdfrwt>
<pdfrwt beam="2">  1       21 0.98760747E-01 0.21364860E+03</pdfrwt>
<totfact> 0.35834090E+03</totfact>
</mgrwt>
</event>
<event>
 4    2  0.3944631E+000  0.2015148E+03  0.7546771E-02  0.1148467E+00
         21   -1    0    0  503  502  0.00000000000E+00  0.00000000000E+00  0.19164044888E+04  0.19164044888E+04  0.00000000000E+00 0. -1.
         21   -1    0    0  501  503 -0.00000000000E+00 -0.00000000000E+00 -0.25982670868E+02  0.25982670868E+02  0.00000000000E+00 0. -1.
          6    1    1    2  501    0 -0.72846618835E+02  0.73297900131E+02  0.52808982316E+03  0.56523187575E+03  0.17300000000E+03 0. -1.
         -6    1    1    2    0  502  0.72846618835E+02 -0.73297900131E+02  0.13623319948E+04  0.13771552839E+04  0.17300000000E+03 0. -1.
<mgrwt>
<rscale>  2 0.20151479E+03</rscale>
<asrwt>0</asrwt>
<pdfrwt beam="1">  1       21 0.29483135E+00 0.20151479E+03</pdfrwt>
<pdfrwt beam="2">  1       21 0.39973355E-02 0.20151479E+03</pdfrwt>
<totfact> 0.14212857E+04</totfact>
</mgrwt>
</event>
<event>
 4    2  0.3944631E+000  0.1994357E+03  0.7546771E-02  0.1150216E+00
         21   -1    0    0  503  502  0.00000000000E+00  0.00000000000E+00  0.35004488455E+03  0.35004488455E+03  0.00000000000E+00 0. -1.
         21   -1    0    0  501  503 -0.00000000000E+00 -0.00000000000E+00 -0.22728488337E+03  0.22728488337E+03  0.00000000000E+00 0. -1.
          6    1    1    2  501    0 -0.63191675130E+02 -0.76501104538E+02 -0.14275061807E+03  0.24525975161E+03  0.17300000000E+03 0. -1.
         -6    1    1    2    0  502  0.63191675130E+02  0.76501104538E+02  0.26551061924E+03  0.33207001631E+03  0.17300000000E+03 0. -1.
<mgrwt>
<rscale>  2 0.19943572E+03</rscale>
<asrwt>0</asrwt>
<pdfrwt beam="1">  1       21 0.53853059E-01 0.19943572E+03</pdfrwt>
<pdfrwt beam="2">  1       21 0.34966905E-01 0.19943572E+03</pdfrwt>
<totfact> 0.25612008E+04</totfact>
</mgrwt>
</event>
<event>
 4    2  0.3944631E+000  0.1782413E+03  0.7546771E-02  0.1169516E+00
         21   -1    0    0  501  502  0.00000000000E+00  0.00000000000E+00  0.53617723728E+03  0.53617723728E+03  0.00000000000E+00 0.  1.
         21   -1    0    0  502  503 -0.00000000000E+00 -0.00000000000E+00 -0.23798809913E+03  0.23798809913E+03  0.00000000000E+00 0.  1.
          6    1    1    2  501    0 -0.14029044113E+02  0.40547983845E+02  0.48454734023E+03  0.51629069137E+03  0.17300000000E+03 0.  1.
         -6    1    1    2    0  503  0.14029044113E+02 -0.40547983845E+02 -0.18635820208E+03  0.25787464504E+03  0.17300000000E+03 0.  1.
<mgrwt>
<rscale>  2 0.17824128E+03</rscale>
<asrwt>0</asrwt>
<pdfrwt beam="1">  1       21 0.82488805E-01 0.17824128E+03</pdfrwt>
<pdfrwt beam="2">  1       21 0.36613554E-01 0.17824128E+03</pdfrwt>
<totfact> 0.93260092E+03</totfact>
</mgrwt>
</event>
<event>
 4    2  0.3944631E+000  0.3592310E+03  0.7546771E-02  0.1058889E+00
         21   -1    0    0  501  502  0.00000000000E+00  0.00000000000E+00  0.60983787440E+03  0.60983787440E+03  0.00000000000E+00 0. -1.
         21   -1    0    0  502  503 -0.00000000000E+00 -0.00000000000E+00 -0.45785556891E+03  0.45785556891E+03  0.00000000000E+00 0. -1.
          6    1    1    2  501    0 -0.26438486535E+03 -0.17093432283E+03  0.46749662146E+03  0.58957611114E+03  0.17300000000E+03 0. -1.
         -6    1    1    2    0  503  0.26438486535E+03  0.17093432283E+03 -0.31551431597E+03  0.47811733218E+03  0.17300000000E+03 0. -1.
<mgrwt>
<rscale>  2 0.35923098E+03</rscale>
<asrwt>0</asrwt>
<pdfrwt beam="1">  1       21 0.93821211E-01 0.35923098E+03</pdfrwt>
<pdfrwt beam="2">  1       21 0.70439318E-01 0.35923098E+03</pdfrwt>
<totfact> 0.15560284E+03</totfact>
</mgrwt>
</event>
<event>
 4    2  0.3944631E+000  0.1882924E+03  0.7546771E-02  0.1160011E+00
         21   -1    0    0  503  502  0.00000000000E+00  0.00000000000E+00  0.39400891858E+02  0.39400891858E+02  0.00000000000E+00 0. -1.
         21   -1    0    0  501  503 -0.00000000000E+00 -0.00000000000E+00 -0.11322707736E+04  0.11322707736E+04  0.00000000000E+00 0. -1.
          6    1    1    2  501    0 -0.63232519004E+02 -0.39072498415E+02 -0.81187052435E+03  0.83341931817E+03  0.17300000000E+03 0. -1.
         -6    1    1    2    0  502  0.63232519004E+02  0.39072498415E+02 -0.28099935740E+03  0.33825234730E+03  0.17300000000E+03 0. -1.
<mgrwt>
<rscale>  2 0.18829236E+03</rscale>
<asrwt>0</asrwt>
<pdfrwt beam="1">  1       21 0.60616746E-02 0.18829236E+03</pdfrwt>
<pdfrwt beam="2">  1       21 0.17419554E+00 0.18829236E+03</pdfrwt>
<totfact> 0.38754991E+04</totfact>
</mgrwt>
</event>
<event>
 4    2  0.3944631E+000  0.2199506E+03  0.7546771E-02  0.1133920E+00
         21   -1    0    0  501  502  0.00000000000E+00  0.00000000000E+00  0.14178858475E+04  0.14178858475E+04  0.00000000000E+00 0. -1.
         21   -1    0    0  502  503 -0.00000000000E+00 -0.00000000000E+00 -0.34192459265E+02  0.34192459265E+02  0.00000000000E+00 0.  1.
          6    1    1    2  501    0  0.35591223491E+02 -0.13108219304E+03  0.65842582601E+03  0.69419222473E+03  0.17300000000E+03 0.  1.
         -6    1    1    2    0  503 -0.35591223491E+02  0.13108219304E+03  0.72526756220E+03  0.75788608201E+03  0.17300000000E+03 0. -1.
<mgrwt>
<rscale>  2 0.21995062E+03</rscale>
<asrwt>0</asrwt>
<pdfrwt beam="1">  1       21 0.21813624E+00 0.21995062E+03</pdfrwt>
<pdfrwt beam="2">  1       21 0.52603794E-02 0.21995062E+03</pdfrwt>
<totfact> 0.24976219E+04</totfact>
</mgrwt>
</event>
<event>
 4    2  0.3944631E+000  0.2058109E+03  0.7546771E-02  0.1144927E+00
         21   -1    0    0  503  502  0.00000000000E+00  0.00000000000E+00  0.43613040195E+03  0.43613040195E+03  0.00000000000E+00 0.  1.
         21   -1    0    0  501  503 -0.00000000000E+00 -0.00000000000E+00 -0.97743226252E+02  0.97743226252E+02  0.00000000000E+00 0.  1.
          6    1    1    2  501    0 -0.14527561429E+02  0.11053534114E+03  0.14792269399E+03  0.25345460161E+03  0.17300000000E+03 0.  1.
         -6    1    1    2    0  502  0.14527561429E+02 -0.11053534114E+03  0.19046448171E+03  0.28041902659E+03  0.17300000000E+03 0.  1.
<mgrwt>
<rscale>  2 0.20581086E+03</rscale>
<asrwt>0</asrwt>
<pdfrwt beam="1">  1       21 0.67096984E-01 0.20581086E+03</pdfrwt>
<pdfrwt beam="2">  1       21 0.15037420E-01 0.20581086E+03</pdfrwt>
<totfact> 0.78955850E+04</totfact>
</mgrwt>
</event>
<event>
 4    2  0.3944631E+000  0.2168762E+03  0.7546771E-02  0.1136234E+00
         21   -1    0    0  503  502  0.00000000000E+00  0.00000000000E+00  0.10027081681E+03  0.10027081681E+03  0.00000000000E+00 0. -1.
         21   -1    0    0  501  503 -0.00000000000E+00 -0.00000000000E+00 -0.55814794684E+03  0.55814794684E+03  0.00000000000E+00 0.  1.
          6    1    1    2  501    0 -0.12944481411E+03  0.18716764058E+02 -0.36044662292E+03  0.42066262625E+03  0.17300000000E+03 0.  1.
         -6    1    1    2    0  502  0.12944481411E+03 -0.18716764058E+02 -0.97430507112E+02  0.23775613740E+03  0.17300000000E+03 0.  1.
<mgrwt>
<rscale>  2 0.21687618E+03</rscale>
<asrwt>0</asrwt>
<pdfrwt beam="1">  1       21 0.15426280E-01 0.21687618E+03</pdfrwt>
<pdfrwt beam="2">  1       21 0.85868914E-01 0.21687618E+03</pdfrwt>
<totfact> 0.43101981E+04</totfact>
</mgrwt>
</event>
<event>
 4    2  0.3944631E+000  0.1933628E+03  0.7546771E-02  0.1155463E+00
         21   -1    0    0  501  502  0.00000000000E+00  0.00000000000E+00  0.25602433835E+03  0.25602433835E+03  0.00000000000E+00 0. -1.
         21   -1    0    0  502  503 -0.00000000000E+00 -0.00000000000E+00 -0.15372094368E+03  0.15372094368E+03  0.00000000000E+00 0.  1.
          6    1    1    2  501    0  0.57974483249E+02 -0.64024465325E+02  0.96954637050E+02  0.21630851697E+03  0.17300000000E+03 0.  1.
         -6    1    1    2    0  503 -0.57974483249E+02  0.64024465325E+02  0.53487576131E+01  0.19343676506E+03  0.17300000000E+03 0. -1.
<mgrwt>
<rscale>  2 0.19336280E+03</rscale>
<asrwt>0</asrwt>
<pdfrwt beam="1">  1       21 0.39388360E-01 0.19336280E+03</pdfrwt>
<pdfrwt beam="2">  1       21 0.23649376E-01 0.19336280E+03</pdfrwt>
<totfact> 0.10459413E+05</totfact>
</mgrwt>
</event>
<event>
 4    2  0.3944631E+000  0.1781768E+03  0.7546771E-02  0.1169579E+00
         21   -1    0    0  501  502  0.00000000000E+00  0.00000000000E+00  0.48884190791E+02  0.48884190791E+02  0.00000000000E+00 0. -1.
         21   -1    0    0  502  503 -0.00000000000E+00 -0.00000000000E+00 -0.98990661827E+03  0.98990661827E+03  0.00000000000E+00 0. -1.
          6    1    1    2  501    0  0.28237575988E+02 -0.31946943003E+02 -0.77512056261E+03  0.79533568664E+03  0.17300000000E+03 0. -1.
         -6    1    1    2    0  503 -0.28237575988E+02  0.31946943003E+02 -0.16590186487E+03  0.24345512242E+03  0.17300000000E+03 0. -1.
<mgrwt>
<rscale>  2 0.17817679E+03</rscale>
<asrwt>0</asrwt>
<pdfrwt beam="1">  1       21 0.75206455E-02 0.17817679E+03</pdfrwt>
<pdfrwt beam="2">  1       21 0.15229331E+00 0.17817679E+03</pdfrwt>
<totfact> 0.38702244E+04</totfact>
</mgrwt>
</event>
<event>
 4    2  0.3944631E+000  0.2039872E+03  0.7546771E-02  0.1146418E+00
         21   -1    0    0  501  502  0.00000000000E+00  0.00000000000E+00  0.44963450752E+03  0.44963450752E+03  0.00000000000E+00 0. -1.
         21   -1    0    0  502  503 -0.00000000000E+00 -0.00000000000E+00 -0.13049185401E+03  0.13049185401E+03  0.00000000000E+00 0. -1.
          6    1    1    2  501    0 -0.10710019504E+03 -0.14536977560E+02  0.31599304955E+03  0.37611485328E+03  0.17300000000E+03 0. -1.
         -6    1    1    2    0  503  0.10710019504E+03  0.14536977560E+02  0.31496039693E+01  0.20401150825E+03  0.17300000000E+03 0. -1.
<mgrwt>
<rscale>  2 0.20398719E+03</rscale>
<asrwt>0</asrwt>
<pdfrwt beam="1">  1       21 0.69174539E-01 0.20398719E+03</pdfrwt>
<pdfrwt beam="2">  1       21 0.20075670E-01 0.20398719E+03</pdfrwt>
<totfact> 0.43342520E+04</totfact>
</mgrwt>
</event>
<event>
 4    2  0.3944631E+000  0.1892804E+03  0.7546771E-02  0.1159112E+00
         21   -1    0    0  501  502  0.00000000000E+00  0.00000000000E+00  0.25169816699E+03  0.25169816699E+03  0.00000000000E+00 0.  1.
         21   -1    0    0  502  503 -0.00000000000E+00 -0.00000000000E+00 -0.18400377195E+03  0.18400377195E+03  0.00000000000E+00 0.  1.
          6    1    1    2  501    0  0.62385510590E+02 -0.44789675329E+02  0.13750886300E+03  0.23395673607E+03  0.17300000000E+03 0.  1.
         -6    1    1    2    0  503 -0.62385510590E+02  0.44789675329E+02 -0.69814467950E+02  0.20174520287E+03  0.17300000000E+03 0.  1.
<mgrwt>
<rscale>  2 0.18928039E+03</rscale>
<asrwt>0</asrwt>
<pdfrwt beam="1">  1       21 0.38722795E-01 0.18928039E+03</pdfrwt>
<pdfrwt beam="2">  1       21 0.28308273E-01 0.18928039E+03</pdfrwt>
<totfact> 0.76812757E+04</totfact>
</mgrwt>
</event>
<event>
 4    2  0.3944631E+000  0.1899104E+03  0.7546771E-02  0.1158542E+00
         21   -1    0    0  503  502  0.00000000000E+00  0.00000000000E+00  0.30250874835E+02  0.30250874835E+02  0.00000000000E+00 0. -1.
         21   -1    0    0  501  503 -0.00000000000E+00 -0.00000000000E+00 -0.15475958732E+04  0.15475958732E+04  0.00000000000E+00 0. -1.
          6    1    1    2  501    0 -0.75012028468E+02  0.22586868674E+02 -0.11367183678E+04  0.11524732617E+04  0.17300000000E+03 0. -1.
         -6    1    1    2    0  502  0.75012028468E+02 -0.22586868674E+02 -0.38062663056E+03  0.42537348641E+03  0.17300000000E+03 0. -1.
<mgrwt>
<rscale>  2 0.18991043E+03</rscale>
<asrwt>0</asrwt>
<pdfrwt beam="1">  1       21 0.46539790E-02 0.18991043E+03</pdfrwt>
<pdfrwt beam="2">  1       21 0.23809176E+00 0.18991043E+03</pdfrwt>
<totfact> 0.23805545E+04</totfact>
</mgrwt>
</event>
<event>
 4    2  0.3944631E+000  0.2458364E+03  0.7546771E-02  0.1115965E+00
         21   -1    0    0  501  502  0.00000000000E+00  0.00000000000E+00  0.49515262622E+02  0.49515262622E+02  0.00000000000E+00 0.  1.
         21   -1    0    0  502  503 -0.00000000000E+00 -0.00000000000E+00 -0.13011554726E+04  0.13011554726E+04  0.00000000000E+00 0.  1.
          6    1    1    2  501    0 -0.16862774762E+03  0.45510834397E+02 -0.45772560257E+03  0.51956547284E+03  0.17300000000E+03 0.  1.
         -6    1    1    2    0  503  0.16862774762E+03 -0.45510834397E+02 -0.79391460745E+03  0.83110526243E+03  0.17300000000E+03 0.  1.
<mgrwt>
<rscale>  2 0.24583644E+03</rscale>
<asrwt>0</asrwt>
<pdfrwt beam="1">  1       21 0.76177330E-02 0.24583644E+03</pdfrwt>
<pdfrwt beam="2">  1       21 0.20017776E+00 0.24583644E+03</pdfrwt>
<totfact> 0.16849111E+04</totfact>
</mgrwt>
</event>
<event>
 4    2  0.3944631E+000  0.1998408E+03  0.7546771E-02  0.1149873E+00
         21   -1    0    0  501  502  0.00000000000E+00  0.00000000000E+00  0.48809083617E+02  0.48809083617E+02  0.00000000000E+00 0.  1.
         21   -1    0    0  502  503 -0.00000000000E+00 -0.00000000000E+00 -0.86701791688E+03  0.86701791688E+03  0.00000000000E+00 0.  1.
          6    1    1    2  501    0  0.58088544293E+02 -0.81443737020E+02 -0.51774421108E+03  0.55497335917E+03  0.17300000000E+03 0.  1.
         -6    1    1    2    0  503 -0.58088544293E+02  0.81443737020E+02 -0.30046462218E+03  0.36085364133E+03  0.17300000000E+03 0.  1.
<mgrwt>
<rscale>  2 0.19984084E+03</rscale>
<asrwt>0</asrwt>
<pdfrwt beam="1">  1       21 0.75090892E-02 0.19984084E+03</pdfrwt>
<pdfrwt beam="2">  1       21 0.13338738E+00 0.19984084E+03</pdfrwt>
<totfact> 0.54046226E+04</totfact>
</mgrwt>
</event>
<event>
 4    2  0.3944631E+000  0.2112100E+03  0.7546771E-02  0.1140611E+00
         21   -1    0    0  503  502  0.00000000000E+00  0.00000000000E+00  0.34857430089E+02  0.34857430089E+02  0.00000000000E+00 0. -1.
         21   -1    0    0  501  503 -0.00000000000E+00 -0.00000000000E+00 -0.21383121331E+04  0.21383121331E+04  0.00000000000E+00 0.  1.
          6    1    1    2  501    0 -0.76709552874E+02 -0.93788648377E+02 -0.36322152315E+03  0.42016608733E+03  0.17300000000E+03 0. -1.
         -6    1    1    2    0  502  0.76709552874E+02  0.93788648377E+02 -0.17402331799E+04  0.17530034759E+04  0.17300000000E+03 0.  1.
<mgrwt>
<rscale>  2 0.21121000E+03</rscale>
<asrwt>0</asrwt>
<pdfrwt beam="1">  1       21 0.53626826E-02 0.21121000E+03</pdfrwt>
<pdfrwt beam="2">  1       21 0.32897103E+00 0.21121000E+03</pdfrwt>
<totfact> 0.54262589E+03</totfact>
</mgrwt>
</event>
<event>
 4    2  0.3944631E+000  0.1750616E+03  0.7546771E-02  0.1172670E+00
         21   -1    0    0  503  502  0.00000000000E+00  0.00000000000E+00  0.25979317298E+04  0.25979317298E+04  0.00000000000E+00 0.  1.
         21   -1    0    0  501  503 -0.00000000000E+00 -0.00000000000E+00 -0.11833087050E+02  0.11833087050E+02  0.00000000000E+00 0.  1.
          6    1    1    2  501    0 -0.12218942454E+02 -0.23838147559E+02  0.12205134090E+04  0.12330042746E+04  0.17300000000E+03 0. -1.
         -6    1    1    2    0  502  0.12218942454E+02  0.23838147559E+02  0.13655852338E+04  0.13767605422E+04  0.17300000000E+03 0. -1.
<mgrwt>
<rscale>  2 0.17506159E+03</rscale>
<asrwt>0</asrwt>
<pdfrwt beam="1">  1       21 0.39968135E+00 0.17506159E+03</pdfrwt>
<pdfrwt beam="2">  1       21 0.18204770E-02 0.17506159E+03</pdfrwt>
<totfact> 0.12847775E+04</totfact>
</mgrwt>
</event>
<event>
 4    2  0.3944631E+000  0.2290704E+03  0.7546771E-02  0.1127296E+00
         21   -1    0    0  503  502  0.00000000000E+00  0.00000000000E+00  0.65811706364E+03  0.65811706364E+03  0.00000000000E+00 0.  1.
         21   -1    0    0  501  503 -0.00000000000E+00 -0.00000000000E+00 -0.17200796820E+03  0.17200796820E+03  0.00000000000E+00 0.  1.
          6    1    1    2  501    0 -0.14945834058E+03 -0.14367870437E+02 -0.60951814749E+02  0.23704082979E+03  0.17300000000E+03 0.  1.
         -6    1    1    2    0  502  0.14945834058E+03  0.14367870437E+02  0.54706091019E+03  0.59308420205E+03  0.17300000000E+03 0.  1.
<mgrwt>
<rscale>  2 0.22907036E+03</rscale>
<asrwt>0</asrwt>
<pdfrwt beam="1">  1       21 0.10124878E+00 0.22907036E+03</pdfrwt>
<pdfrwt beam="2">  1       21 0.26462765E-01 0.22907036E+03</pdfrwt>
<totfact> 0.10568711E+04</totfact>
</mgrwt>
</event>
<event>
 4    2  0.3944631E+000  0.2525511E+03  0.7546771E-02  0.1111703E+00
         21   -1    0    0  501  502  0.00000000000E+00  0.00000000000E+00  0.43881969730E+03  0.43881969730E+03  0.00000000000E+00 0. -1.
         21   -1    0    0  502  503 -0.00000000000E+00 -0.00000000000E+00 -0.21280968457E+03  0.21280968457E+03  0.00000000000E+00 0.  1.
          6    1    1    2  501    0  0.15701683993E+03  0.95910280688E+02  0.29644746317E+03  0.38943955678E+03  0.17300000000E+03 0. -1.
         -6    1    1    2    0  503 -0.15701683993E+03 -0.95910280688E+02 -0.70437450442E+02  0.26218982510E+03  0.17300000000E+03 0.  1.
<mgrwt>
<rscale>  2 0.25255112E+03</rscale>
<asrwt>0</asrwt>
<pdfrwt beam="1">  1       21 0.67510722E-01 0.25255112E+03</pdfrwt>
<pdfrwt beam="2">  1       21 0.32739952E-01 0.25255112E+03</pdfrwt>
<totfact> 0.17421962E+04</totfact>
</mgrwt>
</event>
<event>
 4    2  0.3944631E+000  0.1768154E+03  0.7546771E-02  0.1170921E+00
         21   -1    0    0  503  502  0.00000000000E+00  0.00000000000E+00  0.32471413177E+03  0.32471413177E+03  0.00000000000E+00 0.  1.
         21   -1    0    0  501  503 -0.00000000000E+00 -0.00000000000E+00 -0.18751752646E+03  0.18751752646E+03  0.00000000000E+00 0.  1.
          6    1    1    2  501    0  0.57965469776E+01 -0.36070602141E+02 -0.11005073766E+03  0.20826630346E+03  0.17300000000E+03 0.  1.
         -6    1    1    2    0  502 -0.57965469776E+01  0.36070602141E+02  0.24724734297E+03  0.30396535477E+03  0.17300000000E+03 0.  1.
<mgrwt>
<rscale>  2 0.17681541E+03</rscale>
<asrwt>0</asrwt>
<pdfrwt beam="1">  1       21 0.49956020E-01 0.17681541E+03</pdfrwt>
<pdfrwt beam="2">  1       21 0.28848850E-01 0.17681541E+03</pdfrwt>
<totfact> 0.44237946E+04</totfact>
</mgrwt>
</event>
<event>
 4    2  0.3944631E+000  0.1887127E+03  0.7546771E-02  0.1159628E+00
         21   -1    0    0  501  502  0.00000000000E+00  0.00000000000E+00  0.92963953487E+02  0.92963953487E+02  0.00000000000E+00 0.  1.
         21   -1    0    0  502  503 -0.00000000000E+00 -0.00000000000E+00 -0.11280352863E+04  0.11280352863E+04  0.00000000000E+00 0. -1.
          6    1    1    2  501    0  0.73058362177E+02  0.18600085653E+02 -0.21412382753E+02  0.18992360992E+03  0.17300000000E+03 0.  1.
         -6    1    1    2    0  503 -0.73058362177E+02 -0.18600085653E+02 -0.10136589501E+04  0.10310756299E+04  0.17300000000E+03 0. -1.
<mgrwt>
<rscale>  2 0.18871271E+03</rscale>
<asrwt>0</asrwt>
<pdfrwt beam="1">  1       21 0.14302148E-01 0.18871271E+03</pdfrwt>
<pdfrwt beam="2">  1       21 0.17354388E+00 0.18871271E+03</pdfrwt>
<totfact> 0.86498159E+03</totfact>
</mgrwt>
</event>
<event>
 4    2  0.3944631E+000  0.1893079E+03  0.7546771E-02  0.1159087E+00
         21   -1    0    0  501  502  0.00000000000E+00  0.00000000000E+00  0.25613503988E+03  0.25613503988E+03  0.00000000000E+00 0. -1.
         21   -1    0    0  502  503 -0.00000000000E+00 -0.00000000000E+00 -0.13995531813E+03  0.13995531813E+03  0.00000000000E+00 0.  1.
          6    1    1    2  501    0 -0.76866307152E+02 -0.23878193682E+00  0.54786263426E+02  0.19707618033E+03  0.17300000000E+03 0.  1.
         -6    1    1    2    0  503  0.76866307152E+02  0.23878193682E+00  0.61393458323E+02  0.19901417768E+03  0.17300000000E+03 0.  1.
<mgrwt>
<rscale>  2 0.18930791E+03</rscale>
<asrwt>0</asrwt>
<pdfrwt beam="1">  1       21 0.39405391E-01 0.18930791E+03</pdfrwt>
<pdfrwt beam="2">  1       21 0.21531587E-01 0.18930791E+03</pdfrwt>
<totfact> 0.12494469E+05</totfact>
</mgrwt>
</event>
<event>
 4    2  0.3944631E+000  0.1980360E+03  0.7546771E-02  0.1151407E+00
         21   -1    0    0  503  502  0.00000000000E+00  0.00000000000E+00  0.14990584242E+03  0.14990584242E+03  0.00000000000E+00 0.  1.
         21   -1    0    0  501  503 -0.00000000000E+00 -0.00000000000E+00 -0.26386276924E+03  0.26386276924E+03  0.00000000000E+00 0.  1.
          6    1    1    2  501    0 -0.94920150588E+02 -0.16716027733E+02 -0.37901941899E+02  0.20163039892E+03  0.17300000000E+03 0.  1.
         -6    1    1    2    0  502  0.94920150588E+02  0.16716027733E+02 -0.76054984925E+02  0.21213821274E+03  0.17300000000E+03 0.  1.
<mgrwt>
<rscale>  2 0.19803601E+03</rscale>
<asrwt>0</asrwt>
<pdfrwt beam="1">  1       21 0.23062438E-01 0.19803601E+03</pdfrwt>
<pdfrwt beam="2">  1       21 0.40594272E-01 0.19803601E+03</pdfrwt>
<totfact> 0.10301483E+05</totfact>
</mgrwt>
</event>
<event>
 4    2  0.3944631E+000  0.2405811E+03  0.7546771E-02  0.1119406E+00
         21   -1    0    0  503  502  0.00000000000E+00  0.00000000000E+00  0.97307928840E+03  0.97307928840E+03  0.00000000000E+00 0.  1.
         21   -1    0    0  501  503 -0.00000000000E+00 -0.00000000000E+00 -0.11982010352E+03  0.11982010352E+03  0.00000000000E+00 0. -1.
          6    1    1    2  501    0 -0.16293020282E+03  0.37470249070E+02  0.38848646093E+02  0.24369753355E+03  0.17300000000E+03 0. -1.
         -6    1    1    2    0  502  0.16293020282E+03 -0.37470249070E+02  0.81441053879E+03  0.84920185837E+03  0.17300000000E+03 0.  1.
<mgrwt>
<rscale>  2 0.24058111E+03</rscale>
<asrwt>0</asrwt>
<pdfrwt beam="1">  1       21 0.14970450E+00 0.24058111E+03</pdfrwt>
<pdfrwt beam="2">  1       21 0.18433863E-01 0.24058111E+03</pdfrwt>
<totfact> 0.77960355E+03</totfact>
</mgrwt>
</event>
<event>
 4    2  0.3944631E+000  0.2094348E+03  0.7546771E-02  0.1142014E+00
         21   -1    0    0  503  502  0.00000000000E+00  0.00000000000E+00  0.25372025423E+03  0.25372025423E+03  0.00000000000E+00 0.  1.
         21   -1    0    0  501  503 -0.00000000000E+00 -0.00000000000E+00 -0.19087416678E+03  0.19087416678E+03  0.00000000000E+00 0.  1.
          6    1    1    2  501    0  0.78384545385E+02  0.88259778238E+02 -0.36832408388E+02  0.21264889305E+03  0.17300000000E+03 0.  1.
         -6    1    1    2    0  502 -0.78384545385E+02 -0.88259778238E+02  0.99678495836E+02  0.23194552796E+03  0.17300000000E+03 0.  1.
<mgrwt>
<rscale>  2 0.20943478E+03</rscale>
<asrwt>0</asrwt>
<pdfrwt beam="1">  1       21 0.39033885E-01 0.20943478E+03</pdfrwt>
<pdfrwt beam="2">  1       21 0.29365256E-01 0.20943478E+03</pdfrwt>
<totfact> 0.69777901E+04</totfact>
</mgrwt>
</event>
<event>
 4    2  0.3944631E+000  0.1846445E+03  0.7546771E-02  0.1163382E+00
         21   -1    0    0  503  502  0.00000000000E+00  0.00000000000E+00  0.12272401786E+03  0.12272401786E+03  0.00000000000E+00 0. -1.
         21   -1    0    0  501  503 -0.00000000000E+00 -0.00000000000E+00 -0.29326498249E+03  0.29326498249E+03  0.00000000000E+00 0. -1.
          6    1    1    2  501    0 -0.54640903405E+02 -0.34335807857E+02 -0.13302339787E+03  0.22757152811E+03  0.17300000000E+03 0. -1.
         -6    1    1    2    0  502  0.54640903405E+02  0.34335807857E+02 -0.37517566763E+02  0.18841747223E+03  0.17300000000E+03 0. -1.
<mgrwt>
<rscale>  2 0.18464446E+03</rscale>
<asrwt>0</asrwt>
<pdfrwt beam="1">  1       21 0.18880618E-01 0.18464446E+03</pdfrwt>
<pdfrwt beam="2">  1       21 0.45117689E-01 0.18464446E+03</pdfrwt>
<totfact> 0.12146051E+05</totfact>
</mgrwt>
</event>
<event>
 4    2  0.3944631E+000  0.1773414E+03  0.7546771E-02  0.1170401E+00
         21   -1    0    0  503  502  0.00000000000E+00  0.00000000000E+00  0.53422815101E+03  0.53422815101E+03  0.00000000000E+00 0. -1.
         21   -1    0    0  501  503 -0.00000000000E+00 -0.00000000000E+00 -0.59807081959E+02  0.59807081959E+02  0.00000000000E+00 0. -1.
          6    1    1    2  501    0 -0.14651278420E+02  0.36143166140E+02  0.20003094473E+03  0.26732446066E+03  0.17300000000E+03 0. -1.
         -6    1    1    2    0  502  0.14651278420E+02 -0.36143166140E+02  0.27439012432E+03  0.32671077231E+03  0.17300000000E+03 0. -1.
<mgrwt>
<rscale>  2 0.17734145E+03</rscale>
<asrwt>0</asrwt>
<pdfrwt beam="1">  1       21 0.82188943E-01 0.17734145E+03</pdfrwt>
<pdfrwt beam="2">  1       21 0.92010899E-02 0.17734145E+03</pdfrwt>
<totfact> 0.12226132E+05</totfact>
</mgrwt>
</event>
<event>
 4    2  0.3944631E+000  0.1882226E+03  0.7546771E-02  0.1160074E+00
         21   -1    0    0  501  502  0.00000000000E+00  0.00000000000E+00  0.49218141364E+03  0.49218141364E+03  0.00000000000E+00 0.  1.
         21   -1    0    0  502  503 -0.00000000000E+00 -0.00000000000E+00 -0.14193915413E+03  0.14193915413E+03  0.00000000000E+00 0.  1.
          6    1    1    2  501    0 -0.69971226971E+02 -0.24551778384E+02  0.39771314440E+03  0.44000398595E+03  0.17300000000E+03 0.  1.
         -6    1    1    2    0  503  0.69971226971E+02  0.24551778384E+02 -0.47470884880E+02  0.19411658182E+03  0.17300000000E+03 0.  1.
<mgrwt>
<rscale>  2 0.18822264E+03</rscale>
<asrwt>0</asrwt>
<pdfrwt beam="1">  1       21 0.75720217E-01 0.18822264E+03</pdfrwt>
<pdfrwt beam="2">  1       21 0.21836793E-01 0.18822264E+03</pdfrwt>
<totfact> 0.30539995E+04</totfact>
</mgrwt>
</event>
<event>
 4    2  0.3944631E+000  0.1772220E+03  0.7546771E-02  0.1170519E+00
         21   -1    0    0  503  502  0.00000000000E+00  0.00000000000E+00  0.18736057109E+04  0.18736057109E+04  0.00000000000E+00 0. -1.
         21   -1    0    0  501  503 -0.00000000000E+00 -0.00000000000E+00 -0.19341641534E+02  0.19341641534E+02  0.00000000000E+00 0. -1.
          6    1    1    2  501    0  0.36305422171E+02 -0.12670805553E+02  0.58155867063E+03  0.60796226888E+03  0.17300000000E+03 0. -1.
         -6    1    1    2    0  502 -0.36305422171E+02  0.12670805553E+02  0.12727053987E+04  0.12849850836E+04  0.17300000000E+03 0. -1.
<mgrwt>
<rscale>  2 0.17722199E+03</rscale>
<asrwt>0</asrwt>
<pdfrwt beam="1">  1       21 0.28824689E+00 0.17722199E+03</pdfrwt>
<pdfrwt beam="2">  1       21 0.29756386E-02 0.17722199E+03</pdfrwt>
<totfact> 0.25969274E+04</totfact>
</mgrwt>
</event>
<event>
 4    2  0.3944631E+000  0.2022307E+03  0.7546771E-02  0.1147870E+00
         21   -1    0    0  501  502  0.00000000000E+00  0.00000000000E+00  0.42404295134E+02  0.42404295134E+02  0.00000000000E+00 0. -1.
         21   -1    0    0  502  503 -0.00000000000E+00 -0.00000000000E+00 -0.17580153052E+04  0.17580153052E+04  0.00000000000E+00 0. -1.
          6    1    1    2  501    0 -0.27736659063E+02 -0.10098986861E+03 -0.25299291763E+03  0.32388685090E+03  0.17300000000E+03 0. -1.
         -6    1    1    2    0  503  0.27736659063E+02  0.10098986861E+03 -0.14626180924E+04  0.14765327494E+04  0.17300000000E+03 0. -1.
<mgrwt>
<rscale>  2 0.20223075E+03</rscale>
<asrwt>0</asrwt>
<pdfrwt beam="1">  1       21 0.65237374E-02 0.20223075E+03</pdfrwt>
<pdfrwt beam="2">  1       21 0.27046391E+00 0.20223075E+03</pdfrwt>
<totfact> 0.85461329E+03</totfact>
</mgrwt>
</event>
<event>
 4    2  0.3944631E+000  0.2139242E+03  0.7546771E-02  0.1138496E+00
         21   -1    0    0  501  502  0.00000000000E+00  0.00000000000E+00  0.43131923771E+03  0.43131923771E+03  0.00000000000E+00 0.  1.
         21   -1    0    0  502  503 -0.00000000000E+00 -0.00000000000E+00 -0.19470438130E+03  0.19470438130E+03  0.00000000000E+00 0.  1.
          6    1    1    2  501    0  0.78311898103E+02  0.98497873654E+02  0.32946029129E+03  0.39282014718E+03  0.17300000000E+03 0.  1.
         -6    1    1    2    0  503 -0.78311898103E+02 -0.98497873654E+02 -0.92845434876E+02  0.23320347184E+03  0.17300000000E+03 0.  1.
<mgrwt>
<rscale>  2 0.21392425E+03</rscale>
<asrwt>0</asrwt>
<pdfrwt beam="1">  1       21 0.66356806E-01 0.21392425E+03</pdfrwt>
<pdfrwt beam="2">  1       21 0.29954520E-01 0.21392425E+03</pdfrwt>
<totfact> 0.21994183E+04</totfact>
</mgrwt>
</event>
<event>
 4    2  0.3944631E+000  0.1898509E+03  0.7546771E-02  0.1158596E+00
         21   -1    0    0  501  502  0.00000000000E+00  0.00000000000E+00  0.27972877394E+03  0.27972877394E+03  0.00000000000E+00 0.  1.
         21   -1    0    0  502  503 -0.00000000000E+00 -0.00000000000E+00 -0.27653295170E+03  0.27653295170E+03  0.00000000000E+00 0.  1.
          6    1    1    2  501    0 -0.78320438597E+01  0.77801144644E+02  0.20485200852E+03  0.27929859365E+03  0.17300000000E+03 0.  1.
         -6    1    1    2    0  503  0.78320438597E+01 -0.77801144644E+02 -0.20165618628E+03  0.27696313199E+03  0.17300000000E+03 0.  1.
<mgrwt>
<rscale>  2 0.18985089E+03</rscale>
<asrwt>0</asrwt>
<pdfrwt beam="1">  1       21 0.43035196E-01 0.18985089E+03</pdfrwt>
<pdfrwt beam="2">  1       21 0.42543531E-01 0.18985089E+03</pdfrwt>
<totfact> 0.27640601E+04</totfact>
</mgrwt>
</event>
<event>
 4    2  0.3944631E+000  0.1919808E+03  0.7546771E-02  0.1156687E+00
         21   -1    0    0  501  502  0.00000000000E+00  0.00000000000E+00  0.15782502256E+03  0.15782502256E+03  0.00000000000E+00 0.  1.
         21   -1    0    0  502  503 -0.00000000000E+00 -0.00000000000E+00 -0.39292655481E+03  0.39292655481E+03  0.00000000000E+00 0. -1.
          6    1    1    2  501    0  0.61316187357E+02 -0.56284735389E+02  0.57841938465E+02  0.20050520221E+03  0.17300000000E+03 0.  1.
         -6    1    1    2    0  503 -0.61316187357E+02  0.56284735389E+02 -0.29294347071E+03  0.35024637515E+03  0.17300000000E+03 0. -1.
<mgrwt>
<rscale>  2 0.19198085E+03</rscale>
<asrwt>0</asrwt>
<pdfrwt beam="1">  1       21 0.24280773E-01 0.19198085E+03</pdfrwt>
<pdfrwt beam="2">  1       21 0.60450238E-01 0.19198085E+03</pdfrwt>
<totfact> 0.40848833E+04</totfact>
</mgrwt>
</event>
<event>
 4    2  0.3944631E+000  0.1881745E+03  0.7546771E-02  0.1160118E+00
         21   -1    0    0  501  502  0.00000000000E+00  0.00000000000E+00  0.49527335731E+03  0.49527335731E+03  0.00000000000E+00 0. -1.
         21   -1    0    0  502  503 -0.00000000000E+00 -0.00000000000E+00 -0.94345763164E+02  0.94345763164E+02  0.00000000000E+00 0.  1.
          6    1    1    2  501    0 -0.54897429835E+02 -0.49668026861E+02  0.34555107571E+03  0.39346561046E+03  0.17300000000E+03 0. -1.
         -6    1    1    2    0  503  0.54897429835E+02  0.49668026861E+02  0.55376518436E+02  0.19615351001E+03  0.17300000000E+03 0.  1.
<mgrwt>
<rscale>  2 0.18817450E+03</rscale>
<asrwt>0</asrwt>
<pdfrwt beam="1">  1       21 0.76195899E-01 0.18817450E+03</pdfrwt>
<pdfrwt beam="2">  1       21 0.14514733E-01 0.18817450E+03</pdfrwt>
<totfact> 0.64041053E+04</totfact>
</mgrwt>
</event>
<event>
 4    2  0.3944631E+000  0.2384399E+03  0.7546771E-02  0.1120837E+00
         21   -1    0    0  503  502  0.00000000000E+00  0.00000000000E+00  0.32161142867E+02  0.32161142867E+02  0.00000000000E+00 0.  1.
         21   -1    0    0  501  503 -0.00000000000E+00 -0.00000000000E+00 -0.19023707508E+04  0.19023707508E+04  0.00000000000E+00 0.  1.
          6    1    1    2  501    0  0.12854385442E+03 -0.10198558076E+03 -0.67781761397E+03  0.71853343624E+03  0.17300000000E+03 0.  1.
         -6    1    1    2    0  502 -0.12854385442E+03  0.10198558076E+03 -0.11923919940E+04  0.12159984575E+04  0.17300000000E+03 0.  1.
<mgrwt>
<rscale>  2 0.23843989E+03</rscale>
<asrwt>0</asrwt>
<pdfrwt beam="1">  1       21 0.49478677E-02 0.23843989E+03</pdfrwt>
<pdfrwt beam="2">  1       21 0.29267245E+00 0.23843989E+03</pdfrwt>
<totfact> 0.98531108E+03</totfact>
</mgrwt>
</event>
<event>
 4    2  0.3944631E+000  0.2245649E+03  0.7546771E-02  0.1130525E+00
         21   -1    0    0  503  502  0.00000000000E+00  0.00000000000E+00  0.92313326615E+02  0.92313326615E+02  0.00000000000E+00 0. -1.
         21   -1    0    0  501  503 -0.00000000000E+00 -0.00000000000E+00 -0.96215399642E+03  0.96215399642E+03  0.00000000000E+00 0. -1.
          6    1    1    2  501    0 -0.41009525593E+01  0.14312083904E+03 -0.78154468649E+03  0.81316756537E+03  0.17300000000E+03 0. -1.
         -6    1    1    2    0  502  0.41009525593E+01 -0.14312083904E+03 -0.88295983311E+02  0.24129975767E+03  0.17300000000E+03 0. -1.
<mgrwt>
<rscale>  2 0.22456490E+03</rscale>
<asrwt>0</asrwt>
<pdfrwt beam="1">  1       21 0.14202051E-01 0.22456490E+03</pdfrwt>
<pdfrwt beam="2">  1       21 0.14802369E+00 0.22456490E+03</pdfrwt>
<totfact> 0.13116366E+04</totfact>
</mgrwt>
</event>
<event>
 4    2  0.3944631E+000  0.1748945E+03  0.7546771E-02  0.1172838E+00
         21   -1    0    0  501  502  0.00000000000E+00  0.00000000000E+00  0.13143771200E+03  0.13143771200E+03  0.00000000000E+00 0.  1.
         21   -1    0    0  502  503 -0.00000000000E+00 -0.00000000000E+00 -0.23297934883E+03  0.23297934883E+03  0.00000000000E+00 0. -1.
          6    1    1    2  501    0 -0.10507979787E+02  0.23423370277E+02 -0.44681522066E+02  0.18051180108E+03  0.17300000000E+03 0.  1.
         -6    1    1    2    0  503  0.10507979787E+02 -0.23423370277E+02 -0.56860114766E+02  0.18390525976E+03  0.17300000000E+03 0.  1.
<mgrwt>
<rscale>  2 0.17489446E+03</rscale>
<asrwt>0</asrwt>
<pdfrwt beam="1">  1       21 0.20221187E-01 0.17489446E+03</pdfrwt>
<pdfrwt beam="2">  1       21 0.35842976E-01 0.17489446E+03</pdfrwt>
<totfact> 0.17065925E+05</totfact>
</mgrwt>
</event>
<event>
 4    2  0.3944631E+000  0.2284969E+03  0.7546771E-02  0.1127702E+00
         21   -1    0    0  501  502  0.00000000000E+00  0.00000000000E+00  0.14071443475E+03  0.14071443475E+03  0.00000000000E+00 0. -1.
         21   -1    0    0  502  503 -0.00000000000E+00 -0.00000000000E+00 -0.42181686747E+03  0.42181686747E+03  0.00000000000E+00 0.  1.
          6    1    1    2  501    0  0.26773846070E+02  0.14685030733E+03 -0.42966325205E+02  0.23250151977E+03  0.17300000000E+03 0. -1.
         -6    1    1    2    0  503 -0.26773846070E+02 -0.14685030733E+03 -0.23813610752E+03  0.33002978244E+03  0.17300000000E+03 0.  1.
<mgrwt>
<rscale>  2 0.22849694E+03</rscale>
<asrwt>0</asrwt>
<pdfrwt beam="1">  1       21 0.21648375E-01 0.22849694E+03</pdfrwt>
<pdfrwt beam="2">  1       21 0.64894903E-01 0.22849694E+03</pdfrwt>
<totfact> 0.42765698E+04</totfact>
</mgrwt>
</event>
<event>
 4    2  0.3944631E+000  0.2322136E+03  0.7546771E-02  0.1125091E+00
         21   -1    0    0  501  502  0.00000000000E+00  0.00000000000E+00  0.67310824276E+02  0.67310824276E+02  0.00000000000E+00 0. -1.
         21   -1    0    0  502  503 -0.00000000000E+00 -0.00000000000E+00 -0.99739643120E+03  0.99739643120E+03  0.00000000000E+00 0. -1.
          6    1    1    2  501    0 -0.10849370805E+03  0.11055900747E+03 -0.22887827521E+03  0.32604975645E+03  0.17300000000E+03 0. -1.
         -6    1    1    2    0  503  0.10849370805E+03 -0.11055900747E+03 -0.70120733171E+03  0.73865749902E+03  0.17300000000E+03 0. -1.
<mgrwt>
<rscale>  2 0.23221365E+03</rscale>
<asrwt>0</asrwt>
<pdfrwt beam="1">  1       21 0.10355512E-01 0.23221365E+03</pdfrwt>
<pdfrwt beam="2">  1       21 0.15344560E+00 0.23221365E+03</pdfrwt>
<totfact> 0.20939514E+04</totfact>
</mgrwt>
</event>
<event>
 4    2  0.3944631E+000  0.1843622E+03  0.7546771E-02  0.1163647E+00
         21   -1    0    0  501  502  0.00000000000E+00  0.00000000000E+00  0.37397684314E+03  0.37397684314E+03  0.00000000000E+00 0. -1.
         21   -1    0    0  502  503 -0.00000000000E+00 -0.00000000000E+00 -0.13892522902E+03  0.13892522902E+03  0.00000000000E+00 0. -1.
          6    1    1    2  501    0 -0.63051638356E+02 -0.92155407856E+01  0.26832873901E+03  0.32556066635E+03  0.17300000000E+03 0. -1.
         -6    1    1    2    0  503  0.63051638356E+02  0.92155407856E+01 -0.33277124900E+02  0.18734140582E+03  0.17300000000E+03 0. -1.
<mgrwt>
<rscale>  2 0.18436224E+03</rscale>
<asrwt>0</asrwt>
<pdfrwt beam="1">  1       21 0.57534899E-01 0.18436224E+03</pdfrwt>
<pdfrwt beam="2">  1       21 0.21373112E-01 0.18436224E+03</pdfrwt>
<totfact> 0.57992563E+04</totfact>
</mgrwt>
</event>
<event>
 4    2  0.3944631E+000  0.1782075E+03  0.7546771E-02  0.1169549E+00
         21   -1    0    0  503  502  0.00000000000E+00  0.00000000000E+00  0.14795605220E+03  0.14795605220E+03  0.00000000000E+00 0.  1.
         21   -1    0    0  501  503 -0.00000000000E+00 -0.00000000000E+00 -0.24408808721E+03  0.24408808721E+03  0.00000000000E+00 0.  1.
          6    1    1    2  501    0  0.35203778762E+02 -0.24281800953E+02 -0.11614751187E+03  0.21271614046E+03  0.17300000000E+03 0.  1.
         -6    1    1    2    0  502 -0.35203778762E+02  0.24281800953E+02  0.20015476859E+02  0.17932799896E+03  0.17300000000E+03 0.  1.
<mgrwt>
<rscale>  2 0.17820750E+03</rscale>
<asrwt>0</asrwt>
<pdfrwt beam="1">  1       21 0.22762470E-01 0.17820750E+03</pdfrwt>
<pdfrwt beam="2">  1       21 0.37552013E-01 0.17820750E+03</pdfrwt>
<totfact> 0.12441665E+05</totfact>
</mgrwt>
</event>
<event>
 4    2  0.3944631E+000  0.2054812E+03  0.7546771E-02  0.1145195E+00
         21   -1    0    0  501  502  0.00000000000E+00  0.00000000000E+00  0.22174281567E+03  0.22174281567E+03  0.00000000000E+00 0.  1.
         21   -1    0    0  502  503 -0.00000000000E+00 -0.00000000000E+00 -0.74115004377E+03  0.74115004377E+03  0.00000000000E+00 0.  1.
          6    1    1    2  501    0 -0.15246192816E+02  0.10982295836E+03  0.15531480981E+03  0.25757565632E+03  0.17300000000E+03 0.  1.
         -6    1    1    2    0  503  0.15246192816E+02 -0.10982295836E+03 -0.67472203791E+03  0.70531720312E+03  0.17300000000E+03 0.  1.
<mgrwt>
<rscale>  2 0.20548121E+03</rscale>
<asrwt>0</asrwt>
<pdfrwt beam="1">  1       21 0.34114279E-01 0.20548121E+03</pdfrwt>
<pdfrwt beam="2">  1       21 0.11402308E+00 0.20548121E+03</pdfrwt>
<totfact> 0.49053183E+03</totfact>
</mgrwt>
</event>
<event>
 4    2  0.3944631E+000  0.1970464E+03  0.7546771E-02  0.1152255E+00
         21   -1    0    0  503  502  0.00000000000E+00  0.00000000000E+00  0.59277205129E+03  0.59277205129E+03  0.00000000000E+00 0. -1.
         21   -1    0    0  501  503 -0.00000000000E+00 -0.00000000000E+00 -0.87193634116E+02  0.87193634116E+02  0.00000000000E+00 0. -1.
          6    1    1    2  501    0 -0.15291468596E+02 -0.93083018715E+02  0.83211481207E+02  0.21389583444E+03  0.17300000000E+03 0. -1.
         -6    1    1    2    0  502  0.15291468596E+02  0.93083018715E+02  0.42236693597E+03  0.46606985097E+03  0.17300000000E+03 0. -1.
<mgrwt>
<rscale>  2 0.19704638E+03</rscale>
<asrwt>0</asrwt>
<pdfrwt beam="1">  1       21 0.91195698E-01 0.19704638E+03</pdfrwt>
<pdfrwt beam="2">  1       21 0.13414406E-01 0.19704638E+03</pdfrwt>
<totfact> 0.48835946E+04</totfact>
</mgrwt>
</event>
<event>
 4    2  0.3944631E+000  0.3357660E+03  0.7546771E-02  0.1068614E+00
         21   -1    0    0  501  502  0.00000000000E+00  0.00000000000E+00  0.20213170102E+03  0.20213170102E+03  0.00000000000E+00 0. -1.
         21   -1    0    0  502  503 -0.00000000000E+00 -0.00000000000E+00 -0.59695762507E+03  0.59695762507E+03  0.00000000000E+00 0.  1.
          6    1    1    2  501    0 -0.31021913781E+02 -0.28608992368E+03 -0.95016952168E+02  0.34895132148E+03  0.17300000000E+03 0.  1.
         -6    1    1    2    0  503  0.31021913781E+02  0.28608992368E+03 -0.29980897188E+03  0.45013800460E+03  0.17300000000E+03 0. -1.
<mgrwt>
<rscale>  2 0.33576600E+03</rscale>
<asrwt>0</asrwt>
<pdfrwt beam="1">  1       21 0.31097184E-01 0.33576600E+03</pdfrwt>
<pdfrwt beam="2">  1       21 0.91839636E-01 0.33576600E+03</pdfrwt>
<totfact> 0.92132047E+03</totfact>
</mgrwt>
</event>
<event>
 4    2  0.3944631E+000  0.1871528E+03  0.7546771E-02  0.1161055E+00
         21   -1    0    0  503  502  0.00000000000E+00  0.00000000000E+00  0.10144556309E+04  0.10144556309E+04  0.00000000000E+00 0.  1.
         21   -1    0    0  501  503 -0.00000000000E+00 -0.00000000000E+00 -0.54284939925E+02  0.54284939925E+02  0.00000000000E+00 0. -1.
          6    1    1    2  501    0  0.68239537801E+02  0.20988747754E+02  0.15770178951E+03  0.24473662673E+03  0.17300000000E+03 0. -1.
         -6    1    1    2    0  502 -0.68239537801E+02 -0.20988747754E+02  0.80246890147E+03  0.82400394409E+03  0.17300000000E+03 0.  1.
<mgrwt>
<rscale>  2 0.18715278E+03</rscale>
<asrwt>0</asrwt>
<pdfrwt beam="1">  1       21 0.15607008E+00 0.18715278E+03</pdfrwt>
<pdfrwt beam="2">  1       21 0.83515299E-02 0.18715278E+03</pdfrwt>
<totfact> 0.30062806E+04</totfact>
</mgrwt>
</event>
<event>
 4    2  0.3944631E+000  0.4410049E+03  0.7546771E-02  0.1030439E+00
         21   -1    0    0  503  502  0.00000000000E+00  0.00000000000E+00  0.24213183387E+03  0.24213183387E+03  0.00000000000E+00 0.  1.
         21   -1    0    0  501  503 -0.00000000000E+00 -0.00000000000E+00 -0.91003832463E+03  0.91003832463E+03  0.00000000000E+00 0. -1.
          6    1    1    2  501    0 -0.40449503364E+03 -0.30660810790E+02 -0.53132186591E+03  0.69049854652E+03  0.17300000000E+03 0. -1.
         -6    1    1    2    0  502  0.40449503364E+03  0.30660810790E+02 -0.13658462485E+03  0.46167161198E+03  0.17300000000E+03 0.  1.
<mgrwt>
<rscale>  2 0.44100490E+03</rscale>
<asrwt>0</asrwt>
<pdfrwt beam="1">  1       21 0.37251051E-01 0.44100490E+03</pdfrwt>
<pdfrwt beam="2">  1       21 0.14000590E+00 0.44100490E+03</pdfrwt>
<totfact> 0.21434682E+03</totfact>
</mgrwt>
</event>
<event>
 4    2  0.3944631E+000  0.2919721E+03  0.7546771E-02  0.1089324E+00
         21   -1    0    0  501  502  0.00000000000E+00  0.00000000000E+00  0.70655115748E+03  0.70655115748E+03  0.00000000000E+00 0.  1.
         21   -1    0    0  502  503 -0.00000000000E+00 -0.00000000000E+00 -0.12075801072E+03  0.12075801072E+03  0.00000000000E+00 0. -1.
          6    1    1    2  501    0 -0.22849991569E+03 -0.55735717686E+02  0.30508123735E+03  0.42228218418E+03  0.17300000000E+03 0.  1.
         -6    1    1    2    0  503  0.22849991569E+03  0.55735717686E+02  0.28071190941E+03  0.40502698402E+03  0.17300000000E+03 0. -1.
<mgrwt>
<rscale>  2 0.29197206E+03</rscale>
<asrwt>0</asrwt>
<pdfrwt beam="1">  1       21 0.10870018E+00 0.29197206E+03</pdfrwt>
<pdfrwt beam="2">  1       21 0.18578156E-01 0.29197206E+03</pdfrwt>
<totfact> 0.16868557E+04</totfact>
</mgrwt>
</event>
<event>
 4    2  0.3944631E+000  0.1742247E+03  0.7546771E-02  0.1173512E+00
         21   -1    0    0  503  502  0.00000000000E+00  0.00000000000E+00  0.42352699952E+03  0.42352699952E+03  0.00000000000E+00 0.  1.
         21   -1    0    0  501  503 -0.00000000000E+00 -0.00000000000E+00 -0.22801172323E+03  0.22801172323E+03  0.00000000000E+00 0.  1.
          6    1    1    2  501    0  0.19425693106E+02  0.69202840708E+01 -0.17199697033E+03  0.24482076237E+03  0.17300000000E+03 0.  1.
         -6    1    1    2    0  502 -0.19425693106E+02 -0.69202840708E+01  0.36751224662E+03  0.40671796039E+03  0.17300000000E+03 0.  1.
<mgrwt>
<rscale>  2 0.17422471E+03</rscale>
<asrwt>0</asrwt>
<pdfrwt beam="1">  1       21 0.65158000E-01 0.17422471E+03</pdfrwt>
<pdfrwt beam="2">  1       21 0.35078727E-01 0.17422471E+03</pdfrwt>
<totfact> 0.17182729E+04</totfact>
</mgrwt>
</event>
<event>
 4    2  0.3944631E+000  0.2482756E+03  0.7546771E-02  0.1114399E+00
         21   -1    0    0  501  502  0.00000000000E+00  0.00000000000E+00  0.15001715987E+03  0.15001715987E+03  0.00000000000E+00 0.  1.
         21   -1    0    0  502  503 -0.00000000000E+00 -0.00000000000E+00 -0.46254660799E+03  0.46254660799E+03  0.00000000000E+00 0.  1.
          6    1    1    2  501    0  0.14079259591E+03  0.10903763556E+03 -0.53911715808E+02  0.25406147707E+03  0.17300000000E+03 0.  1.
         -6    1    1    2    0  503 -0.14079259591E+03 -0.10903763556E+03 -0.25861773232E+03  0.35850229079E+03  0.17300000000E+03 0.  1.
<mgrwt>
<rscale>  2 0.24827557E+03</rscale>
<asrwt>0</asrwt>
<pdfrwt beam="1">  1       21 0.23079563E-01 0.24827557E+03</pdfrwt>
<pdfrwt beam="2">  1       21 0.71161016E-01 0.24827557E+03</pdfrwt>
<totfact> 0.30633298E+04</totfact>
</mgrwt>
</event>
<event>
 4    2  0.3944631E+000  0.1748209E+03  0.7546771E-02  0.1172912E+00
         21   -1    0    0  501  502  0.00000000000E+00  0.00000000000E+00  0.23284032293E+03  0.23284032293E+03  0.00000000000E+00 0.  1.
         21   -1    0    0  502  503 -0.00000000000E+00 -0.00000000000E+00 -0.30327086070E+03  0.30327086070E+03  0.00000000000E+00 0.  1.
          6    1    1    2  501    0  0.25162997303E+02 -0.39757519497E+00  0.16666274159E+03  0.24153427072E+03  0.17300000000E+03 0.  1.
         -6    1    1    2    0  503 -0.25162997303E+02  0.39757519497E+00 -0.23709327937E+03  0.29457691291E+03  0.17300000000E+03 0.  1.
<mgrwt>
<rscale>  2 0.17482086E+03</rscale>
<asrwt>0</asrwt>
<pdfrwt beam="1">  1       21 0.35821588E-01 0.17482086E+03</pdfrwt>
<pdfrwt beam="2">  1       21 0.46657056E-01 0.17482086E+03</pdfrwt>
<totfact> 0.33369386E+04</totfact>
</mgrwt>
</event>
<event>
 4    2  0.3944631E+000  0.1888328E+03  0.7546771E-02  0.1159518E+00
         21   -1    0    0  503  502  0.00000000000E+00  0.00000000000E+00  0.65146515787E+03  0.65146515787E+03  0.00000000000E+00 0.  1.
         21   -1    0    0  501  503 -0.00000000000E+00 -0.00000000000E+00 -0.95913228277E+02  0.95913228277E+02  0.00000000000E+00 0.  1.
          6    1    1    2  501    0  0.73990676697E+02  0.15943967094E+02  0.32922618305E+02  0.19168132178E+03  0.17300000000E+03 0.  1.
         -6    1    1    2    0  502 -0.73990676697E+02 -0.15943967094E+02  0.52262931129E+03  0.55569706436E+03  0.17300000000E+03 0.  1.
<mgrwt>
<rscale>  2 0.18883281E+03</rscale>
<asrwt>0</asrwt>
<pdfrwt beam="1">  1       21 0.10022541E+00 0.18883281E+03</pdfrwt>
<pdfrwt beam="2">  1       21 0.14755882E-01 0.18883281E+03</pdfrwt>
<totfact> 0.33073836E+04</totfact>
</mgrwt>
</event>
<event>
 4    2  0.3944631E+000  0.1756904E+03  0.7546771E-02  0.1172040E+00
         21   -1    0    0  501  502  0.00000000000E+00  0.00000000000E+00  0.70164766168E+02  0.70164766168E+02  0.00000000000E+00 0.  1.
         21   -1    0    0  502  503 -0.00000000000E+00 -0.00000000000E+00 -0.65312823576E+03  0.65312823576E+03  0.00000000000E+00 0.  1.
          6    1    1    2  501    0  0.21003100075E+02  0.22293026480E+02 -0.84856311835E+02  0.19510946389E+03  0.17300000000E+03 0.  1.
         -6    1    1    2    0  503 -0.21003100075E+02 -0.22293026480E+02 -0.49810715776E+03  0.52818353804E+03  0.17300000000E+03 0.  1.
<mgrwt>
<rscale>  2 0.17569038E+03</rscale>
<asrwt>0</asrwt>
<pdfrwt beam="1">  1       21 0.10794580E-01 0.17569038E+03</pdfrwt>
<pdfrwt beam="2">  1       21 0.10048127E+00 0.17569038E+03</pdfrwt>
<totfact> 0.57994896E+04</totfact>
</mgrwt>
</event>
<event>
 4    2  0.3944631E+000  0.1834941E+03  0.7546771E-02  0.1164464E+00
         21   -1    0    0  503  502  0.00000000000E+00  0.00000000000E+00  0.14443921370E+03  0.14443921370E+03  0.00000000000E+00 0. -1.
         21   -1    0    0  501  503 -0.00000000000E+00 -0.00000000000E+00 -0.53605905553E+03  0.53605905553E+03  0.00000000000E+00 0. -1.
          6    1    1    2  501    0 -0.24096704596E+02 -0.56217839929E+02 -0.45159555521E+03  0.48745116903E+03  0.17300000000E+03 0. -1.
         -6    1    1    2    0  502  0.24096704596E+02  0.56217839929E+02  0.59975713390E+02  0.19304710020E+03  0.17300000000E+03 0. -1.
<mgrwt>
<rscale>  2 0.18349413E+03</rscale>
<asrwt>0</asrwt>
<pdfrwt beam="1">  1       21 0.22221418E-01 0.18349413E+03</pdfrwt>
<pdfrwt beam="2">  1       21 0.82470624E-01 0.18349413E+03</pdfrwt>
<totfact> 0.24445054E+04</totfact>
</mgrwt>
</event>
<event>
 4    2  0.3944631E+000  0.2224863E+03  0.7546771E-02  0.1132043E+00
         21   -1    0    0  501  502  0.00000000000E+00  0.00000000000E+00  0.81831683152E+03  0.81831683152E+03  0.00000000000E+00 0.  1.
         21   -1    0    0  502  503 -0.00000000000E+00 -0.00000000000E+00 -0.86889222015E+02  0.86889222015E+02  0.00000000000E+00 0. -1.
          6    1    1    2  501    0 -0.97222853002E+02  0.10059259473E+03  0.61518957599E+03  0.65418527014E+03  0.17300000000E+03 0.  1.
         -6    1    1    2    0  503  0.97222853002E+02 -0.10059259473E+03  0.11623803352E+03  0.25102078340E+03  0.17300000000E+03 0. -1.
<mgrwt>
<rscale>  2 0.22248630E+03</rscale>
<asrwt>0</asrwt>
<pdfrwt beam="1">  1       21 0.12589489E+00 0.22248630E+03</pdfrwt>
<pdfrwt beam="2">  1       21 0.13367573E-01 0.22248630E+03</pdfrwt>
<totfact> 0.22242612E+04</totfact>
</mgrwt>
</event>
<event>
 4    2  0.3944631E+000  0.1924422E+03  0.7546771E-02  0.1156277E+00
         21   -1    0    0  501  502  0.00000000000E+00  0.00000000000E+00  0.22541587035E+02  0.22541587035E+02  0.00000000000E+00 0. -1.
         21   -1    0    0  502  503 -0.00000000000E+00 -0.00000000000E+00 -0.19658053225E+04  0.19658053225E+04  0.00000000000E+00 0. -1.
          6    1    1    2  501    0  0.28867579019E+02  0.79193802240E+02 -0.56871363641E+03  0.60039086907E+03  0.17300000000E+03 0. -1.
         -6    1    1    2    0  503 -0.28867579019E+02 -0.79193802240E+02 -0.13745500991E+04  0.13879560405E+04  0.17300000000E+03 0. -1.
<mgrwt>
<rscale>  2 0.19244219E+03</rscale>
<asrwt>0</asrwt>
<pdfrwt beam="1">  1       21 0.34679368E-02 0.19244219E+03</pdfrwt>
<pdfrwt beam="2">  1       21 0.30243156E+00 0.19244219E+03</pdfrwt>
<totfact> 0.16443836E+04</totfact>
</mgrwt>
</event>
<event>
 4    2  0.3944631E+000  0.1775776E+03  0.7546771E-02  0.1170168E+00
         21   -1    0    0  501  502  0.00000000000E+00  0.00000000000E+00  0.31898264047E+04  0.31898264047E+04  0.00000000000E+00 0. -1.
         21   -1    0    0  502  503 -0.00000000000E+00 -0.00000000000E+00 -0.27023870751E+02  0.27023870751E+02  0.00000000000E+00 0. -1.
          6    1    1    2  501    0  0.36211090370E+02 -0.17133301112E+02  0.28622823329E+04  0.28677855475E+04  0.17300000000E+03 0. -1.
         -6    1    1    2    0  503 -0.36211090370E+02  0.17133301112E+02  0.30052020099E+03  0.34906472792E+03  0.17300000000E+03 0. -1.
<mgrwt>
<rscale>  2 0.17757757E+03</rscale>
<asrwt>0</asrwt>
<pdfrwt beam="1">  1       21 0.49074223E+00 0.17757757E+03</pdfrwt>
<pdfrwt beam="2">  1       21 0.41575211E-02 0.17757757E+03</pdfrwt>
<totfact> 0.82860199E+02</totfact>
</mgrwt>
</event>
<event>
 4    2  0.3944631E+000  0.1971497E+03  0.7546771E-02  0.1152166E+00
         21   -1    0    0  503  502  0.00000000000E+00  0.00000000000E+00  0.43585985487E+03  0.43585985487E+03  0.00000000000E+00 0. -1.
         21   -1    0    0  501  503 -0.00000000000E+00 -0.00000000000E+00 -0.11629514854E+03  0.11629514854E+03  0.00000000000E+00 0. -1.
          6    1    1    2  501    0 -0.65472974802E+02  0.68207747469E+02  0.26463217567E+02  0.19891784517E+03  0.17300000000E+03 0. -1.
         -6    1    1    2    0  502  0.65472974802E+02 -0.68207747469E+02  0.29310148877E+03  0.35323715824E+03  0.17300000000E+03 0. -1.
<mgrwt>
<rscale>  2 0.19714971E+03</rscale>
<asrwt>0</asrwt>
<pdfrwt beam="1">  1       21 0.67055361E-01 0.19714971E+03</pdfrwt>
<pdfrwt beam="2">  1       21 0.17891562E-01 0.19714971E+03</pdfrwt>
<totfact> 0.57691037E+04</totfact>
</mgrwt>
</event>
<event>
 4    2  0.3944631E+000  0.2656640E+03  0.7546771E-02  0.1103787E+00
         21   -1    0    0  501  502  0.00000000000E+00  0.00000000000E+00  0.22394733634E+04  0.22394733634E+04  0.00000000000E+00 0. -1.
         21   -1    0    0  502  503 -0.00000000000E+00 -0.00000000000E+00 -0.37143138632E+02  0.37143138632E+02  0.00000000000E+00 0.  1.
          6    1    1    2  501    0  0.72214249795E+02 -0.18823779943E+03  0.15442599670E+04  0.15669448659E+04  0.17300000000E+03 0. -1.
         -6    1    1    2    0  503 -0.72214249795E+02  0.18823779943E+03  0.65807025777E+03  0.70967163616E+03  0.17300000000E+03 0.  1.
<mgrwt>
<rscale>  2 0.26566401E+03</rscale>
<asrwt>0</asrwt>
<pdfrwt beam="1">  1       21 0.34453426E+00 0.26566401E+03</pdfrwt>
<pdfrwt beam="2">  1       21 0.57143308E-02 0.26566401E+03</pdfrwt>
<totfact> 0.37253500E+03</totfact>
</mgrwt>
</event>
<event>
 4    2  0.3944631E+000  0.2383923E+03  0.7546771E-02  0.1120868E+00
         21   -1    0    0  503  502  0.00000000000E+00  0.00000000000E+00  0.17005343436E+03  0.17005343436E+03  0.00000000000E+00 0. -1.
         21   -1    0    0  501  503 -0.00000000000E+00 -0.00000000000E+00 -0.46684731482E+03  0.46684731482E+03  0.00000000000E+00 0.  1.
          6    1    1    2  501    0  0.15856466108E+03  0.41942198982E+02 -0.31814811348E+03  0.39755392328E+03  0.17300000000E+03 0. -1.
         -6    1    1    2    0  502 -0.15856466108E+03 -0.41942198982E+02  0.21354233019E+02  0.23934682590E+03  0.17300000000E+03 0. -1.
<mgrwt>
<rscale>  2 0.23839232E+03</rscale>
<asrwt>0</asrwt>
<pdfrwt beam="1">  1       21 0.26162067E-01 0.23839232E+03</pdfrwt>
<pdfrwt beam="2">  1       21 0.71822664E-01 0.23839232E+03</pdfrwt>
<totfact> 0.23709083E+04</totfact>
</mgrwt>
</event>
<event>
 4    2  0.3944631E+000  0.2359690E+03  0.7546771E-02  0.1122508E+00
         21   -1    0    0  501  502  0.00000000000E+00  0.00000000000E+00  0.34644999450E+03  0.34644999450E+03  0.00000000000E+00 0. -1.
         21   -1    0    0  502  503 -0.00000000000E+00 -0.00000000000E+00 -0.26943033769E+03  0.26943033769E+03  0.00000000000E+00 0.  1.
          6    1    1    2  501    0 -0.13930479891E+03  0.79665247637E+02  0.23411434827E+03  0.33240172494E+03  0.17300000000E+03 0. -1.
         -6    1    1    2    0  503  0.13930479891E+03 -0.79665247637E+02 -0.15709469147E+03  0.28347860725E+03  0.17300000000E+03 0.  1.
<mgrwt>
<rscale>  2 0.23596902E+03</rscale>
<asrwt>0</asrwt>
<pdfrwt beam="1">  1       21 0.53300000E-01 0.23596902E+03</pdfrwt>
<pdfrwt beam="2">  1       21 0.41450821E-01 0.23596902E+03</pdfrwt>
<totfact> 0.18219591E+04</totfact>
</mgrwt>
</event>
<event>
 4    2  0.3944631E+000  0.2564700E+03  0.7546771E-02  0.1109283E+00
         21   -1    0    0  503  502  0.00000000000E+00  0.00000000000E+00  0.97721030462E+02  0.97721030462E+02  0.00000000000E+00 0. -1.
         21   -1    0    0  501  503 -0.00000000000E+00 -0.00000000000E+00 -0.78404292075E+03  0.78404292075E+03  0.00000000000E+00 0. -1.
          6    1    1    2  501    0 -0.18933390762E+03  0.73442048663E+00 -0.50899944116E+03  0.56996254179E+03  0.17300000000E+03 0. -1.
         -6    1    1    2    0  502  0.18933390762E+03 -0.73442048663E+00 -0.17732244913E+03  0.31180140942E+03  0.17300000000E+03 0. -1.
<mgrwt>
<rscale>  2 0.25647001E+03</rscale>
<asrwt>0</asrwt>
<pdfrwt beam="1">  1       21 0.15034005E-01 0.25647001E+03</pdfrwt>
<pdfrwt beam="2">  1       21 0.12062199E+00 0.25647001E+03</pdfrwt>
<totfact> 0.19636097E+04</totfact>
</mgrwt>
</event>
<event>
 4    2  0.3944631E+000  0.2076496E+03  0.7546771E-02  0.1143441E+00
         21   -1    0    0  501  502  0.00000000000E+00  0.00000000000E+00  0.49059195972E+02  0.49059195972E+02  0.00000000000E+00 0. -1.
         21   -1    0    0  502  503 -0.00000000000E+00 -0.00000000000E+00 -0.90185415908E+03  0.90185415908E+03  0.00000000000E+00 0. -1.
          6    1    1    2  501    0 -0.43661086017E+02  0.10622176152E+03 -0.35055195681E+03  0.40743714543E+03  0.17300000000E+03 0. -1.
         -6    1    1    2    0  503  0.43661086017E+02 -0.10622176152E+03 -0.50224300630E+03  0.54347620963E+03  0.17300000000E+03 0. -1.
<mgrwt>
<rscale>  2 0.20764959E+03</rscale>
<asrwt>0</asrwt>
<pdfrwt beam="1">  1       21 0.75475693E-02 0.20764959E+03</pdfrwt>
<pdfrwt beam="2">  1       21 0.13874678E+00 0.20764959E+03</pdfrwt>
<totfact> 0.48225438E+04</totfact>
</mgrwt>
</event>
<event>
 4    2  0.3944631E+000  0.1952122E+03  0.7546771E-02  0.1153843E+00
         21   -1    0    0  501  502  0.00000000000E+00  0.00000000000E+00  0.18200702006E+03  0.18200702006E+03  0.00000000000E+00 0.  1.
         21   -1    0    0  502  503 -0.00000000000E+00 -0.00000000000E+00 -0.28734866661E+03  0.28734866661E+03  0.00000000000E+00 0. -1.
          6    1    1    2  501    0 -0.86662654635E+02 -0.25853276464E+02  0.69576717291E+02  0.20724074696E+03  0.17300000000E+03 0.  1.
         -6    1    1    2    0  503  0.86662654635E+02  0.25853276464E+02 -0.17491836384E+03  0.26211493971E+03  0.17300000000E+03 0. -1.
<mgrwt>
<rscale>  2 0.19521221E+03</rscale>
<asrwt>0</asrwt>
<pdfrwt beam="1">  1       21 0.28001080E-01 0.19521221E+03</pdfrwt>
<pdfrwt beam="2">  1       21 0.44207487E-01 0.19521221E+03</pdfrwt>
<totfact> 0.59803088E+04</totfact>
</mgrwt>
</event>
<event>
 4    2  0.3944631E+000  0.1788011E+03  0.7546771E-02  0.1168968E+00
         21   -1    0    0  503  502  0.00000000000E+00  0.00000000000E+00  0.46608992881E+02  0.46608992881E+02  0.00000000000E+00 0.  1.
         21   -1    0    0  501  503 -0.00000000000E+00 -0.00000000000E+00 -0.20197618521E+04  0.20197618521E+04  0.00000000000E+00 0.  1.
          6    1    1    2  501    0  0.44361716553E+02  0.85363877210E+01 -0.18261931641E+04  0.18349254220E+04  0.17300000000E+03 0.  1.
         -6    1    1    2    0  502 -0.44361716553E+02 -0.85363877210E+01 -0.14695969510E+03  0.23144542293E+03  0.17300000000E+03 0.  1.
<mgrwt>
<rscale>  2 0.17880110E+03</rscale>
<asrwt>0</asrwt>
<pdfrwt beam="1">  1       21 0.71706139E-02 0.17880110E+03</pdfrwt>
<pdfrwt beam="2">  1       21 0.31073261E+00 0.17880110E+03</pdfrwt>
<totfact> 0.43705700E+03</totfact>
</mgrwt>
</event>
<event>
 4    2  0.3944631E+000  0.2757378E+03  0.7546771E-02  0.1098040E+00
         21   -1    0    0  503  502  0.00000000000E+00  0.00000000000E+00  0.47423985230E+03  0.47423985230E+03  0.00000000000E+00 0. -1.
         21   -1    0    0  501  503 -0.00000000000E+00 -0.00000000000E+00 -0.32391023033E+03  0.32391023033E+03  0.00000000000E+00 0. -1.
          6    1    1    2  501    0 -0.18878993938E+03  0.10227748479E+03 -0.20844260335E+03  0.34565827633E+03  0.17300000000E+03 0. -1.
         -6    1    1    2    0  502  0.18878993938E+03 -0.10227748479E+03  0.35877222533E+03  0.45249180630E+03  0.17300000000E+03 0. -1.
<mgrwt>
<rscale>  2 0.27573778E+03</rscale>
<asrwt>0</asrwt>
<pdfrwt beam="1">  1       21 0.72959977E-01 0.27573778E+03</pdfrwt>
<pdfrwt beam="2">  1       21 0.49832343E-01 0.27573778E+03</pdfrwt>
<totfact> 0.61494854E+03</totfact>
</mgrwt>
</event>
<event>
 4    2  0.3944631E+000  0.1987945E+03  0.7546771E-02  0.1150760E+00
         21   -1    0    0  501  502  0.00000000000E+00  0.00000000000E+00  0.66343422976E+03  0.66343422976E+03  0.00000000000E+00 0.  1.
         21   -1    0    0  502  503 -0.00000000000E+00 -0.00000000000E+00 -0.60258158411E+02  0.60258158411E+02  0.00000000000E+00 0. -1.
          6    1    1    2  501    0  0.27026280692E+02  0.94126755182E+02  0.34032074399E+03  0.39412875394E+03  0.17300000000E+03 0. -1.
         -6    1    1    2    0  503 -0.27026280692E+02 -0.94126755182E+02  0.26285532736E+03  0.32956363424E+03  0.17300000000E+03 0.  1.
<mgrwt>
<rscale>  2 0.19879453E+03</rscale>
<asrwt>0</asrwt>
<pdfrwt beam="1">  1       21 0.10206680E+00 0.19879453E+03</pdfrwt>
<pdfrwt beam="2">  1       21 0.92704864E-02 0.19879453E+03</pdfrwt>
<totfact> 0.72298340E+04</totfact>
</mgrwt>
</event>
<event>
 4    2  0.3944631E+000  0.2054814E+03  0.7546771E-02  0.1145195E+00
         21   -1    0    0  503  502  0.00000000000E+00  0.00000000000E+00  0.21989866500E+03  0.21989866500E+03  0.00000000000E+00 0. -1.
         21   -1    0    0  501  503 -0.00000000000E+00 -0.00000000000E+00 -0.20340986224E+03  0.20340986224E+03  0.00000000000E+00 0. -1.
          6    1    1    2  501    0  0.71469950339E+02 -0.84768227754E+02 -0.41863087378E+02  0.20970246618E+03  0.17300000000E+03 0. -1.
         -6    1    1    2    0  502 -0.71469950339E+02  0.84768227754E+02  0.58351890145E+02  0.21360606106E+03  0.17300000000E+03 0. -1.
<mgrwt>
<rscale>  2 0.20548140E+03</rscale>
<asrwt>0</asrwt>
<pdfrwt beam="1">  1       21 0.33830564E-01 0.20548140E+03</pdfrwt>
<pdfrwt beam="2">  1       21 0.31293825E-01 0.20548140E+03</pdfrwt>
<totfact> 0.82144725E+04</totfact>
</mgrwt>
</event>
<event>
 4    2  0.3944631E+000  0.1935564E+03  0.7546771E-02  0.1155292E+00
         21   -1    0    0  503  502  0.00000000000E+00  0.00000000000E+00  0.19768141376E+04  0.19768141376E+04  0.00000000000E+00 0.  1.
         21   -1    0    0  501  503 -0.00000000000E+00 -0.00000000000E+00 -0.20380003100E+02  0.20380003100E+02  0.00000000000E+00 0.  1.
          6    1    1    2  501    0 -0.43712798161E+02  0.74995024472E+02  0.71385893881E+03  0.73963413046E+03  0.17300000000E+03 0.  1.
         -6    1    1    2    0  502  0.43712798161E+02 -0.74995024472E+02  0.12425751957E+04  0.12575600102E+04  0.17300000000E+03 0.  1.
<mgrwt>
<rscale>  2 0.19355635E+03</rscale>
<asrwt>0</asrwt>
<pdfrwt beam="1">  1       21 0.30412510E+00 0.19355635E+03</pdfrwt>
<pdfrwt beam="2">  1       21 0.31353867E-02 0.19355635E+03</pdfrwt>
<totfact> 0.18989601E+04</totfact>
</mgrwt>
</event>
<event>
 4    2  0.3944631E+000  0.1745777E+03  0.7546771E-02  0.1173156E+00
         21   -1    0    0  503  502  0.00000000000E+00  0.00000000000E+00  0.14129947702E+03  0.14129947702E+03  0.00000000000E+00 0. -1.
         21   -1    0    0  501  503 -0.00000000000E+00 -0.00000000000E+00 -0.28014422804E+03  0.28014422804E+03  0.00000000000E+00 0. -1.
          6    1    1    2  501    0 -0.74241965770E+01 -0.22209561341E+02 -0.17049476687E+03  0.24402018121E+03  0.17300000000E+03 0.  1.
         -6    1    1    2    0  502  0.74241965770E+01  0.22209561341E+02  0.31650015850E+02  0.17742352384E+03  0.17300000000E+03 0.  1.
<mgrwt>
<rscale>  2 0.17457773E+03</rscale>
<asrwt>0</asrwt>
<pdfrwt beam="1">  1       21 0.21738381E-01 0.17457773E+03</pdfrwt>
<pdfrwt beam="2">  1       21 0.43099112E-01 0.17457773E+03</pdfrwt>
<totfact> 0.10289823E+05</totfact>
</mgrwt>
</event>
<event>
 4    2  0.3944631E+000  0.2472680E+03  0.7546771E-02  0.1115044E+00
         21   -1    0    0  501  502  0.00000000000E+00  0.00000000000E+00  0.12980742826E+03  0.12980742826E+03  0.00000000000E+00 0. -1.
         21   -1    0    0  502  503 -0.00000000000E+00 -0.00000000000E+00 -0.65624427922E+03  0.65624427922E+03  0.00000000000E+00 0. -1.
          6    1    1    2  501    0 -0.11949011872E+03 -0.13013300805E+03 -0.54413382473E+02  0.25318432899E+03  0.17300000000E+03 0. -1.
         -6    1    1    2    0  503  0.11949011872E+03  0.13013300805E+03 -0.47202346848E+03  0.53286737849E+03  0.17300000000E+03 0. -1.
<mgrwt>
<rscale>  2 0.24726805E+03</rscale>
<asrwt>0</asrwt>
<pdfrwt beam="1">  1       21 0.19970374E-01 0.24726805E+03</pdfrwt>
<pdfrwt beam="2">  1       21 0.10096066E+00 0.24726805E+03</pdfrwt>
<totfact> 0.17997137E+04</totfact>
</mgrwt>
</event>
<event>
 4    2  0.3944631E+000  0.2212283E+03  0.7546771E-02  0.1132971E+00
         21   -1    0    0  503  502  0.00000000000E+00  0.00000000000E+00  0.37185237206E+03  0.37185237206E+03  0.00000000000E+00 0. -1.
         21   -1    0    0  501  503 -0.00000000000E+00 -0.00000000000E+00 -0.29583908562E+03  0.29583908562E+03  0.00000000000E+00 0. -1.
          6    1    1    2  501    0  0.11354947510E+03 -0.78227194012E+02 -0.21072683584E+03  0.30552868363E+03  0.17300000000E+03 0. -1.
         -6    1    1    2    0  502 -0.11354947510E+03  0.78227194012E+02  0.28674012229E+03  0.36216277405E+03  0.17300000000E+03 0. -1.
<mgrwt>
<rscale>  2 0.22122834E+03</rscale>
<asrwt>0</asrwt>
<pdfrwt beam="1">  1       21 0.57208057E-01 0.22122834E+03</pdfrwt>
<pdfrwt beam="2">  1       21 0.45513706E-01 0.22122834E+03</pdfrwt>
<totfact> 0.13044783E+04</totfact>
</mgrwt>
</event>
<event>
 4    2  0.3944631E+000  0.1990840E+03  0.7546771E-02  0.1150514E+00
         21   -1    0    0  501  502  0.00000000000E+00  0.00000000000E+00  0.62518425898E+03  0.62518425898E+03  0.00000000000E+00 0. -1.
         21   -1    0    0  502  503 -0.00000000000E+00 -0.00000000000E+00 -0.65769781591E+02  0.65769781591E+02  0.00000000000E+00 0. -1.
          6    1    1    2  501    0 -0.90105038605E+02  0.39831127999E+02  0.21407927001E+03  0.29234289898E+03  0.17300000000E+03 0. -1.
         -6    1    1    2    0  503  0.90105038605E+02 -0.39831127999E+02  0.34533520738E+03  0.39861114158E+03  0.17300000000E+03 0. -1.
<mgrwt>
<rscale>  2 0.19908399E+03</rscale>
<asrwt>0</asrwt>
<pdfrwt beam="1">  1       21 0.96182190E-01 0.19908399E+03</pdfrwt>
<pdfrwt beam="2">  1       21 0.10118428E-01 0.19908399E+03</pdfrwt>
<totfact> 0.71301492E+04</totfact>
</mgrwt>
</event>
<event>
 4    2  0.3944631E+000  0.1903727E+03  0.7546771E-02  0.1158126E+00
         21   -1    0    0  503  502  0.00000000000E+00  0.00000000000E+00  0.10989882364E+03  0.10989882364E+03  0.00000000000E+00 0.  1.
         21   -1    0    0  501  503 -0.00000000000E+00 -0.00000000000E+00 -0.69777350216E+03  0.69777350216E+03  0.00000000000E+00 0.  1.
          6    1    1    2  501    0 -0.77193377333E+02 -0.18813676631E+02 -0.58721001422E+03  0.61729844705E+03  0.17300000000E+03 0.  1.
         -6    1    1    2    0  502  0.77193377333E+02  0.18813676631E+02 -0.66466430370E+00  0.19037387875E+03  0.17300000000E+03 0.  1.
<mgrwt>
<rscale>  2 0.19037272E+03</rscale>
<asrwt>0</asrwt>
<pdfrwt beam="1">  1       21 0.16907511E-01 0.19037272E+03</pdfrwt>
<pdfrwt beam="2">  1       21 0.10734977E+00 0.19037272E+03</pdfrwt>
<totfact> 0.21859860E+04</totfact>
</mgrwt>
</event>
<event>
 4    2  0.3944631E+000  0.2043427E+03  0.7546771E-02  0.1146126E+00
         21   -1    0    0  501  502  0.00000000000E+00  0.00000000000E+00  0.49034633425E+03  0.49034633425E+03  0.00000000000E+00 0. -1.
         21   -1    0    0  502  503 -0.00000000000E+00 -0.00000000000E+00 -0.88813897464E+02  0.88813897464E+02  0.00000000000E+00 0. -1.
          6    1    1    2  501    0  0.95294211995E+02  0.52401843776E+02  0.25953451636E+03  0.33032424261E+03  0.17300000000E+03 0. -1.
         -6    1    1    2    0  503 -0.95294211995E+02 -0.52401843776E+02  0.14199792043E+03  0.24883598911E+03  0.17300000000E+03 0. -1.
<mgrwt>
<rscale>  2 0.20434270E+03</rscale>
<asrwt>0</asrwt>
<pdfrwt beam="1">  1       21 0.75437896E-01 0.20434270E+03</pdfrwt>
<pdfrwt beam="2">  1       21 0.13663677E-01 0.20434270E+03</pdfrwt>
<totfact> 0.72534435E+04</totfact>
</mgrwt>
</event>
<event>
 4    2  0.3944631E+000  0.1833507E+03  0.7546771E-02  0.1164599E+00
         21   -1    0    0  501  502  0.00000000000E+00  0.00000000000E+00  0.21189225094E+03  0.21189225094E+03  0.00000000000E+00 0. -1.
         21   -1    0    0  502  503 -0.00000000000E+00 -0.00000000000E+00 -0.16943743913E+03  0.16943743913E+03  0.00000000000E+00 0. -1.
          6    1    1    2  501    0 -0.59399668221E+02  0.12654949663E+02  0.69328244044E+02  0.19602008509E+03  0.17300000000E+03 0. -1.
         -6    1    1    2    0  503  0.59399668221E+02 -0.12654949663E+02 -0.26873432234E+02  0.18530960497E+03  0.17300000000E+03 0. -1.
<mgrwt>
<rscale>  2 0.18335067E+03</rscale>
<asrwt>0</asrwt>
<pdfrwt beam="1">  1       21 0.32598808E-01 0.18335067E+03</pdfrwt>
<pdfrwt beam="2">  1       21 0.26067298E-01 0.18335067E+03</pdfrwt>
<totfact> 0.12702986E+05</totfact>
</mgrwt>
</event>
<event>
 4    2  0.3944631E+000  0.1917094E+03  0.7546771E-02  0.1156929E+00
         21   -1    0    0  503  502  0.00000000000E+00  0.00000000000E+00  0.20157566252E+03  0.20157566252E+03  0.00000000000E+00 0.  1.
         21   -1    0    0  501  503 -0.00000000000E+00 -0.00000000000E+00 -0.87389860016E+03  0.87389860016E+03  0.00000000000E+00 0.  1.
          6    1    1    2  501    0 -0.80643861111E+02  0.17890082179E+02 -0.81452535841E+03  0.83678195898E+03  0.17300000000E+03 0.  1.
         -6    1    1    2    0  502  0.80643861111E+02 -0.17890082179E+02  0.14220242077E+03  0.23869230370E+03  0.17300000000E+03 0.  1.
<mgrwt>
<rscale>  2 0.19170938E+03</rscale>
<asrwt>0</asrwt>
<pdfrwt beam="1">  1       21 0.31011640E-01 0.19170938E+03</pdfrwt>
<pdfrwt beam="2">  1       21 0.13444594E+00 0.19170938E+03</pdfrwt>
<totfact> 0.39682488E+03</totfact>
</mgrwt>
</event>
<event>
 4    2  0.3944631E+000  0.2548691E+03  0.7546771E-02  0.1110266E+00
         21   -1    0    0  501  502  0.00000000000E+00  0.00000000000E+00  0.20509589219E+03  0.20509589219E+03  0.00000000000E+00 0.  1.
         21   -1    0    0  502  503 -0.00000000000E+00 -0.00000000000E+00 -0.33044548878E+03  0.33044548878E+03  0.00000000000E+00 0. -1.
          6    1    1    2  501    0 -0.18377405803E+03  0.35445431413E+02 -0.81049227959E+01  0.25499798585E+03  0.17300000000E+03 0.  1.
         -6    1    1    2    0  503  0.18377405803E+03 -0.35445431413E+02 -0.11724467379E+03  0.28054339512E+03  0.17300000000E+03 0.  1.
<mgrwt>
<rscale>  2 0.25486915E+03</rscale>
<asrwt>0</asrwt>
<pdfrwt beam="1">  1       21 0.31553214E-01 0.25486915E+03</pdfrwt>
<pdfrwt beam="2">  1       21 0.50837768E-01 0.25486915E+03</pdfrwt>
<totfact> 0.34488954E+04</totfact>
</mgrwt>
</event>
<event>
 4    2  0.3944631E+000  0.1881514E+03  0.7546771E-02  0.1160139E+00
         21   -1    0    0  501  502  0.00000000000E+00  0.00000000000E+00  0.38990508548E+03  0.38990508548E+03  0.00000000000E+00 0.  1.
         21   -1    0    0  502  503 -0.00000000000E+00 -0.00000000000E+00 -0.20046380396E+03  0.20046380396E+03  0.00000000000E+00 0.  1.
          6    1    1    2  501    0  0.63795804700E+02 -0.37443797499E+02  0.31305371198E+03  0.36524453350E+03  0.17300000000E+03 0.  1.
         -6    1    1    2    0  503 -0.63795804700E+02  0.37443797499E+02 -0.12361243047E+03  0.22512435594E+03  0.17300000000E+03 0.  1.
<mgrwt>
<rscale>  2 0.18815138E+03</rscale>
<asrwt>0</asrwt>
<pdfrwt beam="1">  1       21 0.59985398E-01 0.18815138E+03</pdfrwt>
<pdfrwt beam="2">  1       21 0.30840585E-01 0.18815138E+03</pdfrwt>
<totfact> 0.26241828E+04</totfact>
</mgrwt>
</event>
<event>
 4    2  0.3944631E+000  0.1892844E+03  0.7546771E-02  0.1159108E+00
         21   -1    0    0  503  502  0.00000000000E+00  0.00000000000E+00  0.87768170674E+02  0.87768170674E+02  0.00000000000E+00 0.  1.
         21   -1    0    0  501  503 -0.00000000000E+00 -0.00000000000E+00 -0.80237347290E+03  0.80237347290E+03  0.00000000000E+00 0. -1.
          6    1    1    2  501    0  0.55826892824E+02 -0.52753594230E+02 -0.66924503983E+03  0.69549802803E+03  0.17300000000E+03 0. -1.
         -6    1    1    2    0  502 -0.55826892824E+02  0.52753594230E+02 -0.45360262403E+02  0.19464361554E+03  0.17300000000E+03 0.  1.
<mgrwt>
<rscale>  2 0.18928440E+03</rscale>
<asrwt>0</asrwt>
<pdfrwt beam="1">  1       21 0.13502795E-01 0.18928440E+03</pdfrwt>
<pdfrwt beam="2">  1       21 0.12344207E+00 0.18928440E+03</pdfrwt>
<totfact> 0.23413686E+04</totfact>
</mgrwt>
</event>
<event>
 4    2  0.3944631E+000  0.1814176E+03  0.7546771E-02  0.1166438E+00
         21   -1    0    0  503  502  0.00000000000E+00  0.00000000000E+00  0.13309112599E+03  0.13309112599E+03  0.00000000000E+00 0. -1.
         21   -1    0    0  501  503 -0.00000000000E+00 -0.00000000000E+00 -0.24733943559E+03  0.24733943559E+03  0.00000000000E+00 0. -1.
          6    1    1    2  501    0 -0.31948814584E+02  0.44301649302E+02 -0.54488306048E+02  0.18942370068E+03  0.17300000000E+03 0. -1.
         -6    1    1    2    0  502  0.31948814584E+02 -0.44301649302E+02 -0.59760003555E+02  0.19100686090E+03  0.17300000000E+03 0. -1.
<mgrwt>
<rscale>  2 0.18141765E+03</rscale>
<asrwt>0</asrwt>
<pdfrwt beam="1">  1       21 0.20475558E-01 0.18141765E+03</pdfrwt>
<pdfrwt beam="2">  1       21 0.38052221E-01 0.18141765E+03</pdfrwt>
<totfact> 0.14766429E+05</totfact>
</mgrwt>
</event>
<event>
 4    2  0.3944631E+000  0.1766470E+03  0.7546771E-02  0.1171088E+00
         21   -1    0    0  503  502  0.00000000000E+00  0.00000000000E+00  0.48263534802E+03  0.48263534802E+03  0.00000000000E+00 0.  1.
         21   -1    0    0  501  503 -0.00000000000E+00 -0.00000000000E+00 -0.94458499532E+02  0.94458499532E+02  0.00000000000E+00 0.  1.
          6    1    1    2  501    0  0.21320080917E+02  0.28646192501E+02  0.32004779882E+02  0.17952285685E+03  0.17300000000E+03 0.  1.
         -6    1    1    2    0  502 -0.21320080917E+02 -0.28646192501E+02  0.35617206860E+03  0.39757099070E+03  0.17300000000E+03 0.  1.
<mgrwt>
<rscale>  2 0.17664696E+03</rscale>
<asrwt>0</asrwt>
<pdfrwt beam="1">  1       21 0.74251590E-01 0.17664696E+03</pdfrwt>
<pdfrwt beam="2">  1       21 0.14532077E-01 0.17664696E+03</pdfrwt>
<totfact> 0.68046038E+04</totfact>
</mgrwt>
</event>
<event>
 4    2  0.3944631E+000  0.1910224E+03  0.7546771E-02  0.1157542E+00
         21   -1    0    0  503  502  0.00000000000E+00  0.00000000000E+00  0.42522332447E+03  0.42522332447E+03  0.00000000000E+00 0. -1.
         21   -1    0    0  501  503 -0.00000000000E+00 -0.00000000000E+00 -0.87008888096E+02  0.87008888096E+02  0.00000000000E+00 0. -1.
          6    1    1    2  501    0  0.39932863367E+02 -0.70469363655E+02  0.13907734854E+03  0.23628811580E+03  0.17300000000E+03 0.  1.
         -6    1    1    2    0  502 -0.39932863367E+02  0.70469363655E+02  0.19913708784E+03  0.27594409677E+03  0.17300000000E+03 0.  1.
<mgrwt>
<rscale>  2 0.19102242E+03</rscale>
<asrwt>0</asrwt>
<pdfrwt beam="1">  1       21 0.65418972E-01 0.19102242E+03</pdfrwt>
<pdfrwt beam="2">  1       21 0.13385983E-01 0.19102242E+03</pdfrwt>
<totfact> 0.10370178E+05</totfact>
</mgrwt>
</event>
<event>
 4    2  0.3944631E+000  0.1748156E+03  0.7546771E-02  0.1172917E+00
         21   -1    0    0  501  502  0.00000000000E+00  0.00000000000E+00  0.19232165989E+03  0.19232165989E+03  0.00000000000E+00 0.  1.
         21   -1    0    0  502  503 -0.00000000000E+00 -0.00000000000E+00 -0.64926140702E+03  0.64926140702E+03  0.00000000000E+00 0.  1.
          6    1    1    2  501    0 -0.24477569102E+02 -0.56876044114E+01  0.13722088468E+03  0.22223877120E+03  0.17300000000E+03 0.  1.
         -6    1    1    2    0  503  0.24477569102E+02  0.56876044114E+01 -0.59416063181E+03  0.61934429571E+03  0.17300000000E+03 0.  1.
<mgrwt>
<rscale>  2 0.17481562E+03</rscale>
<asrwt>0</asrwt>
<pdfrwt beam="1">  1       21 0.29587948E-01 0.17481562E+03</pdfrwt>
<pdfrwt beam="2">  1       21 0.99886370E-01 0.17481562E+03</pdfrwt>
<totfact> 0.91300540E+03</totfact>
</mgrwt>
</event>
<event>
 4    2  0.3944631E+000  0.2081674E+03  0.7546771E-02  0.1143025E+00
         21   -1    0    0  501  502  0.00000000000E+00  0.00000000000E+00  0.19209454249E+03  0.19209454249E+03  0.00000000000E+00 0.  1.
         21   -1    0    0  502  503 -0.00000000000E+00 -0.00000000000E+00 -0.28329257335E+03  0.28329257335E+03  0.00000000000E+00 0.  1.
          6    1    1    2  501    0 -0.62824263387E+02 -0.97251106739E+02  0.61680267302E+02  0.21711315300E+03  0.17300000000E+03 0. -1.
         -6    1    1    2    0  503  0.62824263387E+02  0.97251106739E+02 -0.15287829816E+03  0.25827396284E+03  0.17300000000E+03 0. -1.
<mgrwt>
<rscale>  2 0.20816740E+03</rscale>
<asrwt>0</asrwt>
<pdfrwt beam="1">  1       21 0.29553007E-01 0.20816740E+03</pdfrwt>
<pdfrwt beam="2">  1       21 0.43583473E-01 0.20816740E+03</pdfrwt>
<totfact> 0.55109931E+04</totfact>
</mgrwt>
</event>
<event>
 4    2  0.3944631E+000  0.2530597E+03  0.7546771E-02  0.1111386E+00
         21   -1    0    0  503  502  0.00000000000E+00  0.00000000000E+00  0.91492244272E+03  0.91492244272E+03  0.00000000000E+00 0. -1.
         21   -1    0    0  501  503 -0.00000000000E+00 -0.00000000000E+00 -0.76336712797E+02  0.76336712797E+02  0.00000000000E+00 0. -1.
          6    1    1    2  501    0  0.14003587297E+03  0.12041657121E+03  0.56215716348E+03  0.61648996163E+03  0.17300000000E+03 0. -1.
         -6    1    1    2    0  502 -0.14003587297E+03 -0.12041657121E+03  0.27642856645E+03  0.37476919389E+03  0.17300000000E+03 0. -1.
<mgrwt>
<rscale>  2 0.25305967E+03</rscale>
<asrwt>0</asrwt>
<pdfrwt beam="1">  1       21 0.14075729E+00 0.25305967E+03</pdfrwt>
<pdfrwt beam="2">  1       21 0.11744110E-01 0.25305967E+03</pdfrwt>
<totfact> 0.20764324E+04</totfact>
</mgrwt>
</event>
<event>
 4    2  0.3944631E+000  0.1925566E+03  0.7546771E-02  0.1156175E+00
         21   -1    0    0  503  502  0.00000000000E+00  0.00000000000E+00  0.87294958125E+03  0.87294958125E+03  0.00000000000E+00 0.  1.
         21   -1    0    0  501  503 -0.00000000000E+00 -0.00000000000E+00 -0.55821024219E+02  0.55821024219E+02  0.00000000000E+00 0. -1.
          6    1    1    2  501    0  0.66350954161E+02  0.52407909418E+02  0.18149166779E+03  0.26460775417E+03  0.17300000000E+03 0. -1.
         -6    1    1    2    0  502 -0.66350954161E+02 -0.52407909418E+02  0.63563688924E+03  0.66416285130E+03  0.17300000000E+03 0. -1.
<mgrwt>
<rscale>  2 0.19255658E+03</rscale>
<asrwt>0</asrwt>
<pdfrwt beam="1">  1       21 0.13429993E+00 0.19255658E+03</pdfrwt>
<pdfrwt beam="2">  1       21 0.85878505E-02 0.19255658E+03</pdfrwt>
<totfact> 0.42214709E+04</totfact>
</mgrwt>
</event>
<event>
 4    2  0.3944631E+000  0.3003695E+03  0.7546771E-02  0.1085056E+00
         21   -1    0    0  503  502  0.00000000000E+00  0.00000000000E+00  0.67792354220E+03  0.67792354220E+03  0.00000000000E+00 0. -1.
         21   -1    0    0  501  503 -0.00000000000E+00 -0.00000000000E+00 -0.13321890531E+03  0.13321890531E+03  0.00000000000E+00 0. -1.
          6    1    1    2  501    0 -0.11402032439E+03  0.21746770737E+03  0.28518341473E+03  0.41418766056E+03  0.17300000000E+03 0. -1.
         -6    1    1    2    0  502  0.11402032439E+03 -0.21746770737E+03  0.25952122217E+03  0.39695478695E+03  0.17300000000E+03 0. -1.
<mgrwt>
<rscale>  2 0.30036950E+03</rscale>
<asrwt>0</asrwt>
<pdfrwt beam="1">  1       21 0.10429593E+00 0.30036950E+03</pdfrwt>
<pdfrwt beam="2">  1       21 0.20495217E-01 0.30036950E+03</pdfrwt>
<totfact> 0.15453185E+04</totfact>
</mgrwt>
</event>
<event>
 4    2  0.3944631E+000  0.1999292E+03  0.7546771E-02  0.1149799E+00
         21   -1    0    0  501  502  0.00000000000E+00  0.00000000000E+00  0.78950868393E+02  0.78950868393E+02  0.00000000000E+00 0. -1.
         21   -1    0    0  502  503 -0.00000000000E+00 -0.00000000000E+00 -0.79637312436E+03  0.79637312436E+03  0.00000000000E+00 0. -1.
          6    1    1    2  501    0 -0.76212367260E+02  0.65072077150E+02 -0.94564574815E+02  0.22116545607E+03  0.17300000000E+03 0. -1.
         -6    1    1    2    0  503  0.76212367260E+02 -0.65072077150E+02 -0.62285768115E+03  0.65415853668E+03  0.17300000000E+03 0. -1.
<mgrwt>
<rscale>  2 0.19992924E+03</rscale>
<asrwt>0</asrwt>
<pdfrwt beam="1">  1       21 0.12146288E-01 0.19992924E+03</pdfrwt>
<pdfrwt beam="2">  1       21 0.12251894E+00 0.19992924E+03</pdfrwt>
<totfact> 0.28673120E+04</totfact>
</mgrwt>
</event>
<event>
 4    2  0.3944631E+000  0.2922710E+03  0.7546771E-02  0.1089169E+00
         21   -1    0    0  501  502  0.00000000000E+00  0.00000000000E+00  0.33404305066E+03  0.33404305066E+03  0.00000000000E+00 0.  1.
         21   -1    0    0  502  503 -0.00000000000E+00 -0.00000000000E+00 -0.33218064340E+03  0.33218064340E+03  0.00000000000E+00 0. -1.
          6    1    1    2  501    0  0.15864063990E+03 -0.17414508934E+03  0.16074506507E+03  0.33355860162E+03  0.17300000000E+03 0.  1.
         -6    1    1    2    0  503 -0.15864063990E+03  0.17414508934E+03 -0.15888265782E+03  0.33266509244E+03  0.17300000000E+03 0. -1.
<mgrwt>
<rscale>  2 0.29227105E+03</rscale>
<asrwt>0</asrwt>
<pdfrwt beam="1">  1       21 0.51391239E-01 0.29227105E+03</pdfrwt>
<pdfrwt beam="2">  1       21 0.51104714E-01 0.29227105E+03</pdfrwt>
<totfact> 0.12402031E+04</totfact>
</mgrwt>
</event>
<event>
 4    2  0.3944631E+000  0.5650530E+03  0.7546771E-02  0.9980686E-01
         21   -1    0    0  501  502  0.00000000000E+00  0.00000000000E+00  0.31976973073E+03  0.31976973073E+03  0.00000000000E+00 0. -1.
         21   -1    0    0  502  503 -0.00000000000E+00 -0.00000000000E+00 -0.10046473193E+04  0.10046473193E+04  0.00000000000E+00 0.  1.
          6    1    1    2  501    0 -0.49369111670E+03  0.21359991288E+03 -0.39430784771E+03  0.68903085581E+03  0.17300000000E+03 0.  1.
         -6    1    1    2    0  503  0.49369111670E+03 -0.21359991288E+03 -0.29056974083E+03  0.63538619420E+03  0.17300000000E+03 0. -1.
<mgrwt>
<rscale>  2 0.56505295E+03</rscale>
<asrwt>0</asrwt>
<pdfrwt beam="1">  1       21 0.49195344E-01 0.56505295E+03</pdfrwt>
<pdfrwt beam="2">  1       21 0.15456112E+00 0.56505295E+03</pdfrwt>
<totfact> 0.87714584E+02</totfact>
</mgrwt>
</event>
<event>
 4    2  0.3944631E+000  0.1919800E+03  0.7546771E-02  0.1156688E+00
         21   -1    0    0  501  502  0.00000000000E+00  0.00000000000E+00  0.15437915382E+03  0.15437915382E+03  0.00000000000E+00 0.  1.
         21   -1    0    0  502  503 -0.00000000000E+00 -0.00000000000E+00 -0.44329020886E+03  0.44329020886E+03  0.00000000000E+00 0.  1.
          6    1    1    2  501    0  0.80242429780E+02  0.22101472299E+02  0.58540700926E+02  0.20070709076E+03  0.17300000000E+03 0.  1.
         -6    1    1    2    0  503 -0.80242429780E+02 -0.22101472299E+02 -0.34745175596E+03  0.39696227193E+03  0.17300000000E+03 0.  1.
<mgrwt>
<rscale>  2 0.19198001E+03</rscale>
<asrwt>0</asrwt>
<pdfrwt beam="1">  1       21 0.23750639E-01 0.19198001E+03</pdfrwt>
<pdfrwt beam="2">  1       21 0.68198494E-01 0.19198001E+03</pdfrwt>
<totfact> 0.32783440E+04</totfact>
</mgrwt>
</event>
<event>
 4    2  0.3944631E+000  0.3620610E+03  0.7546771E-02  0.1057771E+00
         21   -1    0    0  501  502  0.00000000000E+00  0.00000000000E+00  0.27502254737E+03  0.27502254737E+03  0.00000000000E+00 0. -1.
         21   -1    0    0  502  503 -0.00000000000E+00 -0.00000000000E+00 -0.77325305740E+03  0.77325305740E+03  0.00000000000E+00 0. -1.
          6    1    1    2  501    0  0.17417969023E+03 -0.26612140500E+03  0.75505298607E+02  0.36985026268E+03  0.17300000000E+03 0. -1.
         -6    1    1    2    0  503 -0.17417969023E+03  0.26612140500E+03 -0.57373580864E+03  0.67842534210E+03  0.17300000000E+03 0. -1.
<mgrwt>
<rscale>  2 0.36206100E+03</rscale>
<asrwt>0</asrwt>
<pdfrwt beam="1">  1       21 0.42311161E-01 0.36206100E+03</pdfrwt>
<pdfrwt beam="2">  1       21 0.11896201E+00 0.36206100E+03</pdfrwt>
<totfact> 0.26009766E+03</totfact>
</mgrwt>
</event>
<event>
 4    2  0.3944631E+000  0.2352150E+03  0.7546771E-02  0.1123022E+00
         21   -1    0    0  503  502  0.00000000000E+00  0.00000000000E+00  0.17366267355E+03  0.17366267355E+03  0.00000000000E+00 0.  1.
         21   -1    0    0  501  503 -0.00000000000E+00 -0.00000000000E+00 -0.32422448836E+03  0.32422448836E+03  0.00000000000E+00 0. -1.
          6    1    1    2  501    0  0.46290417518E+02 -0.15249365398E+03 -0.10811639414E+03  0.25887308076E+03  0.17300000000E+03 0. -1.
         -6    1    1    2    0  502 -0.46290417518E+02  0.15249365398E+03 -0.42445420668E+02  0.23901408116E+03  0.17300000000E+03 0.  1.
<mgrwt>
<rscale>  2 0.23521504E+03</rscale>
<asrwt>0</asrwt>
<pdfrwt beam="1">  1       21 0.26717335E-01 0.23521504E+03</pdfrwt>
<pdfrwt beam="2">  1       21 0.49880690E-01 0.23521504E+03</pdfrwt>
<totfact> 0.50083148E+04</totfact>
</mgrwt>
</event>
<event>
 4    2  0.3944631E+000  0.1974021E+03  0.7546771E-02  0.1151950E+00
         21   -1    0    0  503  502  0.00000000000E+00  0.00000000000E+00  0.14491943755E+03  0.14491943755E+03  0.00000000000E+00 0.  1.
         21   -1    0    0  501  503 -0.00000000000E+00 -0.00000000000E+00 -0.46069210561E+03  0.46069210561E+03  0.00000000000E+00 0.  1.
          6    1    1    2  501    0  0.38356205024E+01  0.94994061462E+02 -0.35326804867E+03  0.40467999445E+03  0.17300000000E+03 0.  1.
         -6    1    1    2    0  502 -0.38356205024E+01 -0.94994061462E+02  0.37495380608E+02  0.20093154870E+03  0.17300000000E+03 0.  1.
<mgrwt>
<rscale>  2 0.19740209E+03</rscale>
<asrwt>0</asrwt>
<pdfrwt beam="1">  1       21 0.22295298E-01 0.19740209E+03</pdfrwt>
<pdfrwt beam="2">  1       21 0.70875708E-01 0.19740209E+03</pdfrwt>
<totfact> 0.33847659E+04</totfact>
</mgrwt>
</event>
<event>
 4    2  0.3944631E+000  0.1832337E+03  0.7546771E-02  0.1164710E+00
         21   -1    0    0  503  502  0.00000000000E+00  0.00000000000E+00  0.48993903058E+02  0.48993903058E+02  0.00000000000E+00 0. -1.
         21   -1    0    0  501  503 -0.00000000000E+00 -0.00000000000E+00 -0.82599648404E+03  0.82599648404E+03  0.00000000000E+00 0. -1.
          6    1    1    2  501    0 -0.56431929096E+02  0.21471459966E+02 -0.56907531534E+03  0.59784722191E+03  0.17300000000E+03 0.  1.
         -6    1    1    2    0  502  0.56431929096E+02 -0.21471459966E+02 -0.20792726565E+03  0.27714316520E+03  0.17300000000E+03 0.  1.
<mgrwt>
<rscale>  2 0.18323369E+03</rscale>
<asrwt>0</asrwt>
<pdfrwt beam="1">  1       21 0.75375240E-02 0.18323369E+03</pdfrwt>
<pdfrwt beam="2">  1       21 0.12707637E+00 0.18323369E+03</pdfrwt>
<totfact> 0.61204060E+04</totfact>
</mgrwt>
</event>
<event>
 4    2  0.3944631E+000  0.2078891E+03  0.7546771E-02  0.1143249E+00
         21   -1    0    0  503  502  0.00000000000E+00  0.00000000000E+00  0.16445778155E+02  0.16445778155E+02  0.00000000000E+00 0. -1.
         21   -1    0    0  501  503 -0.00000000000E+00 -0.00000000000E+00 -0.26350636106E+04  0.26350636106E+04  0.00000000000E+00 0. -1.
          6    1    1    2  501    0 -0.61979688667E+02  0.97197785861E+02 -0.13784245853E+04  0.13940129944E+04  0.17300000000E+03 0. -1.
         -6    1    1    2    0  502  0.61979688667E+02 -0.97197785861E+02 -0.12401932471E+04  0.12574963943E+04  0.17300000000E+03 0. -1.
<mgrwt>
<rscale>  2 0.20788913E+03</rscale>
<asrwt>0</asrwt>
<pdfrwt beam="1">  1       21 0.25301210E-02 0.20788913E+03</pdfrwt>
<pdfrwt beam="2">  1       21 0.40539420E+00 0.20788913E+03</pdfrwt>
<totfact> 0.66249175E+03</totfact>
</mgrwt>
</event>
<event>
 4    2  0.3944631E+000  0.2523844E+03  0.7546771E-02  0.1111807E+00
         21   -1    0    0  501  502  0.00000000000E+00  0.00000000000E+00  0.81674292903E+02  0.81674292903E+02  0.00000000000E+00 0.  1.
         21   -1    0    0  502  503 -0.00000000000E+00 -0.00000000000E+00 -0.78819901915E+03  0.78819901915E+03  0.00000000000E+00 0. -1.
          6    1    1    2  501    0  0.75129784816E+02 -0.16770328715E+03 -0.39788864199E+03  0.47118281857E+03  0.17300000000E+03 0. -1.
         -6    1    1    2    0  503 -0.75129784816E+02  0.16770328715E+03 -0.30863608426E+03  0.39869049348E+03  0.17300000000E+03 0.  1.
<mgrwt>
<rscale>  2 0.25238438E+03</rscale>
<asrwt>0</asrwt>
<pdfrwt beam="1">  1       21 0.12565277E-01 0.25238438E+03</pdfrwt>
<pdfrwt beam="2">  1       21 0.12126138E+00 0.25238438E+03</pdfrwt>
<totfact> 0.26911837E+04</totfact>
</mgrwt>
</event>
<event>
 4    2  0.3944631E+000  0.1734934E+03  0.7546771E-02  0.1174253E+00
         21   -1    0    0  501  502  0.00000000000E+00  0.00000000000E+00  0.31001883022E+03  0.31001883022E+03  0.00000000000E+00 0. -1.
         21   -1    0    0  502  503 -0.00000000000E+00 -0.00000000000E+00 -0.18068886792E+03  0.18068886792E+03  0.00000000000E+00 0. -1.
          6    1    1    2  501    0  0.70753487106E+01 -0.10994841696E+02  0.23155314688E+03  0.28933856801E+03  0.17300000000E+03 0. -1.
         -6    1    1    2    0  503 -0.70753487106E+01  0.10994841696E+02 -0.10222318459E+03  0.20136913013E+03  0.17300000000E+03 0. -1.
<mgrwt>
<rscale>  2 0.17349336E+03</rscale>
<asrwt>0</asrwt>
<pdfrwt beam="1">  1       21 0.47695205E-01 0.17349336E+03</pdfrwt>
<pdfrwt beam="2">  1       21 0.27798287E-01 0.17349336E+03</pdfrwt>
<totfact> 0.52399080E+04</totfact>
</mgrwt>
</event>
<event>
 4    2  0.3944631E+000  0.2102071E+03  0.7546771E-02  0.1141402E+00
         21   -1    0    0  503  502  0.00000000000E+00  0.00000000000E+00  0.81866121556E+03  0.81866121556E+03  0.00000000000E+00 0. -1.
         21   -1    0    0  501  503 -0.00000000000E+00 -0.00000000000E+00 -0.98192438458E+02  0.98192438458E+02  0.00000000000E+00 0. -1.
          6    1    1    2  501    0  0.90479956508E+02  0.77919103228E+02  0.52604044493E+02  0.21668916603E+03  0.17300000000E+03 0. -1.
         -6    1    1    2    0  502 -0.90479956508E+02 -0.77919103228E+02  0.66786473261E+03  0.70016448799E+03  0.17300000000E+03 0. -1.
<mgrwt>
<rscale>  2 0.21020706E+03</rscale>
<asrwt>0</asrwt>
<pdfrwt beam="1">  1       21 0.12594788E+00 0.21020706E+03</pdfrwt>
<pdfrwt beam="2">  1       21 0.15106529E-01 0.21020706E+03</pdfrwt>
<totfact> 0.17921468E+04</totfact>
</mgrwt>
</event>
<event>
 4    2  0.3944631E+000  0.2059444E+03  0.7546771E-02  0.1144818E+00
         21   -1    0    0  501  502  0.00000000000E+00  0.00000000000E+00  0.10688098079E+03  0.10688098079E+03  0.00000000000E+00 0. -1.
         21   -1    0    0  502  503 -0.00000000000E+00 -0.00000000000E+00 -0.41747112493E+03  0.41747112493E+03  0.00000000000E+00 0.  1.
          6    1    1    2  501    0  0.11034482344E+03  0.17553410582E+02 -0.96991728973E+02  0.22764116010E+03  0.17300000000E+03 0. -1.
         -6    1    1    2    0  503 -0.11034482344E+03 -0.17553410582E+02 -0.21359841517E+03  0.29671094561E+03  0.17300000000E+03 0.  1.
<mgrwt>
<rscale>  2 0.20594442E+03</rscale>
<asrwt>0</asrwt>
<pdfrwt beam="1">  1       21 0.16443228E-01 0.20594442E+03</pdfrwt>
<pdfrwt beam="2">  1       21 0.64226328E-01 0.20594442E+03</pdfrwt>
<totfact> 0.73752030E+04</totfact>
</mgrwt>
</event>
<event>
 4    2  0.3944631E+000  0.2422280E+03  0.7546771E-02  0.1118317E+00
         21   -1    0    0  501  502  0.00000000000E+00  0.00000000000E+00  0.49921044942E+03  0.49921044942E+03  0.00000000000E+00 0. -1.
         21   -1    0    0  502  503 -0.00000000000E+00 -0.00000000000E+00 -0.12426345420E+03  0.12426345420E+03  0.00000000000E+00 0. -1.
          6    1    1    2  501    0 -0.70802961737E+02 -0.15405303397E+03  0.11493077613E+03  0.26811094712E+03  0.17300000000E+03 0. -1.
         -6    1    1    2    0  503  0.70802961737E+02  0.15405303397E+03  0.26001621909E+03  0.35536295650E+03  0.17300000000E+03 0. -1.
<mgrwt>
<rscale>  2 0.24222798E+03</rscale>
<asrwt>0</asrwt>
<pdfrwt beam="1">  1       21 0.76801607E-01 0.24222798E+03</pdfrwt>
<pdfrwt beam="2">  1       21 0.19117455E-01 0.24222798E+03</pdfrwt>
<totfact> 0.36940323E+04</totfact>
</mgrwt>
</event>
<event>
 4    2  0.3944631E+000  0.1914920E+03  0.7546771E-02  0.1157122E+00
         21   -1    0    0  501  502  0.00000000000E+00  0.00000000000E+00  0.32678586407E+02  0.32678586407E+02  0.00000000000E+00 0. -1.
         21   -1    0    0  502  503 -0.00000000000E+00 -0.00000000000E+00 -0.11841882790E+04  0.11841882790E+04  0.00000000000E+00 0. -1.
          6    1    1    2  501    0 -0.21671413811E+02  0.79186757303E+02 -0.43645567453E+03  0.47661593400E+03  0.17300000000E+03 0. -1.
         -6    1    1    2    0  503  0.21671413811E+02 -0.79186757303E+02 -0.71505401808E+03  0.74025093143E+03  0.17300000000E+03 0. -1.
<mgrwt>
<rscale>  2 0.19149202E+03</rscale>
<asrwt>0</asrwt>
<pdfrwt beam="1">  1       21 0.50274756E-02 0.19149202E+03</pdfrwt>
<pdfrwt beam="2">  1       21 0.18218279E+00 0.19149202E+03</pdfrwt>
<totfact> 0.46902862E+04</totfact>
</mgrwt>
</event>
<event>
 4    2  0.3944631E+000  0.2666150E+03  0.7546771E-02  0.1103233E+00
         21   -1    0    0  503  502  0.00000000000E+00  0.00000000000E+00  0.12255783513E+03  0.12255783513E+03  0.00000000000E+00 0. -1.
         21   -1    0    0  501  503 -0.00000000000E+00 -0.00000000000E+00 -0.89249155226E+03  0.89249155226E+03  0.00000000000E+00 0.  1.
          6    1    1    2  501    0  0.13011000599E+03  0.15564692459E+03 -0.68527981281E+03  0.73531761888E+03  0.17300000000E+03 0.  1.
         -6    1    1    2    0  502 -0.13011000599E+03 -0.15564692459E+03 -0.84653904323E+02  0.27973176851E+03  0.17300000000E+03 0. -1.
<mgrwt>
<rscale>  2 0.26661504E+03</rscale>
<asrwt>0</asrwt>
<pdfrwt beam="1">  1       21 0.18855051E-01 0.26661504E+03</pdfrwt>
<pdfrwt beam="2">  1       21 0.13730640E+00 0.26661504E+03</pdfrwt>
<totfact> 0.92344577E+03</totfact>
</mgrwt>
</event>
<event>
 4    2  0.3944631E+000  0.1959678E+03  0.7546771E-02  0.1153186E+00
         21   -1    0    0  501  502  0.00000000000E+00  0.00000000000E+00  0.66052650235E+03  0.66052650235E+03  0.00000000000E+00 0.  1.
         21   -1    0    0  502  503 -0.00000000000E+00 -0.00000000000E+00 -0.10423534270E+03  0.10423534270E+03  0.00000000000E+00 0.  1.
          6    1    1    2  501    0  0.92056042108E+02 -0.22595236681E+00  0.53242704715E+03  0.56734639021E+03  0.17300000000E+03 0.  1.
         -6    1    1    2    0  503 -0.92056042108E+02  0.22595236681E+00  0.23864112498E+02  0.19741545484E+03  0.17300000000E+03 0.  1.
<mgrwt>
<rscale>  2 0.19596777E+03</rscale>
<asrwt>0</asrwt>
<pdfrwt beam="1">  1       21 0.10161946E+00 0.19596777E+03</pdfrwt>
<pdfrwt beam="2">  1       21 0.16036207E-01 0.19596777E+03</pdfrwt>
<totfact> 0.27384557E+04</totfact>
</mgrwt>
</event>
<event>
 4    2  0.3944631E+000  0.2077223E+03  0.7546771E-02  0.1143383E+00
         21   -1    0    0  501  502  0.00000000000E+00  0.00000000000E+00  0.15527013730E+04  0.15527013730E+04  0.00000000000E+00 0. -1.
         21   -1    0    0  502  503 -0.00000000000E+00 -0.00000000000E+00 -0.64102780492E+02  0.64102780492E+02  0.00000000000E+00 0. -1.
          6    1    1    2  501    0  0.89710284279E+02 -0.71913827153E+02  0.13527462689E+04  0.13686018419E+04  0.17300000000E+03 0. -1.
         -6    1    1    2    0  503 -0.89710284279E+02  0.71913827153E+02  0.13585232358E+03  0.24820231156E+03  0.17300000000E+03 0. -1.
<mgrwt>
<rscale>  2 0.20772225E+03</rscale>
<asrwt>0</asrwt>
<pdfrwt beam="1">  1       21 0.23887711E+00 0.20772225E+03</pdfrwt>
<pdfrwt beam="2">  1       21 0.98619674E-02 0.20772225E+03</pdfrwt>
<totfact> 0.63416940E+03</totfact>
</mgrwt>
</event>
<event>
 4    2  0.3944631E+000  0.2183297E+03  0.7546771E-02  0.1135135E+00
         21   -1    0    0  503  502  0.00000000000E+00  0.00000000000E+00  0.92735051873E+02  0.92735051873E+02  0.00000000000E+00 0. -1.
         21   -1    0    0  501  503 -0.00000000000E+00 -0.00000000000E+00 -0.59527497580E+03  0.59527497580E+03  0.00000000000E+00 0. -1.
          6    1    1    2  501    0 -0.31628061200E+02  0.12937736828E+03 -0.37836428410E+03  0.43683792093E+03  0.17300000000E+03 0. -1.
         -6    1    1    2    0  502  0.31628061200E+02 -0.12937736828E+03 -0.12417563982E+03  0.25117210674E+03  0.17300000000E+03 0. -1.
<mgrwt>
<rscale>  2 0.21832965E+03</rscale>
<asrwt>0</asrwt>
<pdfrwt beam="1">  1       21 0.14266931E-01 0.21832965E+03</pdfrwt>
<pdfrwt beam="2">  1       21 0.91580765E-01 0.21832965E+03</pdfrwt>
<totfact> 0.42789336E+04</totfact>
</mgrwt>
</event>
<event>
 4    2  0.3944631E+000  0.1737228E+03  0.7546771E-02  0.1174020E+00
         21   -1    0    0  501  502  0.00000000000E+00  0.00000000000E+00  0.31231570018E+03  0.31231570018E+03  0.00000000000E+00 0. -1.
         21   -1    0    0  502  503 -0.00000000000E+00 -0.00000000000E+00 -0.46242914088E+03  0.46242914088E+03  0.00000000000E+00 0. -1.
          6    1    1    2  501    0 -0.15285659534E+02 -0.41195485343E+01  0.26947275603E+03  0.32061688712E+03  0.17300000000E+03 0. -1.
         -6    1    1    2    0  503  0.15285659534E+02  0.41195485343E+01 -0.41958619673E+03  0.45412795394E+03  0.17300000000E+03 0. -1.
<mgrwt>
<rscale>  2 0.17372283E+03</rscale>
<asrwt>0</asrwt>
<pdfrwt beam="1">  1       21 0.48048569E-01 0.17372283E+03</pdfrwt>
<pdfrwt beam="2">  1       21 0.71142945E-01 0.17372283E+03</pdfrwt>
<totfact> 0.75055508E+03</totfact>
</mgrwt>
</event>
<event>
 4    2  0.3944631E+000  0.2028940E+03  0.7546771E-02  0.1147320E+00
         21   -1    0    0  503  502  0.00000000000E+00  0.00000000000E+00  0.33788681013E+03  0.33788681013E+03  0.00000000000E+00 0.  1.
         21   -1    0    0  501  503 -0.00000000000E+00 -0.00000000000E+00 -0.13214856336E+03  0.13214856336E+03  0.00000000000E+00 0.  1.
          6    1    1    2  501    0 -0.94343110073E+02  0.48335837648E+02  0.16852938351E+03  0.26375770837E+03  0.17300000000E+03 0.  1.
         -6    1    1    2    0  502  0.94343110073E+02 -0.48335837648E+02  0.37208863259E+02  0.20627766511E+03  0.17300000000E+03 0.  1.
<mgrwt>
<rscale>  2 0.20289400E+03</rscale>
<asrwt>0</asrwt>
<pdfrwt beam="1">  1       21 0.51982586E-01 0.20289400E+03</pdfrwt>
<pdfrwt beam="2">  1       21 0.20330548E-01 0.20289400E+03</pdfrwt>
<totfact> 0.78290081E+04</totfact>
</mgrwt>
</event>
<event>
 4    2  0.3944631E+000  0.1856719E+03  0.7546771E-02  0.1162424E+00
         21   -1    0    0  503  502  0.00000000000E+00  0.00000000000E+00  0.55174318272E+02  0.55174318272E+02  0.00000000000E+00 0.  1.
         21   -1    0    0  501  503 -0.00000000000E+00 -0.00000000000E+00 -0.62556501642E+03  0.62556501642E+03  0.00000000000E+00 0.  1.
          6    1    1    2  501    0  0.65995237598E+02  0.13772919305E+02 -0.29693481476E+03  0.35020615202E+03  0.17300000000E+03 0.  1.
         -6    1    1    2    0  502 -0.65995237598E+02 -0.13772919305E+02 -0.27345588338E+03  0.33053318267E+03  0.17300000000E+03 0.  1.
<mgrwt>
<rscale>  2 0.18567193E+03</rscale>
<asrwt>0</asrwt>
<pdfrwt beam="1">  1       21 0.84883570E-02 0.18567193E+03</pdfrwt>
<pdfrwt beam="2">  1       21 0.96240767E-01 0.18567193E+03</pdfrwt>
<totfact> 0.97524313E+04</totfact>
</mgrwt>
</event>
<event>
 4    2  0.3944631E+000  0.2839494E+03  0.7546771E-02  0.1093551E+00
         21   -1    0    0  503  502  0.00000000000E+00  0.00000000000E+00  0.86928287348E+03  0.86928287348E+03  0.00000000000E+00 0.  1.
         21   -1    0    0  501  503 -0.00000000000E+00 -0.00000000000E+00 -0.10224984248E+03  0.10224984248E+03  0.00000000000E+00 0. -1.
          6    1    1    2  501    0 -0.20641642377E+03 -0.89947304646E+02  0.23546226298E+03  0.36887631383E+03  0.17300000000E+03 0. -1.
         -6    1    1    2    0  502  0.20641642377E+03  0.89947304646E+02  0.53157076802E+03  0.60265640213E+03  0.17300000000E+03 0. -1.
<mgrwt>
<rscale>  2 0.28394939E+03</rscale>
<asrwt>0</asrwt>
<pdfrwt beam="1">  1       21 0.13373582E+00 0.28394939E+03</pdfrwt>
<pdfrwt beam="2">  1       21 0.15730746E-01 0.28394939E+03</pdfrwt>
<totfact> 0.13712734E+04</totfact>
</mgrwt>
</event>
<event>
 4    2  0.3944631E+000  0.1741050E+03  0.7546771E-02  0.1173633E+00
         21   -1    0    0  501  502  0.00000000000E+00  0.00000000000E+00  0.23900032514E+03  0.23900032514E+03  0.00000000000E+00 0. -1.
         21   -1    0    0  502  503 -0.00000000000E+00 -0.00000000000E+00 -0.19680794918E+03  0.19680794918E+03  0.00000000000E+00 0. -1.
          6    1    1    2  501    0  0.35690649706E+01  0.19256583643E+02  0.15103021738E+03  0.23048358032E+03  0.17300000000E+03 0. -1.
         -6    1    1    2    0  503 -0.35690649706E+01 -0.19256583643E+02 -0.10883784142E+03  0.20532469399E+03  0.17300000000E+03 0. -1.
<mgrwt>
<rscale>  2 0.17410501E+03</rscale>
<asrwt>0</asrwt>
<pdfrwt beam="1">  1       21 0.36769281E-01 0.17410501E+03</pdfrwt>
<pdfrwt beam="2">  1       21 0.30278146E-01 0.17410501E+03</pdfrwt>
<totfact> 0.75242628E+04</totfact>
</mgrwt>
</event>
<event>
 4    2  0.3944631E+000  0.1894268E+03  0.7546771E-02  0.1158979E+00
         21   -1    0    0  503  502  0.00000000000E+00  0.00000000000E+00  0.24240161332E+04  0.24240161332E+04  0.00000000000E+00 0.  1.
         21   -1    0    0  501  503 -0.00000000000E+00 -0.00000000000E+00 -0.16721224256E+02  0.16721224256E+02  0.00000000000E+00 0.  1.
          6    1    1    2  501    0  0.72919519596E+02  0.25223885556E+02  0.16169960981E+04  0.16280537098E+04  0.17300000000E+03 0.  1.
         -6    1    1    2    0  502 -0.72919519596E+02 -0.25223885556E+02  0.79029881090E+03  0.81268364771E+03  0.17300000000E+03 0.  1.
<mgrwt>
<rscale>  2 0.18942677E+03</rscale>
<asrwt>0</asrwt>
<pdfrwt beam="1">  1       21 0.37292528E+00 0.18942677E+03</pdfrwt>
<pdfrwt beam="2">  1       21 0.25724980E-02 0.18942677E+03</pdfrwt>
<totfact> 0.10448578E+04</totfact>
</mgrwt>
</event>
<event>
 4    2  0.3944631E+000  0.1926216E+03  0.7546771E-02  0.1156118E+00
         21   -1    0    0  501  502  0.00000000000E+00  0.00000000000E+00  0.42703072553E+03  0.42703072553E+03  0.00000000000E+00 0. -1.
         21   -1    0    0  502  503 -0.00000000000E+00 -0.00000000000E+00 -0.10601016543E+03  0.10601016543E+03  0.00000000000E+00 0. -1.
          6    1    1    2  501    0 -0.10960229982E+02  0.83987831124E+02  0.27371006609E+03  0.33469431232E+03  0.17300000000E+03 0. -1.
         -6    1    1    2    0  503  0.10960229982E+02 -0.83987831124E+02  0.47310494005E+02  0.19834657865E+03  0.17300000000E+03 0. -1.
<mgrwt>
<rscale>  2 0.19262160E+03</rscale>
<asrwt>0</asrwt>
<pdfrwt beam="1">  1       21 0.65697034E-01 0.19262160E+03</pdfrwt>
<pdfrwt beam="2">  1       21 0.16309256E-01 0.19262160E+03</pdfrwt>
<totfact> 0.71695965E+04</totfact>
</mgrwt>
</event>
<event>
 4    2  0.3944631E+000  0.1839053E+03  0.7546771E-02  0.1164076E+00
         21   -1    0    0  503  502  0.00000000000E+00  0.00000000000E+00  0.45813965176E+03  0.45813965176E+03  0.00000000000E+00 0.  1.
         21   -1    0    0  501  503 -0.00000000000E+00 -0.00000000000E+00 -0.11929530661E+03  0.11929530661E+03  0.00000000000E+00 0.  1.
          6    1    1    2  501    0 -0.12016771194E+02 -0.61218778232E+02 -0.88304601395E+01  0.18411713289E+03  0.17300000000E+03 0.  1.
         -6    1    1    2    0  502  0.12016771194E+02  0.61218778232E+02  0.34767480529E+03  0.39331782547E+03  0.17300000000E+03 0.  1.
<mgrwt>
<rscale>  2 0.18390525E+03</rscale>
<asrwt>0</asrwt>
<pdfrwt beam="1">  1       21 0.70483022E-01 0.18390525E+03</pdfrwt>
<pdfrwt beam="2">  1       21 0.18353124E-01 0.18390525E+03</pdfrwt>
<totfact> 0.49635810E+04</totfact>
</mgrwt>
</event>
<event>
 4    2  0.3944631E+000  0.2415382E+03  0.7546771E-02  0.1118772E+00
         21   -1    0    0  503  502  0.00000000000E+00  0.00000000000E+00  0.17779447675E+03  0.17779447675E+03  0.00000000000E+00 0.  1.
         21   -1    0    0  501  503 -0.00000000000E+00 -0.00000000000E+00 -0.32816590332E+03  0.32816590332E+03  0.00000000000E+00 0. -1.
          6    1    1    2  501    0  0.16201864718E+03  0.46493836955E+02 -0.72759592505E+02  0.25225914693E+03  0.17300000000E+03 0.  1.
         -6    1    1    2    0  502 -0.16201864718E+03 -0.46493836955E+02 -0.77611834071E+02  0.25370123314E+03  0.17300000000E+03 0. -1.
<mgrwt>
<rscale>  2 0.24153823E+03</rscale>
<asrwt>0</asrwt>
<pdfrwt beam="1">  1       21 0.27352997E-01 0.24153823E+03</pdfrwt>
<pdfrwt beam="2">  1       21 0.50487061E-01 0.24153823E+03</pdfrwt>
<totfact> 0.46535232E+04</totfact>
</mgrwt>
</event>
<event>
 4    2  0.3944631E+000  0.1847046E+03  0.7546771E-02  0.1163326E+00
         21   -1    0    0  503  502  0.00000000000E+00  0.00000000000E+00  0.45238393547E+02  0.45238393547E+02  0.00000000000E+00 0.  1.
         21   -1    0    0  501  503 -0.00000000000E+00 -0.00000000000E+00 -0.88628520874E+03  0.88628520874E+03  0.00000000000E+00 0.  1.
          6    1    1    2  501    0 -0.64365105066E+02 -0.66266375277E+01 -0.24067200267E+03  0.30337895765E+03  0.17300000000E+03 0.  1.
         -6    1    1    2    0  502  0.64365105066E+02  0.66266375277E+01 -0.60037481252E+03  0.62814464464E+03  0.17300000000E+03 0.  1.
<mgrwt>
<rscale>  2 0.18470457E+03</rscale>
<asrwt>0</asrwt>
<pdfrwt beam="1">  1       21 0.69597533E-02 0.18470457E+03</pdfrwt>
<pdfrwt beam="2">  1       21 0.13635156E+00 0.18470457E+03</pdfrwt>
<totfact> 0.58754777E+04</totfact>
</mgrwt>
</event>
<event>
 4    2  0.3944631E+000  0.2174074E+03  0.7546771E-02  0.1135831E+00
         21   -1    0    0  501  502  0.00000000000E+00  0.00000000000E+00  0.62631511452E+03  0.62631511452E+03  0.00000000000E+00 0. -1.
         21   -1    0    0  502  503 -0.00000000000E+00 -0.00000000000E+00 -0.13931838941E+03  0.13931838941E+03  0.00000000000E+00 0.  1.
          6    1    1    2  501    0  0.50560667844E+02 -0.12157554179E+03  0.50266111837E+03  0.54766248130E+03  0.17300000000E+03 0. -1.
         -6    1    1    2    0  503 -0.50560667844E+02  0.12157554179E+03 -0.15664393269E+02  0.21797102264E+03  0.17300000000E+03 0.  1.
<mgrwt>
<rscale>  2 0.21740744E+03</rscale>
<asrwt>0</asrwt>
<pdfrwt beam="1">  1       21 0.96356170E-01 0.21740744E+03</pdfrwt>
<pdfrwt beam="2">  1       21 0.21433599E-01 0.21740744E+03</pdfrwt>
<totfact> 0.17892469E+04</totfact>
</mgrwt>
</event>
<event>
 4    2  0.3944631E+000  0.1859834E+03  0.7546771E-02  0.1162135E+00
         21   -1    0    0  503  502  0.00000000000E+00  0.00000000000E+00  0.99543203115E+02  0.99543203115E+02  0.00000000000E+00 0. -1.
         21   -1    0    0  501  503 -0.00000000000E+00 -0.00000000000E+00 -0.66167213399E+03  0.66167213399E+03  0.00000000000E+00 0. -1.
          6    1    1    2  501    0 -0.57550051204E+02  0.36726380087E+02 -0.54333521394E+03  0.57428476394E+03  0.17300000000E+03 0. -1.
         -6    1    1    2    0  502  0.57550051204E+02 -0.36726380087E+02 -0.18793716938E+02  0.18693057317E+03  0.17300000000E+03 0. -1.
<mgrwt>
<rscale>  2 0.18598343E+03</rscale>
<asrwt>0</asrwt>
<pdfrwt beam="1">  1       21 0.15314340E-01 0.18598343E+03</pdfrwt>
<pdfrwt beam="2">  1       21 0.10179571E+00 0.18598343E+03</pdfrwt>
<totfact> 0.29835249E+04</totfact>
</mgrwt>
</event>
<event>
 4    2  0.3944631E+000  0.1745487E+03  0.7546771E-02  0.1173186E+00
         21   -1    0    0  501  502  0.00000000000E+00  0.00000000000E+00  0.20829575722E+02  0.20829575722E+02  0.00000000000E+00 0.  1.
         21   -1    0    0  502  503 -0.00000000000E+00 -0.00000000000E+00 -0.18792806584E+04  0.18792806584E+04  0.00000000000E+00 0.  1.
          6    1    1    2  501    0  0.77824551865E+01  0.21855789909E+02 -0.48191720602E+03  0.51255383680E+03  0.17300000000E+03 0.  1.
         -6    1    1    2    0  503 -0.77824551865E+01 -0.21855789909E+02 -0.13765338767E+04  0.13875563974E+04  0.17300000000E+03 0.  1.
<mgrwt>
<rscale>  2 0.17454868E+03</rscale>
<asrwt>0</asrwt>
<pdfrwt beam="1">  1       21 0.32045498E-02 0.17454868E+03</pdfrwt>
<pdfrwt beam="2">  1       21 0.28912013E+00 0.17454868E+03</pdfrwt>
<totfact> 0.22772064E+04</totfact>
</mgrwt>
</event>
<event>
 4    2  0.3944631E+000  0.2385022E+03  0.7546771E-02  0.1120795E+00
         21   -1    0    0  501  502  0.00000000000E+00  0.00000000000E+00  0.99253545966E+02  0.99253545966E+02  0.00000000000E+00 0.  1.
         21   -1    0    0  502  503 -0.00000000000E+00 -0.00000000000E+00 -0.78466917288E+03  0.78466917288E+03  0.00000000000E+00 0.  1.
          6    1    1    2  501    0  0.15995110787E+03  0.37012701594E+02 -0.11322195426E+03  0.26401232531E+03  0.17300000000E+03 0.  1.
         -6    1    1    2    0  503 -0.15995110787E+03 -0.37012701594E+02 -0.57219367265E+03  0.61991039354E+03  0.17300000000E+03 0.  1.
<mgrwt>
<rscale>  2 0.23850219E+03</rscale>
<asrwt>0</asrwt>
<pdfrwt beam="1">  1       21 0.15269777E-01 0.23850219E+03</pdfrwt>
<pdfrwt beam="2">  1       21 0.12071833E+00 0.23850219E+03</pdfrwt>
<totfact> 0.19223778E+04</totfact>
</mgrwt>
</event>
<event>
 4    2  0.3944631E+000  0.1834548E+03  0.7546771E-02  0.1164501E+00
         21   -1    0    0  503  502  0.00000000000E+00  0.00000000000E+00  0.26772420788E+03  0.26772420788E+03  0.00000000000E+00 0. -1.
         21   -1    0    0  501  503 -0.00000000000E+00 -0.00000000000E+00 -0.16896445179E+03  0.16896445179E+03  0.00000000000E+00 0. -1.
          6    1    1    2  501    0  0.11904622129E+02  0.59874348824E+02 -0.61093786861E+02  0.19336004879E+03  0.17300000000E+03 0. -1.
         -6    1    1    2    0  502 -0.11904622129E+02 -0.59874348824E+02  0.15985354295E+03  0.24332861087E+03  0.17300000000E+03 0. -1.
<mgrwt>
<rscale>  2 0.18345478E+03</rscale>
<asrwt>0</asrwt>
<pdfrwt beam="1">  1       21 0.41188340E-01 0.18345478E+03</pdfrwt>
<pdfrwt beam="2">  1       21 0.25994531E-01 0.18345478E+03</pdfrwt>
<totfact> 0.80100057E+04</totfact>
</mgrwt>
</event>
<event>
 4    2  0.3944631E+000  0.1976392E+03  0.7546771E-02  0.1151746E+00
         21   -1    0    0  503  502  0.00000000000E+00  0.00000000000E+00  0.25954427442E+03  0.25954427442E+03  0.00000000000E+00 0. -1.
         21   -1    0    0  501  503 -0.00000000000E+00 -0.00000000000E+00 -0.15151862524E+03  0.15151862524E+03  0.00000000000E+00 0.  1.
          6    1    1    2  501    0 -0.94275423451E+02 -0.15632975006E+02  0.37155433059E+02  0.20110139627E+03  0.17300000000E+03 0.  1.
         -6    1    1    2    0  502  0.94275423451E+02  0.15632975006E+02  0.70870216115E+02  0.20996150339E+03  0.17300000000E+03 0. -1.
<mgrwt>
<rscale>  2 0.19763918E+03</rscale>
<asrwt>0</asrwt>
<pdfrwt beam="1">  1       21 0.39929888E-01 0.19763918E+03</pdfrwt>
<pdfrwt beam="2">  1       21 0.23310558E-01 0.19763918E+03</pdfrwt>
<totfact> 0.10439096E+05</totfact>
</mgrwt>
</event>
<event>
 4    2  0.3944631E+000  0.2149023E+03  0.7546771E-02  0.1137742E+00
         21   -1    0    0  503  502  0.00000000000E+00  0.00000000000E+00  0.56754948247E+03  0.56754948247E+03  0.00000000000E+00 0. -1.
         21   -1    0    0  501  503 -0.00000000000E+00 -0.00000000000E+00 -0.14133381934E+03  0.14133381934E+03  0.00000000000E+00 0.  1.
          6    1    1    2  501    0  0.12345462724E+03  0.31826601721E+02 -0.17756546629E+02  0.21563458098E+03  0.17300000000E+03 0.  1.
         -6    1    1    2    0  502 -0.12345462724E+03 -0.31826601721E+02  0.44397220976E+03  0.49324872083E+03  0.17300000000E+03 0. -1.
<mgrwt>
<rscale>  2 0.21490225E+03</rscale>
<asrwt>0</asrwt>
<pdfrwt beam="1">  1       21 0.87315304E-01 0.21490225E+03</pdfrwt>
<pdfrwt beam="2">  1       21 0.21743665E-01 0.21490225E+03</pdfrwt>
<totfact> 0.21942940E+04</totfact>
</mgrwt>
</event>
<event>
 4    2  0.3944631E+000  0.3837200E+03  0.7546771E-02  0.1049567E+00
         21   -1    0    0  503  502  0.00000000000E+00  0.00000000000E+00  0.43350973306E+03  0.43350973306E+03  0.00000000000E+00 0.  1.
         21   -1    0    0  501  503 -0.00000000000E+00 -0.00000000000E+00 -0.38308608268E+03  0.38308608268E+03  0.00000000000E+00 0. -1.
          6    1    1    2  501    0 -0.29364325530E+03 -0.17631130731E+03 -0.11227483029E+03  0.39980829904E+03  0.17300000000E+03 0. -1.
         -6    1    1    2    0  502  0.29364325530E+03  0.17631130731E+03  0.16269848066E+03  0.41678751670E+03  0.17300000000E+03 0.  1.
<mgrwt>
<rscale>  2 0.38372000E+03</rscale>
<asrwt>0</asrwt>
<pdfrwt beam="1">  1       21 0.66693805E-01 0.38372000E+03</pdfrwt>
<pdfrwt beam="2">  1       21 0.58936320E-01 0.38372000E+03</pdfrwt>
<totfact> 0.49975587E+03</totfact>
</mgrwt>
</event>
<event>
 4    2  0.3944631E+000  0.1952775E+03  0.7546771E-02  0.1153786E+00
         21   -1    0    0  503  502  0.00000000000E+00  0.00000000000E+00  0.70061356250E+02  0.70061356250E+02  0.00000000000E+00 0.  1.
         21   -1    0    0  501  503 -0.00000000000E+00 -0.00000000000E+00 -0.14958018405E+04  0.14958018405E+04  0.00000000000E+00 0.  1.
          6    1    1    2  501    0 -0.22832681537E+02 -0.87652564949E+02 -0.13373166407E+04  0.13514988350E+04  0.17300000000E+03 0.  1.
         -6    1    1    2    0  502  0.22832681537E+02  0.87652564949E+02 -0.88423843567E+02  0.21436436178E+03  0.17300000000E+03 0.  1.
<mgrwt>
<rscale>  2 0.19527750E+03</rscale>
<asrwt>0</asrwt>
<pdfrwt beam="1">  1       21 0.10778671E-01 0.19527750E+03</pdfrwt>
<pdfrwt beam="2">  1       21 0.23012334E+00 0.19527750E+03</pdfrwt>
<totfact> 0.61876729E+03</totfact>
</mgrwt>
</event>
<event>
 4    2  0.3944631E+000  0.2438004E+03  0.7546771E-02  0.1117287E+00
         21   -1    0    0  503  502  0.00000000000E+00  0.00000000000E+00  0.59000258094E+03  0.59000258094E+03  0.00000000000E+00 0. -1.
         21   -1    0    0  501  503 -0.00000000000E+00 -0.00000000000E+00 -0.10884209076E+03  0.10884209076E+03  0.00000000000E+00 0.  1.
          6    1    1    2  501    0 -0.16423714622E+03 -0.50356884189E+02  0.14526350569E+03  0.28379595147E+03  0.17300000000E+03 0. -1.
         -6    1    1    2    0  502  0.16423714622E+03  0.50356884189E+02  0.33589698448E+03  0.41504872023E+03  0.17300000000E+03 0. -1.
<mgrwt>
<rscale>  2 0.24380044E+03</rscale>
<asrwt>0</asrwt>
<pdfrwt beam="1">  1       21 0.90769626E-01 0.24380044E+03</pdfrwt>
<pdfrwt beam="2">  1       21 0.16744937E-01 0.24380044E+03</pdfrwt>
<totfact> 0.32182388E+04</totfact>
</mgrwt>
</event>
<event>
 4    2  0.3944631E+000  0.1813428E+03  0.7546771E-02  0.1166510E+00
         21   -1    0    0  501  502  0.00000000000E+00  0.00000000000E+00  0.41398855350E+03  0.41398855350E+03  0.00000000000E+00 0. -1.
         21   -1    0    0  502  503 -0.00000000000E+00 -0.00000000000E+00 -0.80333902290E+02  0.80333902290E+02  0.00000000000E+00 0. -1.
          6    1    1    2  501    0 -0.45667977610E+02 -0.29507001165E+02  0.14068405060E+03  0.22951520514E+03  0.17300000000E+03 0. -1.
         -6    1    1    2    0  503  0.45667977610E+02  0.29507001165E+02  0.19297060061E+03  0.26480725065E+03  0.17300000000E+03 0. -1.
<mgrwt>
<rscale>  2 0.18134284E+03</rscale>
<asrwt>0</asrwt>
<pdfrwt beam="1">  1       21 0.63690546E-01 0.18134284E+03</pdfrwt>
<pdfrwt beam="2">  1       21 0.12359062E-01 0.18134284E+03</pdfrwt>
<totfact> 0.12731004E+05</totfact>
</mgrwt>
</event>
<event>
 4    2  0.3944631E+000  0.2616913E+03  0.7546771E-02  0.1106131E+00
         21   -1    0    0  501  502  0.00000000000E+00  0.00000000000E+00  0.50987745732E+03  0.50987745732E+03  0.00000000000E+00 0.  1.
         21   -1    0    0  502  503 -0.00000000000E+00 -0.00000000000E+00 -0.27941788306E+03  0.27941788306E+03  0.00000000000E+00 0. -1.
          6    1    1    2  501    0  0.13787325344E+03  0.13980085070E+03  0.39962742134E+03  0.47768649527E+03  0.17300000000E+03 0.  1.
         -6    1    1    2    0  503 -0.13787325344E+03 -0.13980085070E+03 -0.16916784708E+03  0.31160884512E+03  0.17300000000E+03 0. -1.
<mgrwt>
<rscale>  2 0.26169125E+03</rscale>
<asrwt>0</asrwt>
<pdfrwt beam="1">  1       21 0.78442685E-01 0.26169125E+03</pdfrwt>
<pdfrwt beam="2">  1       21 0.42987367E-01 0.26169125E+03</pdfrwt>
<totfact> 0.71548385E+03</totfact>
</mgrwt>
</event>
<event>
 4    2  0.3944631E+000  0.2683987E+03  0.7546771E-02  0.1102200E+00
         21   -1    0    0  503  502  0.00000000000E+00  0.00000000000E+00  0.48792816638E+03  0.48792816638E+03  0.00000000000E+00 0. -1.
         21   -1    0    0  501  503 -0.00000000000E+00 -0.00000000000E+00 -0.15592901140E+03  0.15592901140E+03  0.00000000000E+00 0.  1.
          6    1    1    2  501    0  0.20196077441E+03  0.36341629449E+02  0.91776460907E+02  0.28365610730E+03  0.17300000000E+03 0. -1.
         -6    1    1    2    0  502 -0.20196077441E+03 -0.36341629449E+02  0.24022269408E+03  0.36020107049E+03  0.17300000000E+03 0. -1.
<mgrwt>
<rscale>  2 0.26839871E+03</rscale>
<asrwt>0</asrwt>
<pdfrwt beam="1">  1       21 0.75065871E-01 0.26839871E+03</pdfrwt>
<pdfrwt beam="2">  1       21 0.23989079E-01 0.26839871E+03</pdfrwt>
<totfact> 0.25022036E+04</totfact>
</mgrwt>
</event>
<event>
 4    2  0.3944631E+000  0.3161962E+03  0.7546771E-02  0.1077413E+00
         21   -1    0    0  503  502  0.00000000000E+00  0.00000000000E+00  0.33499791631E+03  0.33499791631E+03  0.00000000000E+00 0. -1.
         21   -1    0    0  501  503 -0.00000000000E+00 -0.00000000000E+00 -0.31546277586E+03  0.31546277586E+03  0.00000000000E+00 0. -1.
          6    1    1    2  501    0  0.84941979982E+02  0.25067089819E+03 -0.65760429068E+02  0.32296203057E+03  0.17300000000E+03 0. -1.
         -6    1    1    2    0  502 -0.84941979982E+02 -0.25067089819E+03  0.85295569518E+02  0.32749866159E+03  0.17300000000E+03 0. -1.
<mgrwt>
<rscale>  2 0.31619620E+03</rscale>
<asrwt>0</asrwt>
<pdfrwt beam="1">  1       21 0.51538141E-01 0.31619620E+03</pdfrwt>
<pdfrwt beam="2">  1       21 0.48532735E-01 0.31619620E+03</pdfrwt>
<totfact> 0.13605613E+04</totfact>
</mgrwt>
</event>
<event>
 4    2  0.3944631E+000  0.2669183E+03  0.7546771E-02  0.1103056E+00
         21   -1    0    0  501  502  0.00000000000E+00  0.00000000000E+00  0.44694222743E+03  0.44694222743E+03  0.00000000000E+00 0. -1.
         21   -1    0    0  502  503 -0.00000000000E+00 -0.00000000000E+00 -0.22513086509E+03  0.22513086509E+03  0.00000000000E+00 0.  1.
          6    1    1    2  501    0  0.27576422064E+01  0.20324553943E+03  0.29247114519E+03  0.39596050896E+03  0.17300000000E+03 0. -1.
         -6    1    1    2    0  503 -0.27576422064E+01 -0.20324553943E+03 -0.70659782852E+02  0.27611258356E+03  0.17300000000E+03 0.  1.
<mgrwt>
<rscale>  2 0.26691825E+03</rscale>
<asrwt>0</asrwt>
<pdfrwt beam="1">  1       21 0.68760343E-01 0.26691825E+03</pdfrwt>
<pdfrwt beam="2">  1       21 0.34635518E-01 0.26691825E+03</pdfrwt>
<totfact> 0.14853169E+04</totfact>
</mgrwt>
</event>
<event>
 4    2  0.3944631E+000  0.1755610E+03  0.7546771E-02  0.1172170E+00
         21   -1    0    0  501  502  0.00000000000E+00  0.00000000000E+00  0.26173972954E+02  0.26173972954E+02  0.00000000000E+00 0. -1.
         21   -1    0    0  502  503 -0.00000000000E+00 -0.00000000000E+00 -0.13366205189E+04  0.13366205189E+04  0.00000000000E+00 0. -1.
          6    1    1    2  501    0  0.28883482875E+02  0.76435473710E+01 -0.89027538972E+03  0.90742049180E+03  0.17300000000E+03 0. -1.
         -6    1    1    2    0  503 -0.28883482875E+02 -0.76435473710E+01 -0.42017115622E+03  0.45537400005E+03  0.17300000000E+03 0. -1.
<mgrwt>
<rscale>  2 0.17556104E+03</rscale>
<asrwt>0</asrwt>
<pdfrwt beam="1">  1       21 0.40267653E-02 0.17556104E+03</pdfrwt>
<pdfrwt beam="2">  1       21 0.20563391E+00 0.17556104E+03</pdfrwt>
<totfact> 0.48463157E+04</totfact>
</mgrwt>
</event>
<event>
 4    2  0.3944631E+000  0.1856641E+03  0.7546771E-02  0.1162431E+00
         21   -1    0    0  501  502  0.00000000000E+00  0.00000000000E+00  0.23676805688E+04  0.23676805688E+04  0.00000000000E+00 0. -1.
         21   -1    0    0  502  503 -0.00000000000E+00 -0.00000000000E+00 -0.19375520717E+02  0.19375520717E+02  0.00000000000E+00 0. -1.
          6    1    1    2  501    0  0.11863774980E+02 -0.66342981106E+02  0.17692267642E+04  0.17789419562E+04  0.17300000000E+03 0. -1.
         -6    1    1    2    0  503 -0.11863774980E+02  0.66342981106E+02  0.57907828387E+03  0.60811413333E+03  0.17300000000E+03 0. -1.
<mgrwt>
<rscale>  2 0.18566405E+03</rscale>
<asrwt>0</asrwt>
<pdfrwt beam="1">  1       21 0.36425832E+00 0.18566405E+03</pdfrwt>
<pdfrwt beam="2">  1       21 0.29808512E-02 0.18566405E+03</pdfrwt>
<totfact> 0.92828113E+03</totfact>
</mgrwt>
</event>
<event>
 4    2  0.3944631E+000  0.1816317E+03  0.7546771E-02  0.1166233E+00
         21   -1    0    0  503  502  0.00000000000E+00  0.00000000000E+00  0.93958039025E+03  0.93958039025E+03  0.00000000000E+00 0. -1.
         21   -1    0    0  501  503 -0.00000000000E+00 -0.00000000000E+00 -0.96462446096E+02  0.96462446096E+02  0.00000000000E+00 0. -1.
          6    1    1    2  501    0  0.39708463104E+02 -0.38526725972E+02  0.84361028822E+01  0.18182749651E+03  0.17300000000E+03 0. -1.
         -6    1    1    2    0  502 -0.39708463104E+02  0.38526725972E+02  0.83468184128E+03  0.85421533984E+03  0.17300000000E+03 0. -1.
<mgrwt>
<rscale>  2 0.18163169E+03</rscale>
<asrwt>0</asrwt>
<pdfrwt beam="1">  1       21 0.14455082E+00 0.18163169E+03</pdfrwt>
<pdfrwt beam="2">  1       21 0.14840377E-01 0.18163169E+03</pdfrwt>
<totfact> 0.13277737E+04</totfact>
</mgrwt>
</event>
<event>
 4    2  0.3944631E+000  0.2283407E+03  0.7546771E-02  0.1127813E+00
         21   -1    0    0  501  502  0.00000000000E+00  0.00000000000E+00  0.48637596386E+03  0.48637596386E+03  0.00000000000E+00 0. -1.
         21   -1    0    0  502  503 -0.00000000000E+00 -0.00000000000E+00 -0.10836929280E+03  0.10836929280E+03  0.00000000000E+00 0. -1.
          6    1    1    2  501    0 -0.14604180492E+03  0.29703336555E+02  0.21989291030E+03  0.31700534536E+03  0.17300000000E+03 0. -1.
         -6    1    1    2    0  503  0.14604180492E+03 -0.29703336555E+02  0.15811376075E+03  0.27773991130E+03  0.17300000000E+03 0. -1.
<mgrwt>
<rscale>  2 0.22834075E+03</rscale>
<asrwt>0</asrwt>
<pdfrwt beam="1">  1       21 0.74827070E-01 0.22834075E+03</pdfrwt>
<pdfrwt beam="2">  1       21 0.16672199E-01 0.22834075E+03</pdfrwt>
<totfact> 0.50809318E+04</totfact>
</mgrwt>
</event>
<event>
 4    2  0.3944631E+000  0.2700189E+03  0.7546771E-02  0.1101269E+00
         21   -1    0    0  503  502  0.00000000000E+00  0.00000000000E+00  0.58828960019E+02  0.58828960019E+02  0.00000000000E+00 0. -1.
         21   -1    0    0  501  503 -0.00000000000E+00 -0.00000000000E+00 -0.12408616395E+04  0.12408616395E+04  0.00000000000E+00 0. -1.
          6    1    1    2  501    0  0.27216929469E+02 -0.20552479176E+03 -0.61363022392E+03  0.67041200242E+03  0.17300000000E+03 0. -1.
         -6    1    1    2    0  502 -0.27216929469E+02  0.20552479176E+03 -0.56840245553E+03  0.62927859707E+03  0.17300000000E+03 0. -1.
<mgrwt>
<rscale>  2 0.27001889E+03</rscale>
<asrwt>0</asrwt>
<pdfrwt beam="1">  1       21 0.90506099E-02 0.27001889E+03</pdfrwt>
<pdfrwt beam="2">  1       21 0.19090178E+00 0.27001889E+03</pdfrwt>
<totfact> 0.14122154E+04</totfact>
</mgrwt>
</event>
<event>
 4    2  0.3944631E+000  0.1889247E+03  0.7546771E-02  0.1159435E+00
         21   -1    0    0  503  502  0.00000000000E+00  0.00000000000E+00  0.10037372098E+03  0.10037372098E+03  0.00000000000E+00 0.  1.
         21   -1    0    0  501  503 -0.00000000000E+00 -0.00000000000E+00 -0.46428884010E+03  0.46428884010E+03  0.00000000000E+00 0.  1.
          6    1    1    2  501    0  0.23010282648E+02 -0.72346859225E+02 -0.31856186870E+03  0.37037036239E+03  0.17300000000E+03 0.  1.
         -6    1    1    2    0  502 -0.23010282648E+02  0.72346859225E+02 -0.45353250417E+02  0.19429219869E+03  0.17300000000E+03 0.  1.
<mgrwt>
<rscale>  2 0.18892470E+03</rscale>
<asrwt>0</asrwt>
<pdfrwt beam="1">  1       21 0.15442111E-01 0.18892470E+03</pdfrwt>
<pdfrwt beam="2">  1       21 0.71429051E-01 0.18892470E+03</pdfrwt>
<totfact> 0.66037157E+04</totfact>
</mgrwt>
</event>
<event>
 4    2  0.3944631E+000  0.2373078E+03  0.7546771E-02  0.1121599E+00
         21   -1    0    0  501  502  0.00000000000E+00  0.00000000000E+00  0.12820655520E+03  0.12820655520E+03  0.00000000000E+00 0.  1.
         21   -1    0    0  502  503 -0.00000000000E+00 -0.00000000000E+00 -0.74179245719E+03  0.74179245719E+03  0.00000000000E+00 0. -1.
          6    1    1    2  501    0  0.14214201189E+03 -0.78623462210E+02 -0.28988496423E+02  0.23907181616E+03  0.17300000000E+03 0.  1.
         -6    1    1    2    0  503 -0.14214201189E+03  0.78623462210E+02 -0.58459740557E+03  0.63092719624E+03  0.17300000000E+03 0. -1.
<mgrwt>
<rscale>  2 0.23730782E+03</rscale>
<asrwt>0</asrwt>
<pdfrwt beam="1">  1       21 0.19724085E-01 0.23730782E+03</pdfrwt>
<pdfrwt beam="2">  1       21 0.11412192E+00 0.23730782E+03</pdfrwt>
<totfact> 0.13756172E+04</totfact>
</mgrwt>
</event>
<event>
 4    2  0.3944631E+000  0.2927197E+03  0.7546771E-02  0.1088938E+00
         21   -1    0    0  501  502  0.00000000000E+00  0.00000000000E+00  0.93722777839E+03  0.93722777839E+03  0.00000000000E+00 0. -1.
         21   -1    0    0  502  503 -0.00000000000E+00 -0.00000000000E+00 -0.30885656169E+03  0.30885656169E+03  0.00000000000E+00 0.  1.
          6    1    1    2  501    0 -0.10904788227E+03  0.20943821755E+03  0.83694475740E+03  0.88665739412E+03  0.17300000000E+03 0. -1.
         -6    1    1    2    0  503  0.10904788227E+03 -0.20943821755E+03 -0.20857354070E+03  0.35942694596E+03  0.17300000000E+03 0.  1.
<mgrwt>
<rscale>  2 0.29271967E+03</rscale>
<asrwt>0</asrwt>
<pdfrwt beam="1">  1       21 0.14418889E+00 0.29271967E+03</pdfrwt>
<pdfrwt beam="2">  1       21 0.47516394E-01 0.29271967E+03</pdfrwt>
<totfact> 0.12934053E+03</totfact>
</mgrwt>
</event>
<event>
 4    2  0.3944631E+000  0.1866250E+03  0.7546771E-02  0.1161541E+00
         21   -1    0    0  501  502  0.00000000000E+00  0.00000000000E+00  0.21021592413E+03  0.21021592413E+03  0.00000000000E+00 0. -1.
         21   -1    0    0  502  503 -0.00000000000E+00 -0.00000000000E+00 -0.17182124290E+03  0.17182124290E+03  0.00000000000E+00 0. -1.
          6    1    1    2  501    0 -0.66815758025E+02  0.20869875457E+02 -0.16911289140E+02  0.18738967133E+03  0.17300000000E+03 0. -1.
         -6    1    1    2    0  503  0.66815758025E+02 -0.20869875457E+02  0.55305970367E+02  0.19464749570E+03  0.17300000000E+03 0. -1.
<mgrwt>
<rscale>  2 0.18662502E+03</rscale>
<asrwt>0</asrwt>
<pdfrwt beam="1">  1       21 0.32340911E-01 0.18662502E+03</pdfrwt>
<pdfrwt beam="2">  1       21 0.26434037E-01 0.18662502E+03</pdfrwt>
<totfact> 0.12547818E+05</totfact>
</mgrwt>
</event>
<event>
 4    2  0.3944631E+000  0.3652327E+03  0.7546771E-02  0.1056531E+00
         21   -1    0    0  503  502  0.00000000000E+00  0.00000000000E+00  0.76050980282E+03  0.76050980282E+03  0.00000000000E+00 0.  1.
         21   -1    0    0  501  503 -0.00000000000E+00 -0.00000000000E+00 -0.88189475939E+03  0.88189475939E+03  0.00000000000E+00 0. -1.
          6    1    1    2  501    0  0.32148283921E+03 -0.10708957991E+02 -0.79570652868E+03  0.87552485829E+03  0.17300000000E+03 0. -1.
         -6    1    1    2    0  502 -0.32148283921E+03  0.10708957991E+02  0.67432157211E+03  0.76687970393E+03  0.17300000000E+03 0.  1.
<mgrwt>
<rscale>  2 0.36523266E+03</rscale>
<asrwt>0</asrwt>
<pdfrwt beam="1">  1       21 0.11700151E+00 0.36523266E+03</pdfrwt>
<pdfrwt beam="2">  1       21 0.13567612E+00 0.36523266E+03</pdfrwt>
<totfact> 0.18660504E+02</totfact>
</mgrwt>
</event>
<event>
 4    2  0.3944631E+000  0.1941628E+03  0.7546771E-02  0.1154759E+00
         21   -1    0    0  503  502  0.00000000000E+00  0.00000000000E+00  0.10464954382E+04  0.10464954382E+04  0.00000000000E+00 0.  1.
         21   -1    0    0  501  503 -0.00000000000E+00 -0.00000000000E+00 -0.43947488115E+02  0.43947488115E+02  0.00000000000E+00 0.  1.
          6    1    1    2  501    0  0.34804816955E+02  0.80986555973E+02  0.26977041080E+03  0.33237820637E+03  0.17300000000E+03 0.  1.
         -6    1    1    2    0  502 -0.34804816955E+02 -0.80986555973E+02  0.73277753929E+03  0.75806471994E+03  0.17300000000E+03 0.  1.
<mgrwt>
<rscale>  2 0.19416281E+03</rscale>
<asrwt>0</asrwt>
<pdfrwt beam="1">  1       21 0.16099928E+00 0.19416281E+03</pdfrwt>
<pdfrwt beam="2">  1       21 0.67611528E-02 0.19416281E+03</pdfrwt>
<totfact> 0.39713960E+04</totfact>
</mgrwt>
</event>
<event>
 4    2  0.3944631E+000  0.1964065E+03  0.7546771E-02  0.1152807E+00
         21   -1    0    0  501  502  0.00000000000E+00  0.00000000000E+00  0.35876783840E+03  0.35876783840E+03  0.00000000000E+00 0.  1.
         21   -1    0    0  502  503 -0.00000000000E+00 -0.00000000000E+00 -0.10782519195E+03  0.10782519195E+03  0.00000000000E+00 0.  1.
          6    1    1    2  501    0  0.89795844291E+02 -0.24149854109E+02  0.13783819960E+03  0.23994765757E+03  0.17300000000E+03 0.  1.
         -6    1    1    2    0  503 -0.89795844291E+02  0.24149854109E+02  0.11310444685E+03  0.22664537278E+03  0.17300000000E+03 0.  1.
<mgrwt>
<rscale>  2 0.19640649E+03</rscale>
<asrwt>0</asrwt>
<pdfrwt beam="1">  1       21 0.55195051E-01 0.19640649E+03</pdfrwt>
<pdfrwt beam="2">  1       21 0.16588491E-01 0.19640649E+03</pdfrwt>
<totfact> 0.10088111E+05</totfact>
</mgrwt>
</event>
<event>
 4    2  0.3944631E+000  0.2170781E+03  0.7546771E-02  0.1136080E+00
         21   -1    0    0  503  502  0.00000000000E+00  0.00000000000E+00  0.21064418680E+03  0.21064418680E+03  0.00000000000E+00 0.  1.
         21   -1    0    0  501  503 -0.00000000000E+00 -0.00000000000E+00 -0.26181486361E+03  0.26181486361E+03  0.00000000000E+00 0. -1.
          6    1    1    2  501    0 -0.13108878403E+03 -0.31040052238E+01 -0.11570831676E+03  0.24599048501E+03  0.17300000000E+03 0. -1.
         -6    1    1    2    0  502  0.13108878403E+03  0.31040052238E+01  0.64537639948E+02  0.22646856540E+03  0.17300000000E+03 0.  1.
<mgrwt>
<rscale>  2 0.21707811E+03</rscale>
<asrwt>0</asrwt>
<pdfrwt beam="1">  1       21 0.32406798E-01 0.21707811E+03</pdfrwt>
<pdfrwt beam="2">  1       21 0.40279209E-01 0.21707811E+03</pdfrwt>
<totfact> 0.53799359E+04</totfact>
</mgrwt>
</event>
<event>
 4    2  0.3944631E+000  0.2143477E+03  0.7546771E-02  0.1138169E+00
         21   -1    0    0  501  502  0.00000000000E+00  0.00000000000E+00  0.38945611486E+03  0.38945611486E+03  0.00000000000E+00 0.  1.
         21   -1    0    0  502  503 -0.00000000000E+00 -0.00000000000E+00 -0.11883485579E+03  0.11883485579E+03  0.00000000000E+00 0.  1.
          6    1    1    2  501    0 -0.11477606951E+03 -0.53313873385E+02  0.11365451247E+03  0.24261546412E+03  0.17300000000E+03 0.  1.
         -6    1    1    2    0  503  0.11477606951E+03  0.53313873385E+02  0.15696674660E+03  0.26567550652E+03  0.17300000000E+03 0.  1.
<mgrwt>
<rscale>  2 0.21434765E+03</rscale>
<asrwt>0</asrwt>
<pdfrwt beam="1">  1       21 0.59916325E-01 0.21434765E+03</pdfrwt>
<pdfrwt beam="2">  1       21 0.18282286E-01 0.21434765E+03</pdfrwt>
<totfact> 0.70219354E+04</totfact>
</mgrwt>
</event>
<event>
 4    2  0.3944631E+000  0.2305931E+03  0.7546771E-02  0.1126223E+00
         21   -1    0    0  503  502  0.00000000000E+00  0.00000000000E+00  0.11959590636E+03  0.11959590636E+03  0.00000000000E+00 0.  1.
         21   -1    0    0  501  503 -0.00000000000E+00 -0.00000000000E+00 -0.68760443051E+03  0.68760443051E+03  0.00000000000E+00 0.  1.
          6    1    1    2  501    0  0.28012555979E+02 -0.14986489305E+03 -0.52393326775E+03  0.57243275459E+03  0.17300000000E+03 0.  1.
         -6    1    1    2    0  502 -0.28012555979E+02  0.14986489305E+03 -0.44075256399E+02  0.23476758228E+03  0.17300000000E+03 0.  1.
<mgrwt>
<rscale>  2 0.23059313E+03</rscale>
<asrwt>0</asrwt>
<pdfrwt beam="1">  1       21 0.18399370E-01 0.23059313E+03</pdfrwt>
<pdfrwt beam="2">  1       21 0.10578530E+00 0.23059313E+03</pdfrwt>
<totfact> 0.18911198E+04</totfact>
</mgrwt>
</event>
<event>
 4    2  0.3944631E+000  0.2099310E+03  0.7546771E-02  0.1141621E+00
         21   -1    0    0  503  502  0.00000000000E+00  0.00000000000E+00  0.29957028841E+03  0.29957028841E+03  0.00000000000E+00 0.  1.
         21   -1    0    0  501  503 -0.00000000000E+00 -0.00000000000E+00 -0.33950526231E+03  0.33950526231E+03  0.00000000000E+00 0.  1.
          6    1    1    2  501    0  0.14719166150E+02  0.11800589703E+03 -0.26050974859E+03  0.33456893863E+03  0.17300000000E+03 0.  1.
         -6    1    1    2    0  502 -0.14719166150E+02 -0.11800589703E+03  0.22057477468E+03  0.30450661210E+03  0.17300000000E+03 0.  1.
<mgrwt>
<rscale>  2 0.20993105E+03</rscale>
<asrwt>0</asrwt>
<pdfrwt beam="1">  1       21 0.46087737E-01 0.20993105E+03</pdfrwt>
<pdfrwt beam="2">  1       21 0.52231579E-01 0.20993105E+03</pdfrwt>
<totfact> 0.15521190E+04</totfact>
</mgrwt>
</event>
<event>
 4    2  0.3944631E+000  0.2410869E+03  0.7546771E-02  0.1119071E+00
         21   -1    0    0  503  502  0.00000000000E+00  0.00000000000E+00  0.59070609760E+03  0.59070609760E+03  0.00000000000E+00 0.  1.
         21   -1    0    0  501  503 -0.00000000000E+00 -0.00000000000E+00 -0.24340654342E+03  0.24340654342E+03  0.00000000000E+00 0. -1.
          6    1    1    2  501    0  0.10849156767E+03  0.12815418316E+03 -0.14825608504E+03  0.28302434819E+03  0.17300000000E+03 0. -1.
         -6    1    1    2    0  502 -0.10849156767E+03 -0.12815418316E+03  0.49555563923E+03  0.55108829282E+03  0.17300000000E+03 0.  1.
<mgrwt>
<rscale>  2 0.24108694E+03</rscale>
<asrwt>0</asrwt>
<pdfrwt beam="1">  1       21 0.90877861E-01 0.24108694E+03</pdfrwt>
<pdfrwt beam="2">  1       21 0.37447161E-01 0.24108694E+03</pdfrwt>
<totfact> 0.68332171E+03</totfact>
</mgrwt>
</event>
<event>
 4    2  0.3944631E+000  0.2288369E+03  0.7546771E-02  0.1127461E+00
         21   -1    0    0  501  502  0.00000000000E+00  0.00000000000E+00  0.83946530632E+03  0.83946530632E+03  0.00000000000E+00 0.  1.
         21   -1    0    0  502  503 -0.00000000000E+00 -0.00000000000E+00 -0.67478297998E+02  0.67478297998E+02  0.00000000000E+00 0. -1.
          6    1    1    2  501    0  0.13512368268E+03  0.64644665414E+02  0.51063298713E+03  0.55956446450E+03  0.17300000000E+03 0.  1.
         -6    1    1    2    0  503 -0.13512368268E+03 -0.64644665414E+02  0.26135402120E+03  0.34737913982E+03  0.17300000000E+03 0. -1.
<mgrwt>
<rscale>  2 0.22883693E+03</rscale>
<asrwt>0</asrwt>
<pdfrwt beam="1">  1       21 0.12914850E+00 0.22883693E+03</pdfrwt>
<pdfrwt beam="2">  1       21 0.10381277E-01 0.22883693E+03</pdfrwt>
<totfact> 0.32704229E+04</totfact>
</mgrwt>
</event>
<event>
 4    2  0.3944631E+000  0.1775268E+03  0.7546771E-02  0.1170218E+00
         21   -1    0    0  501  502  0.00000000000E+00  0.00000000000E+00  0.21784058330E+04  0.21784058330E+04  0.00000000000E+00 0.  1.
         21   -1    0    0  502  503 -0.00000000000E+00 -0.00000000000E+00 -0.16007462057E+02  0.16007462057E+02  0.00000000000E+00 0.  1.
          6    1    1    2  501    0  0.35005733274E+02 -0.19009454031E+02  0.14215315729E+04  0.14325738283E+04  0.17300000000E+03 0.  1.
         -6    1    1    2    0  503 -0.35005733274E+02  0.19009454031E+02  0.74086679800E+03  0.76183946674E+03  0.17300000000E+03 0.  1.
<mgrwt>
<rscale>  2 0.17752679E+03</rscale>
<asrwt>0</asrwt>
<pdfrwt beam="1">  1       21 0.33513912E+00 0.17752679E+03</pdfrwt>
<pdfrwt beam="2">  1       21 0.24626882E-02 0.17752679E+03</pdfrwt>
<totfact> 0.19046933E+04</totfact>
</mgrwt>
</event>
<event>
 4    2  0.3944631E+000  0.2839071E+03  0.7546771E-02  0.1093574E+00
         21   -1    0    0  501  502  0.00000000000E+00  0.00000000000E+00  0.31889395644E+03  0.31889395644E+03  0.00000000000E+00 0. -1.
         21   -1    0    0  502  503 -0.00000000000E+00 -0.00000000000E+00 -0.26764220259E+03  0.26764220259E+03  0.00000000000E+00 0.  1.
          6    1    1    2  501    0  0.60851135699E+02  0.21672875518E+03 -0.43531805239E+02  0.28722505480E+03  0.17300000000E+03 0. -1.
         -6    1    1    2    0  503 -0.60851135699E+02 -0.21672875518E+03  0.94783559092E+02  0.29931110422E+03  0.17300000000E+03 0.  1.
<mgrwt>
<rscale>  2 0.28390705E+03</rscale>
<asrwt>0</asrwt>
<pdfrwt beam="1">  1       21 0.49060609E-01 0.28390705E+03</pdfrwt>
<pdfrwt beam="2">  1       21 0.41175723E-01 0.28390705E+03</pdfrwt>
<totfact> 0.21510576E+04</totfact>
</mgrwt>
</event>
<event>
 4    2  0.3944631E+000  0.1917692E+03  0.7546771E-02  0.1156875E+00
         21   -1    0    0  503  502  0.00000000000E+00  0.00000000000E+00  0.30753935579E+03  0.30753935579E+03  0.00000000000E+00 0.  1.
         21   -1    0    0  501  503 -0.00000000000E+00 -0.00000000000E+00 -0.45930478445E+03  0.45930478445E+03  0.00000000000E+00 0. -1.
          6    1    1    2  501    0  0.52583087701E+02 -0.63886259482E+02 -0.40563703154E+03  0.44868344812E+03  0.17300000000E+03 0. -1.
         -6    1    1    2    0  502 -0.52583087701E+02  0.63886259482E+02  0.25387160288E+03  0.31816069212E+03  0.17300000000E+03 0.  1.
<mgrwt>
<rscale>  2 0.19176922E+03</rscale>
<asrwt>0</asrwt>
<pdfrwt beam="1">  1       21 0.47313748E-01 0.19176922E+03</pdfrwt>
<pdfrwt beam="2">  1       21 0.70662274E-01 0.19176922E+03</pdfrwt>
<totfact> 0.77607884E+03</totfact>
</mgrwt>
</event>
<event>
 4    2  0.3944631E+000  0.1818938E+03  0.7546771E-02  0.1165983E+00
         21   -1    0    0  501  502  0.00000000000E+00  0.00000000000E+00  0.52885998792E+03  0.52885998792E+03  0.00000000000E+00 0. -1.
         21   -1    0    0  502  503 -0.00000000000E+00 -0.00000000000E+00 -0.14549396967E+03  0.14549396967E+03  0.00000000000E+00 0. -1.
          6    1    1    2  501    0  0.19937391838E+02 -0.52524962679E+02  0.44625005768E+03  0.48189675790E+03  0.17300000000E+03 0. -1.
         -6    1    1    2    0  503 -0.19937391838E+02  0.52524962679E+02 -0.62884039424E+02  0.19245719969E+03  0.17300000000E+03 0. -1.
<mgrwt>
<rscale>  2 0.18189385E+03</rscale>
<asrwt>0</asrwt>
<pdfrwt beam="1">  1       21 0.81363074E-01 0.18189385E+03</pdfrwt>
<pdfrwt beam="2">  1       21 0.22383688E-01 0.18189385E+03</pdfrwt>
<totfact> 0.24885888E+04</totfact>
</mgrwt>
</event>
<event>
 4    2  0.3944631E+000  0.1874417E+03  0.7546771E-02  0.1160789E+00
         21   -1    0    0  501  502  0.00000000000E+00  0.00000000000E+00  0.42449562650E+03  0.42449562650E+03  0.00000000000E+00 0. -1.
         21   -1    0    0  502  503 -0.00000000000E+00 -0.00000000000E+00 -0.87754287442E+02  0.87754287442E+02  0.00000000000E+00 0. -1.
          6    1    1    2  501    0 -0.56920194380E+02  0.44333779704E+02  0.22942735203E+03  0.29626221901E+03  0.17300000000E+03 0. -1.
         -6    1    1    2    0  503  0.56920194380E+02 -0.44333779704E+02  0.10731398702E+03  0.21598769493E+03  0.17300000000E+03 0. -1.
<mgrwt>
<rscale>  2 0.18744170E+03</rscale>
<asrwt>0</asrwt>
<pdfrwt beam="1">  1       21 0.65307018E-01 0.18744170E+03</pdfrwt>
<pdfrwt beam="2">  1       21 0.13500660E-01 0.18744170E+03</pdfrwt>
<totfact> 0.10263541E+05</totfact>
</mgrwt>
</event>
<event>
 4    2  0.3944631E+000  0.1844024E+03  0.7546771E-02  0.1163609E+00
         21   -1    0    0  503  502  0.00000000000E+00  0.00000000000E+00  0.57289833236E+03  0.57289833236E+03  0.00000000000E+00 0.  1.
         21   -1    0    0  501  503 -0.00000000000E+00 -0.00000000000E+00 -0.63284538618E+02  0.63284538618E+02  0.00000000000E+00 0.  1.
          6    1    1    2  501    0 -0.27616003048E+02  0.57555151731E+02  0.17554077943E+03  0.25459537380E+03  0.17300000000E+03 0.  1.
         -6    1    1    2    0  502  0.27616003048E+02 -0.57555151731E+02  0.33407301431E+03  0.38158749718E+03  0.17300000000E+03 0.  1.
<mgrwt>
<rscale>  2 0.18440238E+03</rscale>
<asrwt>0</asrwt>
<pdfrwt beam="1">  1       21 0.88138201E-01 0.18440238E+03</pdfrwt>
<pdfrwt beam="2">  1       21 0.97360833E-02 0.18440238E+03</pdfrwt>
<totfact> 0.94105813E+04</totfact>
</mgrwt>
</event>
<event>
 4    2  0.3944631E+000  0.2244820E+03  0.7546771E-02  0.1130585E+00
         21   -1    0    0  501  502  0.00000000000E+00  0.00000000000E+00  0.53308930917E+03  0.53308930917E+03  0.00000000000E+00 0.  1.
         21   -1    0    0  502  503 -0.00000000000E+00 -0.00000000000E+00 -0.98958425630E+02  0.98958425630E+02  0.00000000000E+00 0. -1.
          6    1    1    2  501    0 -0.10127537594E+03  0.10102701668E+03  0.28392895925E+03  0.36195001557E+03  0.17300000000E+03 0.  1.
         -6    1    1    2    0  503  0.10127537594E+03 -0.10102701668E+03  0.15020192428E+03  0.27009771922E+03  0.17300000000E+03 0.  1.
<mgrwt>
<rscale>  2 0.22448198E+03</rscale>
<asrwt>0</asrwt>
<pdfrwt beam="1">  1       21 0.82013739E-01 0.22448198E+03</pdfrwt>
<pdfrwt beam="2">  1       21 0.15224373E-01 0.22448198E+03</pdfrwt>
<totfact> 0.48877296E+04</totfact>
</mgrwt>
</event>
<event>
 4    2  0.3944631E+000  0.2097216E+03  0.7546771E-02  0.1141787E+00
         21   -1    0    0  501  502  0.00000000000E+00  0.00000000000E+00  0.13727783655E+03  0.13727783655E+03  0.00000000000E+00 0. -1.
         21   -1    0    0  502  503 -0.00000000000E+00 -0.00000000000E+00 -0.38958456425E+03  0.38958456425E+03  0.00000000000E+00 0.  1.
          6    1    1    2  501    0  0.11765870478E+03  0.14511210042E+02 -0.15137171612E+02  0.21026716337E+03  0.17300000000E+03 0. -1.
         -6    1    1    2    0  503 -0.11765870478E+03 -0.14511210042E+02 -0.23716955609E+03  0.31659523743E+03  0.17300000000E+03 0.  1.
<mgrwt>
<rscale>  2 0.20972159E+03</rscale>
<asrwt>0</asrwt>
<pdfrwt beam="1">  1       21 0.21119668E-01 0.20972159E+03</pdfrwt>
<pdfrwt beam="2">  1       21 0.59936085E-01 0.20972159E+03</pdfrwt>
<totfact> 0.53695903E+04</totfact>
</mgrwt>
</event>
<event>
 4    2  0.3944631E+000  0.2457005E+03  0.7546771E-02  0.1116053E+00
         21   -1    0    0  501  502  0.00000000000E+00  0.00000000000E+00  0.12658920396E+03  0.12658920396E+03  0.00000000000E+00 0.  1.
         21   -1    0    0  502  503 -0.00000000000E+00 -0.00000000000E+00 -0.47991985392E+03  0.47991985392E+03  0.00000000000E+00 0.  1.
          6    1    1    2  501    0  0.15152164316E+03 -0.86492398039E+02 -0.20077270788E+03  0.31729863456E+03  0.17300000000E+03 0.  1.
         -6    1    1    2    0  503 -0.15152164316E+03  0.86492398039E+02 -0.15255794208E+03  0.28921042332E+03  0.17300000000E+03 0.  1.
<mgrwt>
<rscale>  2 0.24570052E+03</rscale>
<asrwt>0</asrwt>
<pdfrwt beam="1">  1       21 0.19475262E-01 0.24570052E+03</pdfrwt>
<pdfrwt beam="2">  1       21 0.73833825E-01 0.24570052E+03</pdfrwt>
<totfact> 0.38926879E+04</totfact>
</mgrwt>
</event>
<event>
 4    2  0.3944631E+000  0.2599843E+03  0.7546771E-02  0.1107153E+00
         21   -1    0    0  501  502  0.00000000000E+00  0.00000000000E+00  0.84039821960E+03  0.84039821960E+03  0.00000000000E+00 0. -1.
         21   -1    0    0  502  503 -0.00000000000E+00 -0.00000000000E+00 -0.21436283193E+03  0.21436283193E+03  0.00000000000E+00 0. -1.
          6    1    1    2  501    0 -0.17328520277E+03  0.87378842997E+02  0.72988283714E+03  0.77480370395E+03  0.17300000000E+03 0. -1.
         -6    1    1    2    0  503  0.17328520277E+03 -0.87378842997E+02 -0.10384744946E+03  0.27995734758E+03  0.17300000000E+03 0. -1.
<mgrwt>
<rscale>  2 0.25998428E+03</rscale>
<asrwt>0</asrwt>
<pdfrwt beam="1">  1       21 0.12929203E+00 0.25998428E+03</pdfrwt>
<pdfrwt beam="2">  1       21 0.32978898E-01 0.25998428E+03</pdfrwt>
<totfact> 0.36878496E+03</totfact>
</mgrwt>
</event>
<event>
 4    2  0.3944631E+000  0.1918150E+03  0.7546771E-02  0.1156834E+00
         21   -1    0    0  501  502  0.00000000000E+00  0.00000000000E+00  0.60473218936E+02  0.60473218936E+02  0.00000000000E+00 0. -1.
         21   -1    0    0  502  503 -0.00000000000E+00 -0.00000000000E+00 -0.72710627479E+03  0.72710627479E+03  0.00000000000E+00 0. -1.
          6    1    1    2  501    0  0.45919705418E+02  0.68959349091E+02 -0.17421700597E+03  0.25912270518E+03  0.17300000000E+03 0. -1.
         -6    1    1    2    0  503 -0.45919705418E+02 -0.68959349091E+02 -0.49241604989E+03  0.52845678855E+03  0.17300000000E+03 0. -1.
<mgrwt>
<rscale>  2 0.19181504E+03</rscale>
<asrwt>0</asrwt>
<pdfrwt beam="1">  1       21 0.93035729E-02 0.19181504E+03</pdfrwt>
<pdfrwt beam="2">  1       21 0.11186249E+00 0.19181504E+03</pdfrwt>
<totfact> 0.57812333E+04</totfact>
</mgrwt>
</event>
<event>
 4    2  0.3944631E+000  0.1772058E+03  0.7546771E-02  0.1170535E+00
         21   -1    0    0  501  502  0.00000000000E+00  0.00000000000E+00  0.56769887954E+02  0.56769887954E+02  0.00000000000E+00 0. -1.
         21   -1    0    0  502  503 -0.00000000000E+00 -0.00000000000E+00 -0.99527954317E+03  0.99527954317E+03  0.00000000000E+00 0. -1.
          6    1    1    2  501    0  0.13306462002E+02 -0.35997475261E+02 -0.11865500202E+03  0.21326249005E+03  0.17300000000E+03 0. -1.
         -6    1    1    2    0  503 -0.13306462002E+02  0.35997475261E+02 -0.81985465319E+03  0.83878694108E+03  0.17300000000E+03 0. -1.
<mgrwt>
<rscale>  2 0.17720576E+03</rscale>
<asrwt>0</asrwt>
<pdfrwt beam="1">  1       21 0.87338306E-02 0.17720576E+03</pdfrwt>
<pdfrwt beam="2">  1       21 0.15311990E+00 0.17720576E+03</pdfrwt>
<totfact> 0.29435118E+04</totfact>
</mgrwt>
</event>
<event>
 4    2  0.3944631E+000  0.1939026E+03  0.7546771E-02  0.1154988E+00
         21   -1    0    0  503  502  0.00000000000E+00  0.00000000000E+00  0.92774049576E+02  0.92774049576E+02  0.00000000000E+00 0. -1.
         21   -1    0    0  501  503 -0.00000000000E+00 -0.00000000000E+00 -0.40539462746E+03  0.40539462746E+03  0.00000000000E+00 0.  1.
          6    1    1    2  501    0  0.84108675267E+02 -0.24391547672E+02 -0.15188253962E+03  0.24630575043E+03  0.17300000000E+03 0.  1.
         -6    1    1    2    0  502 -0.84108675267E+02  0.24391547672E+02 -0.16073803826E+03  0.25186292660E+03  0.17300000000E+03 0. -1.
<mgrwt>
<rscale>  2 0.19390260E+03</rscale>
<asrwt>0</asrwt>
<pdfrwt beam="1">  1       21 0.14272930E-01 0.19390260E+03</pdfrwt>
<pdfrwt beam="2">  1       21 0.62368406E-01 0.19390260E+03</pdfrwt>
<totfact> 0.10230629E+05</totfact>
</mgrwt>
</event>
<event>
 4    2  0.3944631E+000  0.2030232E+03  0.7546771E-02  0.1147213E+00
         21   -1    0    0  503  502  0.00000000000E+00  0.00000000000E+00  0.20886811054E+03  0.20886811054E+03  0.00000000000E+00 0.  1.
         21   -1    0    0  501  503 -0.00000000000E+00 -0.00000000000E+00 -0.29009409272E+03  0.29009409272E+03  0.00000000000E+00 0.  1.
          6    1    1    2  501    0 -0.53477932166E+02  0.91812515942E+02 -0.18168158282E+03  0.27244563650E+03  0.17300000000E+03 0.  1.
         -6    1    1    2    0  502  0.53477932166E+02 -0.91812515942E+02  0.10045560064E+03  0.22651656675E+03  0.17300000000E+03 0.  1.
<mgrwt>
<rscale>  2 0.20302322E+03</rscale>
<asrwt>0</asrwt>
<pdfrwt beam="1">  1       21 0.32133556E-01 0.20302322E+03</pdfrwt>
<pdfrwt beam="2">  1       21 0.44629860E-01 0.20302322E+03</pdfrwt>
<totfact> 0.44665835E+04</totfact>
</mgrwt>
</event>
<event>
 4    2  0.3944631E+000  0.1949022E+03  0.7546771E-02  0.1154113E+00
         21   -1    0    0  503  502  0.00000000000E+00  0.00000000000E+00  0.62348965884E+02  0.62348965884E+02  0.00000000000E+00 0.  1.
         21   -1    0    0  501  503 -0.00000000000E+00 -0.00000000000E+00 -0.16996348386E+04  0.16996348386E+04  0.00000000000E+00 0.  1.
          6    1    1    2  501    0  0.89661403842E+02  0.43233300943E+01 -0.15242803629E+04  0.15366904318E+04  0.17300000000E+03 0.  1.
         -6    1    1    2    0  502 -0.89661403842E+02 -0.43233300943E+01 -0.11300550983E+03  0.22529337268E+03  0.17300000000E+03 0.  1.
<mgrwt>
<rscale>  2 0.19490218E+03</rscale>
<asrwt>0</asrwt>
<pdfrwt beam="1">  1       21 0.95921474E-02 0.19490218E+03</pdfrwt>
<pdfrwt beam="2">  1       21 0.26148232E+00 0.19490218E+03</pdfrwt>
<totfact> 0.49628817E+03</totfact>
</mgrwt>
</event>
<event>
 4    2  0.3944631E+000  0.1901492E+03  0.7546771E-02  0.1158327E+00
         21   -1    0    0  503  502  0.00000000000E+00  0.00000000000E+00  0.10819693109E+03  0.10819693109E+03  0.00000000000E+00 0.  1.
         21   -1    0    0  501  503 -0.00000000000E+00 -0.00000000000E+00 -0.36329859831E+03  0.36329859831E+03  0.00000000000E+00 0.  1.
          6    1    1    2  501    0 -0.78915776676E+02  0.38763977898E-01 -0.19429891692E+03  0.27186167517E+03  0.17300000000E+03 0.  1.
         -6    1    1    2    0  502  0.78915776676E+02 -0.38763977898E-01 -0.60802750295E+02  0.19963385423E+03  0.17300000000E+03 0.  1.
<mgrwt>
<rscale>  2 0.19014916E+03</rscale>
<asrwt>0</asrwt>
<pdfrwt beam="1">  1       21 0.16645682E-01 0.19014916E+03</pdfrwt>
<pdfrwt beam="2">  1       21 0.55892092E-01 0.19014916E+03</pdfrwt>
<totfact> 0.97857413E+04</totfact>
</mgrwt>
</event>
<event>
 4    2  0.3944631E+000  0.3069766E+03  0.7546771E-02  0.1081804E+00
         21   -1    0    0  503  502  0.00000000000E+00  0.00000000000E+00  0.20109390681E+03  0.20109390681E+03  0.00000000000E+00 0. -1.
         21   -1    0    0  501  503 -0.00000000000E+00 -0.00000000000E+00 -0.94214106510E+03  0.94214106510E+03  0.00000000000E+00 0.  1.
          6    1    1    2  501    0 -0.25095636455E+03 -0.36421884664E+02 -0.77577234102E+03  0.83430053080E+03  0.17300000000E+03 0.  1.
         -6    1    1    2    0  502  0.25095636455E+03  0.36421884664E+02  0.34725182729E+02  0.30893444111E+03  0.17300000000E+03 0. -1.
<mgrwt>
<rscale>  2 0.30697663E+03</rscale>
<asrwt>0</asrwt>
<pdfrwt beam="1">  1       21 0.30937524E-01 0.30697663E+03</pdfrwt>
<pdfrwt beam="2">  1       21 0.14494478E+00 0.30697663E+03</pdfrwt>
<totfact> 0.30233832E+03</totfact>
</mgrwt>
</event>
<event>
 4    2  0.3944631E+000  0.1845561E+03  0.7546771E-02  0.1163465E+00
         21   -1    0    0  503  502  0.00000000000E+00  0.00000000000E+00  0.25253380657E+03  0.25253380657E+03  0.00000000000E+00 0. -1.
         21   -1    0    0  501  503 -0.00000000000E+00 -0.00000000000E+00 -0.48292194035E+03  0.48292194035E+03  0.00000000000E+00 0. -1.
          6    1    1    2  501    0 -0.48128938283E+02 -0.42609273705E+02 -0.42737464875E+03  0.46552125118E+03  0.17300000000E+03 0. -1.
         -6    1    1    2    0  502  0.48128938283E+02  0.42609273705E+02  0.19698651498E+03  0.26993449574E+03  0.17300000000E+03 0. -1.
<mgrwt>
<rscale>  2 0.18455608E+03</rscale>
<asrwt>0</asrwt>
<pdfrwt beam="1">  1       21 0.38851356E-01 0.18455608E+03</pdfrwt>
<pdfrwt beam="2">  1       21 0.74295682E-01 0.18455608E+03</pdfrwt>
<totfact> 0.10430096E+04</totfact>
</mgrwt>
</event>
<event>
 4    2  0.3944631E+000  0.2399453E+03  0.7546771E-02  0.1119829E+00
         21   -1    0    0  501  502  0.00000000000E+00  0.00000000000E+00  0.19668140922E+03  0.19668140922E+03  0.00000000000E+00 0.  1.
         21   -1    0    0  502  503 -0.00000000000E+00 -0.00000000000E+00 -0.10394896193E+04  0.10394896193E+04  0.00000000000E+00 0.  1.
          6    1    1    2  501    0 -0.38301415241E+02  0.16179537032E+03  0.10247381604E+03  0.26091114051E+03  0.17300000000E+03 0.  1.
         -6    1    1    2    0  503  0.38301415241E+02 -0.16179537032E+03 -0.94528202615E+03  0.97525988805E+03  0.17300000000E+03 0.  1.
<mgrwt>
<rscale>  2 0.23994529E+03</rscale>
<asrwt>0</asrwt>
<pdfrwt beam="1">  1       21 0.30258678E-01 0.23994529E+03</pdfrwt>
<pdfrwt beam="2">  1       21 0.15992148E+00 0.23994529E+03</pdfrwt>
<totfact> 0.25354799E+03</totfact>
</mgrwt>
</event>
<event>
 4    2  0.3944631E+000  0.2331923E+03  0.7546771E-02  0.1124413E+00
         21   -1    0    0  503  502  0.00000000000E+00  0.00000000000E+00  0.27820922509E+03  0.27820922509E+03  0.00000000000E+00 0.  1.
         21   -1    0    0  501  503 -0.00000000000E+00 -0.00000000000E+00 -0.20254311227E+03  0.20254311227E+03  0.00000000000E+00 0. -1.
          6    1    1    2  501    0 -0.10623783733E+03  0.11473084470E+03  0.82786099129E+02  0.24745137505E+03  0.17300000000E+03 0.  1.
         -6    1    1    2    0  502  0.10623783733E+03 -0.11473084470E+03 -0.71199863103E+01  0.23330096230E+03  0.17300000000E+03 0.  1.
<mgrwt>
<rscale>  2 0.23319229E+03</rscale>
<asrwt>0</asrwt>
<pdfrwt beam="1">  1       21 0.42801419E-01 0.23319229E+03</pdfrwt>
<pdfrwt beam="2">  1       21 0.31160479E-01 0.23319229E+03</pdfrwt>
<totfact> 0.50993553E+04</totfact>
</mgrwt>
</event>
<event>
 4    2  0.3944631E+000  0.3237248E+03  0.7546771E-02  0.1073948E+00
         21   -1    0    0  501  502  0.00000000000E+00  0.00000000000E+00  0.70912699262E+02  0.70912699262E+02  0.00000000000E+00 0.  1.
         21   -1    0    0  502  503 -0.00000000000E+00 -0.00000000000E+00 -0.15037548141E+04  0.15037548141E+04  0.00000000000E+00 0.  1.
          6    1    1    2  501    0  0.20747377666E+03  0.17839109604E+03 -0.81977554040E+03  0.88137942328E+03  0.17300000000E+03 0.  1.
         -6    1    1    2    0  503 -0.20747377666E+03 -0.17839109604E+03 -0.61306657442E+03  0.69328809006E+03  0.17300000000E+03 0.  1.
<mgrwt>
<rscale>  2 0.32372481E+03</rscale>
<asrwt>0</asrwt>
<pdfrwt beam="1">  1       21 0.10909647E-01 0.32372481E+03</pdfrwt>
<pdfrwt beam="2">  1       21 0.23134687E+00 0.32372481E+03</pdfrwt>
<totfact> 0.54062533E+03</totfact>
</mgrwt>
</event>
<event>
 4    2  0.3944631E+000  0.1774568E+03  0.7546771E-02  0.1170287E+00
         21   -1    0    0  503  502  0.00000000000E+00  0.00000000000E+00  0.38038033673E+02  0.38038033673E+02  0.00000000000E+00 0.  1.
         21   -1    0    0  501  503 -0.00000000000E+00 -0.00000000000E+00 -0.82952673432E+03  0.82952673432E+03  0.00000000000E+00 0.  1.
          6    1    1    2  501    0 -0.27096754848E+02  0.28769565779E+02 -0.37641635620E+03  0.41614924637E+03  0.17300000000E+03 0. -1.
         -6    1    1    2    0  502  0.27096754848E+02 -0.28769565779E+02 -0.41507234445E+03  0.45141552163E+03  0.17300000000E+03 0. -1.
<mgrwt>
<rscale>  2 0.17745682E+03</rscale>
<asrwt>0</asrwt>
<pdfrwt beam="1">  1       21 0.58520052E-02 0.17745682E+03</pdfrwt>
<pdfrwt beam="2">  1       21 0.12761950E+00 0.17745682E+03</pdfrwt>
<totfact> 0.93832172E+04</totfact>
</mgrwt>
</event>
<event>
 4    2  0.3944631E+000  0.1943724E+03  0.7546771E-02  0.1154576E+00
         21   -1    0    0  501  502  0.00000000000E+00  0.00000000000E+00  0.23415764700E+02  0.23415764700E+02  0.00000000000E+00 0.  1.
         21   -1    0    0  502  503 -0.00000000000E+00 -0.00000000000E+00 -0.18592320885E+04  0.18592320885E+04  0.00000000000E+00 0.  1.
          6    1    1    2  501    0  0.85073062334E+02  0.24782881030E+02 -0.57566847419E+03  0.60759757184E+03  0.17300000000E+03 0.  1.
         -6    1    1    2    0  503 -0.85073062334E+02 -0.24782881030E+02 -0.12601478496E+04  0.12750502814E+04  0.17300000000E+03 0.  1.
<mgrwt>
<rscale>  2 0.19437237E+03</rscale>
<asrwt>0</asrwt>
<pdfrwt beam="1">  1       21 0.36024254E-02 0.19437237E+03</pdfrwt>
<pdfrwt beam="2">  1       21 0.28603570E+00 0.19437237E+03</pdfrwt>
<totfact> 0.19143510E+04</totfact>
</mgrwt>
</event>
<event>
 4    2  0.3944631E+000  0.3029318E+03  0.7546771E-02  0.1083784E+00
         21   -1    0    0  503  502  0.00000000000E+00  0.00000000000E+00  0.69655452727E+03  0.69655452727E+03  0.00000000000E+00 0.  1.
         21   -1    0    0  501  503 -0.00000000000E+00 -0.00000000000E+00 -0.13214462231E+03  0.13214462231E+03  0.00000000000E+00 0.  1.
          6    1    1    2  501    0  0.14226965096E+03  0.20395600111E+03  0.25942423938E+03  0.39883410079E+03  0.17300000000E+03 0.  1.
         -6    1    1    2    0  502 -0.14226965096E+03 -0.20395600111E+03  0.30498566557E+03  0.42986504880E+03  0.17300000000E+03 0.  1.
<mgrwt>
<rscale>  2 0.30293185E+03</rscale>
<asrwt>0</asrwt>
<pdfrwt beam="1">  1       21 0.10716223E+00 0.30293185E+03</pdfrwt>
<pdfrwt beam="2">  1       21 0.20329942E-01 0.30293185E+03</pdfrwt>
<totfact> 0.14672297E+04</totfact>
</mgrwt>
</event>
<event>
 4    2  0.3944631E+000  0.2027447E+03  0.7546771E-02  0.1147444E+00
         21   -1    0    0  503  502  0.00000000000E+00  0.00000000000E+00  0.15541405378E+03  0.15541405378E+03  0.00000000000E+00 0. -1.
         21   -1    0    0  501  503 -0.00000000000E+00 -0.00000000000E+00 -0.50975641119E+03  0.50975641119E+03  0.00000000000E+00 0. -1.
          6    1    1    2  501    0  0.10314082222E+03  0.23202681576E+02 -0.40786770075E+03  0.45547936831E+03  0.17300000000E+03 0. -1.
         -6    1    1    2    0  502 -0.10314082222E+03 -0.23202681576E+02  0.53525343339E+02  0.20969109666E+03  0.17300000000E+03 0. -1.
<mgrwt>
<rscale>  2 0.20274465E+03</rscale>
<asrwt>0</asrwt>
<pdfrwt beam="1">  1       21 0.23909854E-01 0.20274465E+03</pdfrwt>
<pdfrwt beam="2">  1       21 0.78424063E-01 0.20274465E+03</pdfrwt>
<totfact> 0.23579087E+04</totfact>
</mgrwt>
</event>
<event>
 4    2  0.3944631E+000  0.3445911E+03  0.7546771E-02  0.1064857E+00
         21   -1    0    0  501  502  0.00000000000E+00  0.00000000000E+00  0.32026972491E+03  0.32026972491E+03  0.00000000000E+00 0. -1.
         21   -1    0    0  502  503 -0.00000000000E+00 -0.00000000000E+00 -0.37100098359E+03  0.37100098359E+03  0.00000000000E+00 0. -1.
          6    1    1    2  501    0  0.29797020160E+03 -0.52719659386E+01 -0.16547061929E+02  0.34498817360E+03  0.17300000000E+03 0. -1.
         -6    1    1    2    0  503 -0.29797020160E+03  0.52719659386E+01 -0.34184196757E+02  0.34628253490E+03  0.17300000000E+03 0. -1.
<mgrwt>
<rscale>  2 0.34459111E+03</rscale>
<asrwt>0</asrwt>
<pdfrwt beam="1">  1       21 0.49272265E-01 0.34459111E+03</pdfrwt>
<pdfrwt beam="2">  1       21 0.57077074E-01 0.34459111E+03</pdfrwt>
<totfact> 0.10475403E+04</totfact>
</mgrwt>
</event>
<event>
 4    2  0.3944631E+000  0.1872494E+03  0.7546771E-02  0.1160966E+00
         21   -1    0    0  503  502  0.00000000000E+00  0.00000000000E+00  0.17006263437E+03  0.17006263437E+03  0.00000000000E+00 0.  1.
         21   -1    0    0  501  503 -0.00000000000E+00 -0.00000000000E+00 -0.45986821328E+03  0.45986821328E+03  0.00000000000E+00 0.  1.
          6    1    1    2  501    0  0.56846384583E+02  0.43610004321E+02 -0.37884156832E+03  0.42259114733E+03  0.17300000000E+03 0.  1.
         -6    1    1    2    0  502 -0.56846384583E+02 -0.43610004321E+02  0.89035989411E+02  0.20733970032E+03  0.17300000000E+03 0.  1.
<mgrwt>
<rscale>  2 0.18724942E+03</rscale>
<asrwt>0</asrwt>
<pdfrwt beam="1">  1       21 0.26163482E-01 0.18724942E+03</pdfrwt>
<pdfrwt beam="2">  1       21 0.70748955E-01 0.18724942E+03</pdfrwt>
<totfact> 0.25205579E+04</totfact>
</mgrwt>
</event>
<event>
 4    2  0.3944631E+000  0.1873370E+03  0.7546771E-02  0.1160885E+00
         21   -1    0    0  503  502  0.00000000000E+00  0.00000000000E+00  0.14259228289E+03  0.14259228289E+03  0.00000000000E+00 0. -1.
         21   -1    0    0  501  503 -0.00000000000E+00 -0.00000000000E+00 -0.29382902104E+03  0.29382902104E+03  0.00000000000E+00 0. -1.
          6    1    1    2  501    0  0.50461969164E+02 -0.51183461440E+02  0.12307741460E+02  0.18774087876E+03  0.17300000000E+03 0. -1.
         -6    1    1    2    0  502 -0.50461969164E+02  0.51183461440E+02 -0.16354447961E+03  0.24868042518E+03  0.17300000000E+03 0. -1.
<mgrwt>
<rscale>  2 0.18733701E+03</rscale>
<asrwt>0</asrwt>
<pdfrwt beam="1">  1       21 0.21937275E-01 0.18733701E+03</pdfrwt>
<pdfrwt beam="2">  1       21 0.45204464E-01 0.18733701E+03</pdfrwt>
<totfact> 0.91300441E+04</totfact>
</mgrwt>
</event>
<event>
 4    2  0.3944631E+000  0.1930871E+03  0.7546771E-02  0.1155706E+00
         21   -1    0    0  503  502  0.00000000000E+00  0.00000000000E+00  0.31130918476E+02  0.31130918476E+02  0.00000000000E+00 0.  1.
         21   -1    0    0  501  503 -0.00000000000E+00 -0.00000000000E+00 -0.19701226151E+04  0.19701226151E+04  0.00000000000E+00 0.  1.
          6    1    1    2  501    0  0.27647997668E+01 -0.85708622123E+02 -0.15960795093E+04  0.16077165210E+04  0.17300000000E+03 0.  1.
         -6    1    1    2    0  502 -0.27647997668E+01  0.85708622123E+02 -0.34291218738E+03  0.39353701259E+03  0.17300000000E+03 0.  1.
<mgrwt>
<rscale>  2 0.19308706E+03</rscale>
<asrwt>0</asrwt>
<pdfrwt beam="1">  1       21 0.47893711E-02 0.19308706E+03</pdfrwt>
<pdfrwt beam="2">  1       21 0.30309585E+00 0.19308706E+03</pdfrwt>
<totfact> 0.94745826E+03</totfact>
</mgrwt>
</event>
<event>
 4    2  0.3944631E+000  0.2655358E+03  0.7546771E-02  0.1103862E+00
         21   -1    0    0  503  502  0.00000000000E+00  0.00000000000E+00  0.68316892188E+02  0.68316892188E+02  0.00000000000E+00 0.  1.
         21   -1    0    0  501  503 -0.00000000000E+00 -0.00000000000E+00 -0.10997205711E+04  0.10997205711E+04  0.00000000000E+00 0.  1.
          6    1    1    2  501    0  0.14287325598E+03  0.14201235175E+03 -0.37087378100E+03  0.45613225797E+03  0.17300000000E+03 0.  1.
         -6    1    1    2    0  502 -0.14287325598E+03 -0.14201235175E+03 -0.66052989789E+03  0.71190520530E+03  0.17300000000E+03 0.  1.
<mgrwt>
<rscale>  2 0.26553583E+03</rscale>
<asrwt>0</asrwt>
<pdfrwt beam="1">  1       21 0.10510291E-01 0.26553583E+03</pdfrwt>
<pdfrwt beam="2">  1       21 0.16918777E+00 0.26553583E+03</pdfrwt>
<totfact> 0.15329684E+04</totfact>
</mgrwt>
</event>
<event>
 4    2  0.3944631E+000  0.2372489E+03  0.7546771E-02  0.1121639E+00
         21   -1    0    0  501  502  0.00000000000E+00  0.00000000000E+00  0.83981274425E+02  0.83981274425E+02  0.00000000000E+00 0.  1.
         21   -1    0    0  502  503 -0.00000000000E+00 -0.00000000000E+00 -0.80951131277E+03  0.80951131277E+03  0.00000000000E+00 0. -1.
          6    1    1    2  501    0  0.13631838601E+03  0.88178006899E+02 -0.17745859735E+03  0.29627456360E+03  0.17300000000E+03 0.  1.
         -6    1    1    2    0  503 -0.13631838601E+03 -0.88178006899E+02 -0.54807144100E+03  0.59721802359E+03  0.17300000000E+03 0. -1.
<mgrwt>
<rscale>  2 0.23724895E+03</rscale>
<asrwt>0</asrwt>
<pdfrwt beam="1">  1       21 0.12920196E-01 0.23724895E+03</pdfrwt>
<pdfrwt beam="2">  1       21 0.12454021E+00 0.23724895E+03</pdfrwt>
<totfact> 0.24112680E+04</totfact>
</mgrwt>
</event>
<event>
 4    2  0.3944631E+000  0.1909682E+03  0.7546771E-02  0.1157591E+00
         21   -1    0    0  501  502  0.00000000000E+00  0.00000000000E+00  0.11523253130E+03  0.11523253130E+03  0.00000000000E+00 0. -1.
         21   -1    0    0  502  503 -0.00000000000E+00 -0.00000000000E+00 -0.40251390242E+03  0.40251390242E+03  0.00000000000E+00 0.  1.
          6    1    1    2  501    0 -0.10655460671E+02  0.80164281745E+02 -0.23958313537E+02  0.19246519607E+03  0.17300000000E+03 0. -1.
         -6    1    1    2    0  503  0.10655460671E+02 -0.80164281745E+02 -0.26332305759E+03  0.32528123765E+03  0.17300000000E+03 0.  1.
<mgrwt>
<rscale>  2 0.19096819E+03</rscale>
<asrwt>0</asrwt>
<pdfrwt beam="1">  1       21 0.17728082E-01 0.19096819E+03</pdfrwt>
<pdfrwt beam="2">  1       21 0.61925215E-01 0.19096819E+03</pdfrwt>
<totfact> 0.69959402E+04</totfact>
</mgrwt>
</event>
<event>
 4    2  0.3944631E+000  0.1828106E+03  0.7546771E-02  0.1165110E+00
         21   -1    0    0  503  502  0.00000000000E+00  0.00000000000E+00  0.16757887764E+04  0.16757887764E+04  0.00000000000E+00 0.  1.
         21   -1    0    0  501  503 -0.00000000000E+00 -0.00000000000E+00 -0.85113203996E+02  0.85113203996E+02  0.00000000000E+00 0.  1.
          6    1    1    2  501    0  0.30389660028E+02  0.50667255270E+02  0.24909256010E+02  0.18449979195E+03  0.17300000000E+03 0.  1.
         -6    1    1    2    0  502 -0.30389660028E+02 -0.50667255270E+02  0.15657663164E+04  0.15764021884E+04  0.17300000000E+03 0.  1.
<mgrwt>
<rscale>  2 0.18281056E+03</rscale>
<asrwt>0</asrwt>
<pdfrwt beam="1">  1       21 0.25781363E+00 0.18281056E+03</pdfrwt>
<pdfrwt beam="2">  1       21 0.13094340E-01 0.18281056E+03</pdfrwt>
<totfact> 0.30364099E+03</totfact>
</mgrwt>
</event>
<event>
 4    2  0.3944631E+000  0.2185642E+03  0.7546771E-02  0.1134958E+00
         21   -1    0    0  503  502  0.00000000000E+00  0.00000000000E+00  0.15588588105E+03  0.15588588105E+03  0.00000000000E+00 0.  1.
         21   -1    0    0  501  503 -0.00000000000E+00 -0.00000000000E+00 -0.32821144101E+03  0.32821144101E+03  0.00000000000E+00 0. -1.
          6    1    1    2  501    0 -0.12876556811E+03  0.35506943978E+02 -0.14849722942E+03  0.26423803993E+03  0.17300000000E+03 0.  1.
         -6    1    1    2    0  502  0.12876556811E+03 -0.35506943978E+02 -0.23828330539E+02  0.21985928213E+03  0.17300000000E+03 0.  1.
<mgrwt>
<rscale>  2 0.21856421E+03</rscale>
<asrwt>0</asrwt>
<pdfrwt beam="1">  1       21 0.23982444E-01 0.21856421E+03</pdfrwt>
<pdfrwt beam="2">  1       21 0.50494067E-01 0.21856421E+03</pdfrwt>
<totfact> 0.60485979E+04</totfact>
</mgrwt>
</event>
<event>
 4    2  0.3944631E+000  0.1738234E+03  0.7546771E-02  0.1173918E+00
         21   -1    0    0  501  502  0.00000000000E+00  0.00000000000E+00  0.52825253392E+03  0.52825253392E+03  0.00000000000E+00 0. -1.
         21   -1    0    0  502  503 -0.00000000000E+00 -0.00000000000E+00 -0.20823993850E+03  0.20823993850E+03  0.00000000000E+00 0. -1.
          6    1    1    2  501    0 -0.12126914488E+02  0.11769054410E+02  0.47362807391E+03  0.50451771534E+03  0.17300000000E+03 0. -1.
         -6    1    1    2    0  503  0.12126914488E+02 -0.11769054410E+02 -0.15361547849E+03  0.23197475709E+03  0.17300000000E+03 0. -1.
<mgrwt>
<rscale>  2 0.17382340E+03</rscale>
<asrwt>0</asrwt>
<pdfrwt beam="1">  1       21 0.81269620E-01 0.17382340E+03</pdfrwt>
<pdfrwt beam="2">  1       21 0.32036914E-01 0.17382340E+03</pdfrwt>
<totfact> 0.12597065E+04</totfact>
</mgrwt>
</event>
<event>
 4    2  0.3944631E+000  0.2119264E+03  0.7546771E-02  0.1140049E+00
         21   -1    0    0  501  502  0.00000000000E+00  0.00000000000E+00  0.84017708125E+02  0.84017708125E+02  0.00000000000E+00 0.  1.
         21   -1    0    0  502  503 -0.00000000000E+00 -0.00000000000E+00 -0.55690939803E+03  0.55690939803E+03  0.00000000000E+00 0.  1.
          6    1    1    2  501    0 -0.12115632075E+03 -0.17463123978E+02 -0.30063824052E+03  0.36782627206E+03  0.17300000000E+03 0.  1.
         -6    1    1    2    0  503  0.12115632075E+03  0.17463123978E+02 -0.17225344938E+03  0.27310083409E+03  0.17300000000E+03 0.  1.
<mgrwt>
<rscale>  2 0.21192644E+03</rscale>
<asrwt>0</asrwt>
<pdfrwt beam="1">  1       21 0.12925801E-01 0.21192644E+03</pdfrwt>
<pdfrwt beam="2">  1       21 0.85678369E-01 0.21192644E+03</pdfrwt>
<totfact> 0.59878106E+04</totfact>
</mgrwt>
</event>
<event>
 4    2  0.3944631E+000  0.1781159E+03  0.7546771E-02  0.1169639E+00
         21   -1    0    0  503  502  0.00000000000E+00  0.00000000000E+00  0.29564813517E+03  0.29564813517E+03  0.00000000000E+00 0.  1.
         21   -1    0    0  501  503 -0.00000000000E+00 -0.00000000000E+00 -0.20255161222E+03  0.20255161222E+03  0.00000000000E+00 0.  1.
          6    1    1    2  501    0  0.73801032037E+01  0.41735156467E+02 -0.12426615293E+03  0.21718049169E+03  0.17300000000E+03 0.  1.
         -6    1    1    2    0  502 -0.73801032037E+01 -0.41735156467E+02  0.21736267587E+03  0.28101925570E+03  0.17300000000E+03 0.  1.
<mgrwt>
<rscale>  2 0.17811594E+03</rscale>
<asrwt>0</asrwt>
<pdfrwt beam="1">  1       21 0.45484328E-01 0.17811594E+03</pdfrwt>
<pdfrwt beam="2">  1       21 0.31161787E-01 0.17811594E+03</pdfrwt>
<totfact> 0.46187088E+04</totfact>
</mgrwt>
</event>
<event>
 4    2  0.3944631E+000  0.1836844E+03  0.7546771E-02  0.1164284E+00
         21   -1    0    0  503  502  0.00000000000E+00  0.00000000000E+00  0.13396718109E+03  0.13396718109E+03  0.00000000000E+00 0.  1.
         21   -1    0    0  501  503 -0.00000000000E+00 -0.00000000000E+00 -0.26926505764E+03  0.26926505764E+03  0.00000000000E+00 0.  1.
          6    1    1    2  501    0  0.53361598539E+02 -0.31040071558E+02 -0.16378303050E+02  0.18441310976E+03  0.17300000000E+03 0.  1.
         -6    1    1    2    0  502 -0.53361598539E+02  0.31040071558E+02 -0.11891957350E+03  0.21881912897E+03  0.17300000000E+03 0.  1.
<mgrwt>
<rscale>  2 0.18368437E+03</rscale>
<asrwt>0</asrwt>
<pdfrwt beam="1">  1       21 0.20610336E-01 0.18368437E+03</pdfrwt>
<pdfrwt beam="2">  1       21 0.41425392E-01 0.18368437E+03</pdfrwt>
<totfact> 0.12282267E+05</totfact>
</mgrwt>
</event>
<event>
 4    2  0.3944631E+000  0.1971755E+03  0.7546771E-02  0.1152144E+00
         21   -1    0    0  503  502  0.00000000000E+00  0.00000000000E+00  0.29817697758E+02  0.29817697758E+02  0.00000000000E+00 0. -1.
         21   -1    0    0  501  503 -0.00000000000E+00 -0.00000000000E+00 -0.24555075733E+04  0.24555075733E+04  0.00000000000E+00 0.  1.
          6    1    1    2  501    0  0.92421549572E+02  0.20184789597E+02 -0.20638692898E+04  0.20732666528E+04  0.17300000000E+03 0.  1.
         -6    1    1    2    0  502 -0.92421549572E+02 -0.20184789597E+02 -0.36182058581E+03  0.41205861825E+03  0.17300000000E+03 0. -1.
<mgrwt>
<rscale>  2 0.19717548E+03</rscale>
<asrwt>0</asrwt>
<pdfrwt beam="1">  1       21 0.45873354E-02 0.19717548E+03</pdfrwt>
<pdfrwt beam="2">  1       21 0.37777062E+00 0.19717548E+03</pdfrwt>
<totfact> 0.36899696E+03</totfact>
</mgrwt>
</event>
<event>
 4    2  0.3944631E+000  0.1820908E+03  0.7546771E-02  0.1165795E+00
         21   -1    0    0  503  502  0.00000000000E+00  0.00000000000E+00  0.63754757736E+03  0.63754757736E+03  0.00000000000E+00 0.  1.
         21   -1    0    0  501  503 -0.00000000000E+00 -0.00000000000E+00 -0.52383261056E+02  0.52383261056E+02  0.00000000000E+00 0.  1.
          6    1    1    2  501    0 -0.56770168130E+02 -0.22837568559E+01  0.26335372019E+03  0.32017534176E+03  0.17300000000E+03 0.  1.
         -6    1    1    2    0  502  0.56770168130E+02  0.22837568559E+01  0.32181059611E+03  0.36975549665E+03  0.17300000000E+03 0.  1.
<mgrwt>
<rscale>  2 0.18209082E+03</rscale>
<asrwt>0</asrwt>
<pdfrwt beam="1">  1       21 0.98084237E-01 0.18209082E+03</pdfrwt>
<pdfrwt beam="2">  1       21 0.80589637E-02 0.18209082E+03</pdfrwt>
<totfact> 0.10225201E+05</totfact>
</mgrwt>
</event>
<event>
 4    2  0.3944631E+000  0.1863937E+03  0.7546771E-02  0.1161755E+00
         21   -1    0    0  501  502  0.00000000000E+00  0.00000000000E+00  0.21681928952E+03  0.21681928952E+03  0.00000000000E+00 0. -1.
         21   -1    0    0  502  503 -0.00000000000E+00 -0.00000000000E+00 -0.17044642099E+03  0.17044642099E+03  0.00000000000E+00 0.  1.
          6    1    1    2  501    0  0.69282922791E+02  0.36739460364E+01 -0.24201859025E+02  0.18795837638E+03  0.17300000000E+03 0. -1.
         -6    1    1    2    0  503 -0.69282922791E+02 -0.36739460364E+01  0.70574727552E+02  0.19930733413E+03  0.17300000000E+03 0.  1.
<mgrwt>
<rscale>  2 0.18639373E+03</rscale>
<asrwt>0</asrwt>
<pdfrwt beam="1">  1       21 0.33356814E-01 0.18639373E+03</pdfrwt>
<pdfrwt beam="2">  1       21 0.26222526E-01 0.18639373E+03</pdfrwt>
<totfact> 0.11991087E+05</totfact>
</mgrwt>
</event>
<event>
 4    2  0.3944631E+000  0.2268458E+03  0.7546771E-02  0.1128880E+00
         21   -1    0    0  503  502  0.00000000000E+00  0.00000000000E+00  0.33670861603E+02  0.33670861603E+02  0.00000000000E+00 0. -1.
         21   -1    0    0  501  503 -0.00000000000E+00 -0.00000000000E+00 -0.15345690089E+04  0.15345690089E+04  0.00000000000E+00 0.  1.
          6    1    1    2  501    0  0.52795552098E+01 -0.14663608911E+03 -0.70031248769E+03  0.73613626235E+03  0.17300000000E+03 0. -1.
         -6    1    1    2    0  502 -0.52795552098E+01  0.14663608911E+03 -0.80058565964E+03  0.83210360818E+03  0.17300000000E+03 0. -1.
<mgrwt>
<rscale>  2 0.22684580E+03</rscale>
<asrwt>0</asrwt>
<pdfrwt beam="1">  1       21 0.51801334E-02 0.22684580E+03</pdfrwt>
<pdfrwt beam="2">  1       21 0.23608750E+00 0.22684580E+03</pdfrwt>
<totfact> 0.19816434E+04</totfact>
</mgrwt>
</event>
<event>
 4    2  0.3944631E+000  0.1975658E+03  0.7546771E-02  0.1151809E+00
         21   -1    0    0  501  502  0.00000000000E+00  0.00000000000E+00  0.11636522302E+03  0.11636522302E+03  0.00000000000E+00 0. -1.
         21   -1    0    0  502  503 -0.00000000000E+00 -0.00000000000E+00 -0.34997235456E+03  0.34997235456E+03  0.00000000000E+00 0. -1.
          6    1    1    2  501    0 -0.29039837715E+02 -0.90884142509E+02 -0.16433597228E+03  0.25697967102E+03  0.17300000000E+03 0. -1.
         -6    1    1    2    0  503  0.29039837715E+02  0.90884142509E+02 -0.69271159251E+02  0.20935790656E+03  0.17300000000E+03 0. -1.
<mgrwt>
<rscale>  2 0.19756579E+03</rscale>
<asrwt>0</asrwt>
<pdfrwt beam="1">  1       21 0.17902342E-01 0.19756579E+03</pdfrwt>
<pdfrwt beam="2">  1       21 0.53841901E-01 0.19756579E+03</pdfrwt>
<totfact> 0.92337708E+04</totfact>
</mgrwt>
</event>
<event>
 4    2  0.3944631E+000  0.1802627E+03  0.7546771E-02  0.1167549E+00
         21   -1    0    0  503  502  0.00000000000E+00  0.00000000000E+00  0.79417598552E+02  0.79417598552E+02  0.00000000000E+00 0.  1.
         21   -1    0    0  501  503 -0.00000000000E+00 -0.00000000000E+00 -0.55929532349E+03  0.55929532349E+03  0.00000000000E+00 0.  1.
          6    1    1    2  501    0  0.50256591800E+02 -0.63178790620E+01 -0.40539926567E+03  0.44367015362E+03  0.17300000000E+03 0.  1.
         -6    1    1    2    0  502 -0.50256591800E+02  0.63178790620E+01 -0.74478459268E+02  0.19504276841E+03  0.17300000000E+03 0.  1.
<mgrwt>
<rscale>  2 0.18026270E+03</rscale>
<asrwt>0</asrwt>
<pdfrwt beam="1">  1       21 0.12218092E-01 0.18026270E+03</pdfrwt>
<pdfrwt beam="2">  1       21 0.86045436E-01 0.18026270E+03</pdfrwt>
<totfact> 0.66575741E+04</totfact>
</mgrwt>
</event>
<event>
 4    2  0.3944631E+000  0.2601630E+03  0.7546771E-02  0.1107045E+00
         21   -1    0    0  503  502  0.00000000000E+00  0.00000000000E+00  0.99849347131E+02  0.99849347131E+02  0.00000000000E+00 0.  1.
         21   -1    0    0  501  503 -0.00000000000E+00 -0.00000000000E+00 -0.84020174281E+03  0.84020174281E+03  0.00000000000E+00 0.  1.
          6    1    1    2  501    0 -0.16925884304E+03 -0.95431718280E+02 -0.57677740130E+03  0.63273765452E+03  0.17300000000E+03 0.  1.
         -6    1    1    2    0  502  0.16925884304E+03  0.95431718280E+02 -0.16357499438E+03  0.30731343542E+03  0.17300000000E+03 0.  1.
<mgrwt>
<rscale>  2 0.26016297E+03</rscale>
<asrwt>0</asrwt>
<pdfrwt beam="1">  1       21 0.15361438E-01 0.26016297E+03</pdfrwt>
<pdfrwt beam="2">  1       21 0.12926181E+00 0.26016297E+03</pdfrwt>
<totfact> 0.15818117E+04</totfact>
</mgrwt>
</event>
<event>
 4    2  0.3944631E+000  0.2112340E+03  0.7546771E-02  0.1140593E+00
         21   -1    0    0  503  502  0.00000000000E+00  0.00000000000E+00  0.64407012063E+02  0.64407012063E+02  0.00000000000E+00 0. -1.
         21   -1    0    0  501  503 -0.00000000000E+00 -0.00000000000E+00 -0.16448325819E+04  0.16448325819E+04  0.00000000000E+00 0. -1.
          6    1    1    2  501    0 -0.88878480210E+02  0.82410076003E+02 -0.14404066497E+04  0.14558128731E+04  0.17300000000E+03 0. -1.
         -6    1    1    2    0  502  0.88878480210E+02 -0.82410076003E+02 -0.14001892014E+03  0.25342672090E+03  0.17300000000E+03 0. -1.
<mgrwt>
<rscale>  2 0.21123401E+03</rscale>
<asrwt>0</asrwt>
<pdfrwt beam="1">  1       21 0.99087721E-02 0.21123401E+03</pdfrwt>
<pdfrwt beam="2">  1       21 0.25305114E+00 0.21123401E+03</pdfrwt>
<totfact> 0.51644143E+03</totfact>
</mgrwt>
</event>
<event>
 4    2  0.3944631E+000  0.2429752E+03  0.7546771E-02  0.1117827E+00
         21   -1    0    0  501  502  0.00000000000E+00  0.00000000000E+00  0.37832839451E+03  0.37832839451E+03  0.00000000000E+00 0.  1.
         21   -1    0    0  502  503 -0.00000000000E+00 -0.00000000000E+00 -0.16009026938E+03  0.16009026938E+03  0.00000000000E+00 0. -1.
          6    1    1    2  501    0 -0.14530025171E+03 -0.89419164955E+02  0.15190318290E+03  0.28655109001E+03  0.17300000000E+03 0.  1.
         -6    1    1    2    0  503  0.14530025171E+03  0.89419164955E+02  0.66334942232E+02  0.25186757388E+03  0.17300000000E+03 0.  1.
<mgrwt>
<rscale>  2 0.24297520E+03</rscale>
<asrwt>0</asrwt>
<pdfrwt beam="1">  1       21 0.58204368E-01 0.24297520E+03</pdfrwt>
<pdfrwt beam="2">  1       21 0.24629272E-01 0.24297520E+03</pdfrwt>
<totfact> 0.42086067E+04</totfact>
</mgrwt>
</event>
<event>
 4    2  0.3944631E+000  0.2919946E+03  0.7546771E-02  0.1089312E+00
         21   -1    0    0  503  502  0.00000000000E+00  0.00000000000E+00  0.16837793587E+03  0.16837793587E+03  0.00000000000E+00 0.  1.
         21   -1    0    0  501  503 -0.00000000000E+00 -0.00000000000E+00 -0.16477239698E+04  0.16477239698E+04  0.00000000000E+00 0. -1.
          6    1    1    2  501    0  0.17939074533E+03 -0.15215385130E+03 -0.14954244130E+04  0.15236649924E+04  0.17300000000E+03 0. -1.
         -6    1    1    2    0  502 -0.17939074533E+03  0.15215385130E+03  0.16078379088E+02  0.29243691328E+03  0.17300000000E+03 0.  1.
<mgrwt>
<rscale>  2 0.29199458E+03</rscale>
<asrwt>0</asrwt>
<pdfrwt beam="1">  1       21 0.25904297E-01 0.29199458E+03</pdfrwt>
<pdfrwt beam="2">  1       21 0.25349600E+00 0.29199458E+03</pdfrwt>
<totfact> 0.81074348E+02</totfact>
</mgrwt>
</event>
<event>
 4    2  0.3944631E+000  0.2144653E+03  0.7546771E-02  0.1138078E+00
         21   -1    0    0  503  502  0.00000000000E+00  0.00000000000E+00  0.44754862967E+02  0.44754862967E+02  0.00000000000E+00 0.  1.
         21   -1    0    0  501  503 -0.00000000000E+00 -0.00000000000E+00 -0.11435468020E+04  0.11435468020E+04  0.00000000000E+00 0. -1.
          6    1    1    2  501    0  0.11646044715E+03  0.50033323213E+02 -0.73849025324E+03  0.76900144558E+03  0.17300000000E+03 0. -1.
         -6    1    1    2    0  502 -0.11646044715E+03 -0.50033323213E+02 -0.36030168576E+03  0.41930021934E+03  0.17300000000E+03 0.  1.
<mgrwt>
<rscale>  2 0.21446531E+03</rscale>
<asrwt>0</asrwt>
<pdfrwt beam="1">  1       21 0.68853639E-02 0.21446531E+03</pdfrwt>
<pdfrwt beam="2">  1       21 0.17593027E+00 0.21446531E+03</pdfrwt>
<totfact> 0.29770567E+04</totfact>
</mgrwt>
</event>
<event>
 4    2  0.3944631E+000  0.1738159E+03  0.7546771E-02  0.1173926E+00
         21   -1    0    0  501  502  0.00000000000E+00  0.00000000000E+00  0.78871510611E+03  0.78871510611E+03  0.00000000000E+00 0.  1.
         21   -1    0    0  502  503 -0.00000000000E+00 -0.00000000000E+00 -0.70329580350E+02  0.70329580350E+02  0.00000000000E+00 0.  1.
          6    1    1    2  501    0 -0.13420792921E+02  0.10142272863E+02  0.64903142142E+03  0.67190309522E+03  0.17300000000E+03 0.  1.
         -6    1    1    2    0  503  0.13420792921E+02 -0.10142272863E+02  0.69354104340E+02  0.18714159124E+03  0.17300000000E+03 0.  1.
<mgrwt>
<rscale>  2 0.17381595E+03</rscale>
<asrwt>0</asrwt>
<pdfrwt beam="1">  1       21 0.12134078E+00 0.17381595E+03</pdfrwt>
<pdfrwt beam="2">  1       21 0.10819936E-01 0.17381595E+03</pdfrwt>
<totfact> 0.36645685E+04</totfact>
</mgrwt>
</event>
<event>
 4    2  0.3944631E+000  0.1805775E+03  0.7546771E-02  0.1167245E+00
         21   -1    0    0  501  502  0.00000000000E+00  0.00000000000E+00  0.75164098454E+03  0.75164098454E+03  0.00000000000E+00 0.  1.
         21   -1    0    0  502  503 -0.00000000000E+00 -0.00000000000E+00 -0.51133469552E+02  0.51133469552E+02  0.00000000000E+00 0.  1.
          6    1    1    2  501    0 -0.72543578963E+01 -0.51250411426E+02  0.50652633272E+03  0.53775194664E+03  0.17300000000E+03 0.  1.
         -6    1    1    2    0  503  0.72543578963E+01  0.51250411426E+02  0.19398118226E+03  0.26502250745E+03  0.17300000000E+03 0.  1.
<mgrwt>
<rscale>  2 0.18057749E+03</rscale>
<asrwt>0</asrwt>
<pdfrwt beam="1">  1       21 0.11563707E+00 0.18057749E+03</pdfrwt>
<pdfrwt beam="2">  1       21 0.78666882E-02 0.18057749E+03</pdfrwt>
<totfact> 0.71875888E+04</totfact>
</mgrwt>
</event>
<event>
 4    2  0.3944631E+000  0.1763947E+03  0.7546771E-02  0.1171339E+00
         21   -1    0    0  503  502  0.00000000000E+00  0.00000000000E+00  0.13892004595E+03  0.13892004595E+03  0.00000000000E+00 0. -1.
         21   -1    0    0  501  503 -0.00000000000E+00 -0.00000000000E+00 -0.44797221142E+03  0.44797221142E+03  0.00000000000E+00 0. -1.
          6    1    1    2  501    0 -0.30168012473E+01 -0.34307198043E+02 -0.36202741509E+03  0.40271445741E+03  0.17300000000E+03 0. -1.
         -6    1    1    2    0  502  0.30168012473E+01  0.34307198043E+02  0.52975249617E+02  0.18417779996E+03  0.17300000000E+03 0. -1.
<mgrwt>
<rscale>  2 0.17639469E+03</rscale>
<asrwt>0</asrwt>
<pdfrwt beam="1">  1       21 0.21372315E-01 0.17639469E+03</pdfrwt>
<pdfrwt beam="2">  1       21 0.68918802E-01 0.17639469E+03</pdfrwt>
<totfact> 0.39414376E+04</totfact>
</mgrwt>
</event>
<event>
 4    2  0.3944631E+000  0.2397997E+03  0.7546771E-02  0.1119926E+00
         21   -1    0    0  503  502  0.00000000000E+00  0.00000000000E+00  0.64393522178E+03  0.64393522178E+03  0.00000000000E+00 0. -1.
         21   -1    0    0  501  503 -0.00000000000E+00 -0.00000000000E+00 -0.13031766640E+03  0.13031766640E+03  0.00000000000E+00 0.  1.
          6    1    1    2  501    0 -0.76804037737E+02 -0.14722788998E+03  0.39622399245E+02  0.24305111875E+03  0.17300000000E+03 0.  1.
         -6    1    1    2    0  502  0.76804037737E+02  0.14722788998E+03  0.47399515614E+03  0.53120176943E+03  0.17300000000E+03 0. -1.
<mgrwt>
<rscale>  2 0.23979973E+03</rscale>
<asrwt>0</asrwt>
<pdfrwt beam="1">  1       21 0.99066956E-01 0.23979973E+03</pdfrwt>
<pdfrwt beam="2">  1       21 0.20048872E-01 0.23979973E+03</pdfrwt>
<totfact> 0.18764167E+04</totfact>
</mgrwt>
</event>
<event>
 4    2  0.3944631E+000  0.1778424E+03  0.7546771E-02  0.1169908E+00
         21   -1    0    0  501  502  0.00000000000E+00  0.00000000000E+00  0.17956094328E+03  0.17956094328E+03  0.00000000000E+00 0.  1.
         21   -1    0    0  502  503 -0.00000000000E+00 -0.00000000000E+00 -0.51556871766E+03  0.51556871766E+03  0.00000000000E+00 0. -1.
          6    1    1    2  501    0  0.13917585812E+02 -0.38797008265E+02  0.11400752640E+03  0.21124777661E+03  0.17300000000E+03 0.  1.
         -6    1    1    2    0  503 -0.13917585812E+02  0.38797008265E+02 -0.45001530078E+03  0.48388188433E+03  0.17300000000E+03 0. -1.
<mgrwt>
<rscale>  2 0.17784237E+03</rscale>
<asrwt>0</asrwt>
<pdfrwt beam="1">  1       21 0.27624760E-01 0.17784237E+03</pdfrwt>
<pdfrwt beam="2">  1       21 0.79318265E-01 0.17784237E+03</pdfrwt>
<totfact> 0.17697860E+04</totfact>
</mgrwt>
</event>
<event>
 4    2  0.3944631E+000  0.1786686E+03  0.7546771E-02  0.1169098E+00
         21   -1    0    0  501  502  0.00000000000E+00  0.00000000000E+00  0.20803629106E+03  0.20803629106E+03  0.00000000000E+00 0. -1.
         21   -1    0    0  502  503 -0.00000000000E+00 -0.00000000000E+00 -0.24593215593E+03  0.24593215593E+03  0.00000000000E+00 0. -1.
          6    1    1    2  501    0  0.98229244071E+01  0.43554515647E+02  0.12024740799E+03  0.21536463221E+03  0.17300000000E+03 0. -1.
         -6    1    1    2    0  503 -0.98229244071E+01 -0.43554515647E+02 -0.15814327286E+03  0.23860381478E+03  0.17300000000E+03 0. -1.
<mgrwt>
<rscale>  2 0.17866865E+03</rscale>
<asrwt>0</asrwt>
<pdfrwt beam="1">  1       21 0.32005583E-01 0.17866865E+03</pdfrwt>
<pdfrwt beam="2">  1       21 0.37835716E-01 0.17866865E+03</pdfrwt>
<totfact> 0.63641347E+04</totfact>
</mgrwt>
</event>
<event>
 4    2  0.3944631E+000  0.1950371E+03  0.7546771E-02  0.1153995E+00
         21   -1    0    0  501  502  0.00000000000E+00  0.00000000000E+00  0.17566355037E+03  0.17566355037E+03  0.00000000000E+00 0.  1.
         21   -1    0    0  502  503 -0.00000000000E+00 -0.00000000000E+00 -0.23354348717E+03  0.23354348717E+03  0.00000000000E+00 0.  1.
          6    1    1    2  501    0  0.77474921680E+02  0.45913926248E+02 -0.84135776090E+02  0.21241064223E+03  0.17300000000E+03 0.  1.
         -6    1    1    2    0  503 -0.77474921680E+02 -0.45913926248E+02  0.26255839294E+02  0.19679639532E+03  0.17300000000E+03 0.  1.
<mgrwt>
<rscale>  2 0.19503705E+03</rscale>
<asrwt>0</asrwt>
<pdfrwt beam="1">  1       21 0.27025161E-01 0.19503705E+03</pdfrwt>
<pdfrwt beam="2">  1       21 0.35929768E-01 0.19503705E+03</pdfrwt>
<totfact> 0.97359486E+04</totfact>
</mgrwt>
</event>
<event>
 4    2  0.3944631E+000  0.2159740E+03  0.7546771E-02  0.1136921E+00
         21   -1    0    0  503  502  0.00000000000E+00  0.00000000000E+00  0.16478581301E+03  0.16478581301E+03  0.00000000000E+00 0. -1.
         21   -1    0    0  501  503 -0.00000000000E+00 -0.00000000000E+00 -0.37617313469E+03  0.37617313469E+03  0.00000000000E+00 0.  1.
          6    1    1    2  501    0 -0.85861863011E+02 -0.96661763610E+02 -0.24026080982E+03  0.32306348107E+03  0.17300000000E+03 0.  1.
         -6    1    1    2    0  502  0.85861863011E+02  0.96661763610E+02  0.28873488144E+02  0.21789546664E+03  0.17300000000E+03 0. -1.
<mgrwt>
<rscale>  2 0.21597397E+03</rscale>
<asrwt>0</asrwt>
<pdfrwt beam="1">  1       21 0.25351664E-01 0.21597397E+03</pdfrwt>
<pdfrwt beam="2">  1       21 0.57872789E-01 0.21597397E+03</pdfrwt>
<totfact> 0.40802671E+04</totfact>
</mgrwt>
</event>
<event>
 4    2  0.3944631E+000  0.2539004E+03  0.7546771E-02  0.1110864E+00
         21   -1    0    0  503  502  0.00000000000E+00  0.00000000000E+00  0.28878769512E+03  0.28878769512E+03  0.00000000000E+00 0.  1.
         21   -1    0    0  501  503 -0.00000000000E+00 -0.00000000000E+00 -0.23396333949E+03  0.23396333949E+03  0.00000000000E+00 0.  1.
          6    1    1    2  501    0  0.18551261678E+03 -0.11021697422E+02  0.83401505333E+02  0.26724748809E+03  0.17300000000E+03 0.  1.
         -6    1    1    2    0  502 -0.18551261678E+03  0.11021697422E+02 -0.28577149701E+02  0.25550354652E+03  0.17300000000E+03 0.  1.
<mgrwt>
<rscale>  2 0.25390039E+03</rscale>
<asrwt>0</asrwt>
<pdfrwt beam="1">  1       21 0.44428876E-01 0.25390039E+03</pdfrwt>
<pdfrwt beam="2">  1       21 0.35994360E-01 0.25390039E+03</pdfrwt>
<totfact> 0.35160945E+04</totfact>
</mgrwt>
</event>
<event>
 4    2  0.3944631E+000  0.2893774E+03  0.7546771E-02  0.1090675E+00
         21   -1    0    0  503  502  0.00000000000E+00  0.00000000000E+00  0.80731311341E+03  0.80731311341E+03  0.00000000000E+00 0.  1.
         21   -1    0    0  501  503 -0.00000000000E+00 -0.00000000000E+00 -0.53522414279E+03  0.53522414279E+03  0.00000000000E+00 0.  1.
          6    1    1    2  501    0  0.22039082259E+03  0.72375127541E+02 -0.46667887246E+03  0.54911605674E+03  0.17300000000E+03 0.  1.
         -6    1    1    2    0  502 -0.22039082259E+03 -0.72375127541E+02  0.73876784309E+03  0.79342119946E+03  0.17300000000E+03 0.  1.
<mgrwt>
<rscale>  2 0.28937739E+03</rscale>
<asrwt>0</asrwt>
<pdfrwt beam="1">  1       21 0.12420202E+00 0.28937739E+03</pdfrwt>
<pdfrwt beam="2">  1       21 0.82342176E-01 0.28937739E+03</pdfrwt>
<totfact> 0.57251931E+02</totfact>
</mgrwt>
</event>
<event>
 4    2  0.3944631E+000  0.3294081E+03  0.7546771E-02  0.1071399E+00
         21   -1    0    0  501  502  0.00000000000E+00  0.00000000000E+00  0.71985475499E+03  0.71985475499E+03  0.00000000000E+00 0. -1.
         21   -1    0    0  502  503 -0.00000000000E+00 -0.00000000000E+00 -0.33372528837E+03  0.33372528837E+03  0.00000000000E+00 0.  1.
          6    1    1    2  501    0  0.15947588308E+03  0.23053878277E+03  0.58314418820E+03  0.66975132092E+03  0.17300000000E+03 0. -1.
         -6    1    1    2    0  503 -0.15947588308E+03 -0.23053878277E+03 -0.19701472159E+03  0.38382872244E+03  0.17300000000E+03 0.  1.
<mgrwt>
<rscale>  2 0.32940809E+03</rscale>
<asrwt>0</asrwt>
<pdfrwt beam="1">  1       21 0.11074689E+00 0.32940809E+03</pdfrwt>
<pdfrwt beam="2">  1       21 0.51342352E-01 0.32940809E+03</pdfrwt>
<totfact> 0.21060849E+03</totfact>
</mgrwt>
</event>
<event>
 4    2  0.3944631E+000  0.1870125E+03  0.7546771E-02  0.1161184E+00
         21   -1    0    0  503  502  0.00000000000E+00  0.00000000000E+00  0.38362889528E+03  0.38362889528E+03  0.00000000000E+00 0.  1.
         21   -1    0    0  501  503 -0.00000000000E+00 -0.00000000000E+00 -0.91407709130E+02  0.91407709130E+02  0.00000000000E+00 0. -1.
          6    1    1    2  501    0  0.26802730799E+02  0.65774649912E+02  0.15833897308E+03  0.24504065243E+03  0.17300000000E+03 0.  1.
         -6    1    1    2    0  502 -0.26802730799E+02 -0.65774649912E+02  0.13388221308E+03  0.22999595198E+03  0.17300000000E+03 0. -1.
<mgrwt>
<rscale>  2 0.18701254E+03</rscale>
<asrwt>0</asrwt>
<pdfrwt beam="1">  1       21 0.59019829E-01 0.18701254E+03</pdfrwt>
<pdfrwt beam="2">  1       21 0.14062725E-01 0.18701254E+03</pdfrwt>
<totfact> 0.11863535E+05</totfact>
</mgrwt>
</event>
<event>
 4    2  0.3944631E+000  0.1897945E+03  0.7546771E-02  0.1158647E+00
         21   -1    0    0  503  502  0.00000000000E+00  0.00000000000E+00  0.54796860953E+03  0.54796860953E+03  0.00000000000E+00 0.  1.
         21   -1    0    0  501  503 -0.00000000000E+00 -0.00000000000E+00 -0.78621274885E+02  0.78621274885E+02  0.00000000000E+00 0.  1.
          6    1    1    2  501    0  0.74067968548E+01 -0.77705216247E+02  0.10784753235E+03  0.21829578902E+03  0.17300000000E+03 0.  1.
         -6    1    1    2    0  502 -0.74067968548E+01  0.77705216247E+02  0.36149980229E+03  0.40829409539E+03  0.17300000000E+03 0.  1.
<mgrwt>
<rscale>  2 0.18979452E+03</rscale>
<asrwt>0</asrwt>
<pdfrwt beam="1">  1       21 0.84302860E-01 0.18979452E+03</pdfrwt>
<pdfrwt beam="2">  1       21 0.12095581E-01 0.18979452E+03</pdfrwt>
<totfact> 0.70732342E+04</totfact>
</mgrwt>
</event>
<event>
 4    2  0.3944631E+000  0.1770608E+03  0.7546771E-02  0.1170678E+00
         21   -1    0    0  501  502  0.00000000000E+00  0.00000000000E+00  0.20381957669E+03  0.20381957669E+03  0.00000000000E+00 0. -1.
         21   -1    0    0  502  503 -0.00000000000E+00 -0.00000000000E+00 -0.26414025644E+03  0.26414025644E+03  0.00000000000E+00 0. -1.
          6    1    1    2  501    0 -0.21265808754E+02 -0.31133271950E+02  0.12105598848E+03  0.21448791945E+03  0.17300000000E+03 0. -1.
         -6    1    1    2    0  503  0.21265808754E+02  0.31133271950E+02 -0.18137666822E+03  0.25347191367E+03  0.17300000000E+03 0. -1.
<mgrwt>
<rscale>  2 0.17706077E+03</rscale>
<asrwt>0</asrwt>
<pdfrwt beam="1">  1       21 0.31356858E-01 0.17706077E+03</pdfrwt>
<pdfrwt beam="2">  1       21 0.40636962E-01 0.17706077E+03</pdfrwt>
<totfact> 0.57425889E+04</totfact>
</mgrwt>
</event>
<event>
 4    2  0.3944631E+000  0.1818129E+03  0.7546771E-02  0.1166060E+00
         21   -1    0    0  503  502  0.00000000000E+00  0.00000000000E+00  0.34086428377E+03  0.34086428377E+03  0.00000000000E+00 0. -1.
         21   -1    0    0  501  503 -0.00000000000E+00 -0.00000000000E+00 -0.19287774258E+03  0.19287774258E+03  0.00000000000E+00 0. -1.
          6    1    1    2  501    0  0.54495952962E+02  0.12535211433E+02 -0.11418596459E+03  0.21469600584E+03  0.17300000000E+03 0. -1.
         -6    1    1    2    0  502 -0.54495952962E+02 -0.12535211433E+02  0.26217250578E+03  0.31904602051E+03  0.17300000000E+03 0. -1.
<mgrwt>
<rscale>  2 0.18181293E+03</rscale>
<asrwt>0</asrwt>
<pdfrwt beam="1">  1       21 0.52440659E-01 0.18181293E+03</pdfrwt>
<pdfrwt beam="2">  1       21 0.29673499E-01 0.18181293E+03</pdfrwt>
<totfact> 0.37749575E+04</totfact>
</mgrwt>
</event>
<event>
 4    2  0.3944631E+000  0.2212126E+03  0.7546771E-02  0.1132982E+00
         21   -1    0    0  503  502  0.00000000000E+00  0.00000000000E+00  0.59378903648E+03  0.59378903648E+03  0.00000000000E+00 0.  1.
         21   -1    0    0  501  503 -0.00000000000E+00 -0.00000000000E+00 -0.98877025348E+02  0.98877025348E+02  0.00000000000E+00 0.  1.
          6    1    1    2  501    0  0.13493866466E+03  0.28241233557E+02  0.10612586734E+03  0.24535221664E+03  0.17300000000E+03 0.  1.
         -6    1    1    2    0  502 -0.13493866466E+03 -0.28241233557E+02  0.38878614379E+03  0.44731384519E+03  0.17300000000E+03 0.  1.
<mgrwt>
<rscale>  2 0.22121259E+03</rscale>
<asrwt>0</asrwt>
<pdfrwt beam="1">  1       21 0.91352157E-01 0.22121259E+03</pdfrwt>
<pdfrwt beam="2">  1       21 0.15211850E-01 0.22121259E+03</pdfrwt>
<totfact> 0.38234460E+04</totfact>
</mgrwt>
</event>
<event>
 4    2  0.3944631E+000  0.2650675E+03  0.7546771E-02  0.1104136E+00
         21   -1    0    0  501  502  0.00000000000E+00  0.00000000000E+00  0.69694062303E+03  0.69694062303E+03  0.00000000000E+00 0.  1.
         21   -1    0    0  502  503 -0.00000000000E+00 -0.00000000000E+00 -0.16567537433E+03  0.16567537433E+03  0.00000000000E+00 0.  1.
          6    1    1    2  501    0 -0.78579450724E+02 -0.18481631470E+03  0.53550246438E+03  0.59751459365E+03  0.17300000000E+03 0.  1.
         -6    1    1    2    0  503  0.78579450724E+02  0.18481631470E+03 -0.42372156849E+01  0.26510140372E+03  0.17300000000E+03 0.  1.
<mgrwt>
<rscale>  2 0.26506754E+03</rscale>
<asrwt>0</asrwt>
<pdfrwt beam="1">  1       21 0.10722163E+00 0.26506754E+03</pdfrwt>
<pdfrwt beam="2">  1       21 0.25488519E-01 0.26506754E+03</pdfrwt>
<totfact> 0.96915211E+03</totfact>
</mgrwt>
</event>
<event>
 4    2  0.3944631E+000  0.4069756E+03  0.7546771E-02  0.1041391E+00
         21   -1    0    0  501  502  0.00000000000E+00  0.00000000000E+00  0.26197414300E+03  0.26197414300E+03  0.00000000000E+00 0.  1.
         21   -1    0    0  502  503 -0.00000000000E+00 -0.00000000000E+00 -0.70283948627E+03  0.70283948627E+03  0.00000000000E+00 0. -1.
          6    1    1    2  501    0  0.14419543232E+03 -0.33898056793E+03 -0.37333087323E+03  0.55227265824E+03  0.17300000000E+03 0. -1.
         -6    1    1    2    0  503 -0.14419543232E+03  0.33898056793E+03 -0.67534470039E+02  0.41254097103E+03  0.17300000000E+03 0.  1.
<mgrwt>
<rscale>  2 0.40697561E+03</rscale>
<asrwt>0</asrwt>
<pdfrwt beam="1">  1       21 0.40303714E-01 0.40697561E+03</pdfrwt>
<pdfrwt beam="2">  1       21 0.10812915E+00 0.40697561E+03</pdfrwt>
<totfact> 0.35754380E+03</totfact>
</mgrwt>
</event>
<event>
 4    2  0.3944631E+000  0.1865682E+03  0.7546771E-02  0.1161594E+00
         21   -1    0    0  503  502  0.00000000000E+00  0.00000000000E+00  0.12097047367E+03  0.12097047367E+03  0.00000000000E+00 0.  1.
         21   -1    0    0  501  503 -0.00000000000E+00 -0.00000000000E+00 -0.44255174741E+03  0.44255174741E+03  0.00000000000E+00 0.  1.
          6    1    1    2  501    0 -0.50852996404E+02  0.47881740871E+02 -0.32744055381E+03  0.37686204987E+03  0.17300000000E+03 0.  1.
         -6    1    1    2    0  502  0.50852996404E+02 -0.47881740871E+02  0.58592800649E+01  0.18666017121E+03  0.17300000000E+03 0.  1.
<mgrwt>
<rscale>  2 0.18656819E+03</rscale>
<asrwt>0</asrwt>
<pdfrwt beam="1">  1       21 0.18610842E-01 0.18656819E+03</pdfrwt>
<pdfrwt beam="2">  1       21 0.68084884E-01 0.18656819E+03</pdfrwt>
<totfact> 0.52129815E+04</totfact>
</mgrwt>
</event>
<event>
 4    2  0.3944631E+000  0.1849414E+03  0.7546771E-02  0.1163105E+00
         21   -1    0    0  503  502  0.00000000000E+00  0.00000000000E+00  0.48378971496E+03  0.48378971496E+03  0.00000000000E+00 0. -1.
         21   -1    0    0  501  503 -0.00000000000E+00 -0.00000000000E+00 -0.74243600018E+02  0.74243600018E+02  0.00000000000E+00 0. -1.
          6    1    1    2  501    0  0.36168813581E+02  0.54462200815E+02  0.26574096499E+03  0.32376160190E+03  0.17300000000E+03 0. -1.
         -6    1    1    2    0  502 -0.36168813581E+02 -0.54462200815E+02  0.14380514995E+03  0.23427171307E+03  0.17300000000E+03 0. -1.
<mgrwt>
<rscale>  2 0.18494138E+03</rscale>
<asrwt>0</asrwt>
<pdfrwt beam="1">  1       21 0.74429185E-01 0.18494138E+03</pdfrwt>
<pdfrwt beam="2">  1       21 0.11422093E-01 0.18494138E+03</pdfrwt>
<totfact> 0.10395624E+05</totfact>
</mgrwt>
</event>
<event>
 4    2  0.3944631E+000  0.1739456E+03  0.7546771E-02  0.1173795E+00
         21   -1    0    0  503  502  0.00000000000E+00  0.00000000000E+00  0.17790199441E+03  0.17790199441E+03  0.00000000000E+00 0.  1.
         21   -1    0    0  501  503 -0.00000000000E+00 -0.00000000000E+00 -0.20762288325E+03  0.20762288325E+03  0.00000000000E+00 0.  1.
          6    1    1    2  501    0 -0.17349671602E+02 -0.52020736489E+01 -0.96832310656E+02  0.19908181500E+03  0.17300000000E+03 0.  1.
         -6    1    1    2    0  502  0.17349671602E+02  0.52020736489E+01  0.67111421821E+02  0.18644306266E+03  0.17300000000E+03 0.  1.
<mgrwt>
<rscale>  2 0.17394560E+03</rscale>
<asrwt>0</asrwt>
<pdfrwt beam="1">  1       21 0.27369538E-01 0.17394560E+03</pdfrwt>
<pdfrwt beam="2">  1       21 0.31941982E-01 0.17394560E+03</pdfrwt>
<totfact> 0.12080097E+05</totfact>
</mgrwt>
</event>
<event>
 4    2  0.3944631E+000  0.1910191E+03  0.7546771E-02  0.1157545E+00
         21   -1    0    0  501  502  0.00000000000E+00  0.00000000000E+00  0.14424174561E+04  0.14424174561E+04  0.00000000000E+00 0. -1.
         21   -1    0    0  502  503 -0.00000000000E+00 -0.00000000000E+00 -0.30434669732E+03  0.30434669732E+03  0.00000000000E+00 0. -1.
          6    1    1    2  501    0 -0.79051902936E+02  0.17609213104E+02  0.14053333662E+04  0.14182560270E+04  0.17300000000E+03 0. -1.
         -6    1    1    2    0  503  0.79051902936E+02 -0.17609213104E+02 -0.26726260751E+03  0.32850812641E+03  0.17300000000E+03 0. -1.
<mgrwt>
<rscale>  2 0.19101908E+03</rscale>
<asrwt>0</asrwt>
<pdfrwt beam="1">  1       21 0.22191037E+00 0.19101908E+03</pdfrwt>
<pdfrwt beam="2">  1       21 0.46822570E-01 0.19101908E+03</pdfrwt>
<totfact> 0.42850723E+02</totfact>
</mgrwt>
</event>
