<event>
 4    1  0.9654646E-007  0.8245507E+03  0.7818608E-02  0.9660029E-01
          2   -1    0    0  501    0  0.00000000000E+00  0.00000000000E+00  0.89651678064E+03  0.89651678064E+03  0.25500000000E-02 0. -1.
         -2   -1    0    0    0  501 -0.00000000000E+00 -0.00000000000E+00 -0.62344799235E+03  0.62344799236E+03  0.25500000000E-02 0.  1.
    8880023    1    1    2    0    0 -0.23378983807E+03 -0.43751114889E+03 -0.16479209194E+03  0.84085690437E+03  0.65864270000E+03 0.  0.
    8880022    1    1    2    0    0  0.23378983807E+03  0.43751114889E+03  0.43786088023E+03  0.67910786863E+03  0.15294330000E+03 0.  0.
<mgrwt>
<rscale>  0 0.73447311E+03</rscale>
<asrwt>0</asrwt>
<pdfrwt beam="1">  1        2 0.13792566E+00 0.82455073E+03</pdfrwt>
<pdfrwt beam="2">  1       -2 0.95915076E-01 0.82455073E+03</pdfrwt>
<totfact> 0.27090788E+01</totfact>
</mgrwt>
</event>
<event>
 4    1  0.9654646E-007  0.9199634E+03  0.7818608E-02  0.9494715E-01
         -2   -1    0    0    0  501 -0.00000000000E+00  0.00000000000E+00  0.57941028959E+03  0.57941028959E+03  0.25500000000E-02 0.  1.
          2   -1    0    0  501    0  0.00000000000E+00 -0.00000000000E+00 -0.21823324500E+04  0.21823324500E+04  0.25500000000E-02 0. -1.
    8880023    1    1    2    0    0 -0.18342890105E+03  0.61552930613E+03  0.10949202115E+03  0.92645625768E+03  0.65864270000E+03 0.  1.
    8880022    1    1    2    0    0  0.18342890105E+03 -0.61552930613E+03 -0.17124141816E+04  0.18352864819E+04  0.15294330000E+03 0.  0.
<mgrwt>
<rscale>  0 0.84674578E+03</rscale>
<asrwt>0</asrwt>
<pdfrwt beam="1">  1        2 0.33574345E+00 0.91996342E+03</pdfrwt>
<pdfrwt beam="2">  1       -2 0.89140046E-01 0.91996342E+03</pdfrwt>
<totfact> 0.57909682E+00</totfact>
</mgrwt>
</event>
<event>
 4    1  0.9654646E-007  0.7079948E+03  0.7818608E-02  0.9965524E-01
          2   -1    0    0  501    0  0.00000000000E+00  0.00000000000E+00  0.27734589952E+03  0.27734589954E+03  0.25500000000E-02 0. -1.
         -2   -1    0    0    0  501 -0.00000000000E+00 -0.00000000000E+00 -0.10017607701E+04  0.10017607701E+04  0.25500000000E-02 0.  1.
    8880023    1    1    2    0    0  0.17327902486E+03  0.19344454751E+03 -0.66618118107E+03  0.97213887161E+03  0.65864270000E+03 0.  0.
    8880022    1    1    2    0    0 -0.17327902486E+03 -0.19344454751E+03 -0.58233689498E+02  0.30696779802E+03  0.15294330000E+03 0.  0.
<mgrwt>
<rscale>  0 0.57188148E+03</rscale>
<asrwt>0</asrwt>
<pdfrwt beam="1">  1        2 0.42668600E-01 0.70799479E+03</pdfrwt>
<pdfrwt beam="2">  1       -2 0.15411704E+00 0.70799479E+03</pdfrwt>
<totfact> 0.33899065E+01</totfact>
</mgrwt>
</event>
<event>
 4    1  0.9654646E-007  0.7113901E+03  0.7818608E-02  0.9952875E-01
          2   -1    0    0  501    0  0.00000000000E+00  0.00000000000E+00  0.10611916359E+03  0.10611916362E+03  0.25500000000E-02 0. -1.
         -2   -1    0    0    0  501 -0.00000000000E+00 -0.00000000000E+00 -0.29414431997E+04  0.29414431997E+04  0.25500000000E-02 0.  1.
    8880023    1    1    2    0    0  0.15647010956E+03  0.21859285332E+03 -0.24622515206E+04  0.25629589321E+04  0.65864270000E+03 0.  1.
    8880022    1    1    2    0    0 -0.15647010956E+03 -0.21859285332E+03 -0.37307251558E+03  0.48460343128E+03  0.15294330000E+03 0.  0.
<mgrwt>
<rscale>  0 0.57765787E+03</rscale>
<asrwt>0</asrwt>
<pdfrwt beam="1">  1        2 0.16326027E-01 0.71139014E+03</pdfrwt>
<pdfrwt beam="2">  1       -2 0.45252966E+00 0.71139014E+03</pdfrwt>
<totfact> 0.12941494E+00</totfact>
</mgrwt>
</event>
<event>
 4    1  0.9654646E-007  0.1030244E+04  0.7818608E-02  0.9343016E-01
         -2   -1    0    0    0  501 -0.00000000000E+00  0.00000000000E+00  0.11413218304E+04  0.11413218304E+04  0.25500000000E-02 0.  1.
          2   -1    0    0  501    0  0.00000000000E+00 -0.00000000000E+00 -0.13035942869E+04  0.13035942869E+04  0.25500000000E-02 0. -1.
    8880023    1    1    2    0    0 -0.76911733787E+03 -0.18987216215E+03  0.71422326035E+03  0.12536020059E+04  0.65864270000E+03 0.  0.
    8880022    1    1    2    0    0  0.76911733787E+03  0.18987216215E+03 -0.87649571687E+03  0.11913141114E+04  0.15294330000E+03 0.  0.
<mgrwt>
<rscale>  0 0.96917337E+03</rscale>
<asrwt>0</asrwt>
<pdfrwt beam="1">  1        2 0.20055297E+00 0.10302442E+04</pdfrwt>
<pdfrwt beam="2">  1       -2 0.17558797E+00 0.10302442E+04</pdfrwt>
<totfact> 0.31641043E+00</totfact>
</mgrwt>
</event>
<event>
 4    1  0.9654646E-007  0.7039964E+03  0.7818608E-02  0.9981010E-01
         -2   -1    0    0    0  501 -0.00000000000E+00  0.00000000000E+00  0.53334462146E+03  0.53334462147E+03  0.25500000000E-02 0.  1.
          2   -1    0    0  501    0  0.00000000000E+00 -0.00000000000E+00 -0.16159982676E+04  0.16159982676E+04  0.25500000000E-02 0. -1.
    8880023    1    1    2    0    0 -0.95526663231E+02 -0.22951125302E+03  0.27862239716E+03  0.75712707329E+03  0.65864270000E+03 0.  1.
    8880022    1    1    2    0    0  0.95526663231E+02  0.22951125302E+03 -0.13612760433E+04  0.13922158158E+04  0.15294330000E+03 0.  0.
<mgrwt>
<rscale>  0 0.56490830E+03</rscale>
<asrwt>0</asrwt>
<pdfrwt beam="1">  1        2 0.24861512E+00 0.70399642E+03</pdfrwt>
<pdfrwt beam="2">  1       -2 0.82053020E-01 0.70399642E+03</pdfrwt>
<totfact> 0.14731432E+01</totfact>
</mgrwt>
</event>
<event>
 4    1  0.9654646E-007  0.1466607E+04  0.7818608E-02  0.8933583E-01
         -2   -1    0    0    0  501 -0.00000000000E+00  0.00000000000E+00  0.98305168447E+03  0.98305168447E+03  0.25500000000E-02 0.  1.
          2   -1    0    0  501    0  0.00000000000E+00 -0.00000000000E+00 -0.30933184356E+04  0.30933184356E+04  0.25500000000E-02 0. -1.
    8880023    1    1    2    0    0  0.11559615427E+03  0.13052826665E+04  0.13435584175E+03  0.14727481145E+04  0.65864270000E+03 0.  0.
    8880022    1    1    2    0    0 -0.11559615427E+03 -0.13052826665E+04 -0.22446225929E+04  0.26036220056E+04  0.15294330000E+03 0.  0.
<mgrwt>
<rscale>  0 0.14283020E+04</rscale>
<asrwt>0</asrwt>
<pdfrwt beam="1">  1        2 0.47589514E+00 0.14666068E+04</pdfrwt>
<pdfrwt beam="2">  1       -2 0.15123872E+00 0.14666068E+04</pdfrwt>
<totfact> 0.42419147E-01</totfact>
</mgrwt>
</event>
<event>
 4    1  0.9654646E-007  0.6790321E+03  0.7818608E-02  0.1009877E+00
         -2   -1    0    0    0  501 -0.00000000000E+00  0.00000000000E+00  0.31182149855E+03  0.31182149856E+03  0.25500000000E-02 0.  1.
          2   -1    0    0  501    0  0.00000000000E+00 -0.00000000000E+00 -0.69914486653E+03  0.69914486653E+03  0.25500000000E-02 0. -1.
    8880023    1    1    2    0    0  0.67431700739E+02  0.15075577227E+03 -0.17427833950E+03  0.70104028630E+03  0.65864270000E+03 0.  0.
    8880022    1    1    2    0    0 -0.67431700739E+02 -0.15075577227E+03 -0.21304502848E+03  0.30992607878E+03  0.15294330000E+03 0.  0.
<mgrwt>
<rscale>  0 0.51523728E+03</rscale>
<asrwt>0</asrwt>
<pdfrwt beam="1">  1        2 0.10756075E+00 0.67903206E+03</pdfrwt>
<pdfrwt beam="2">  1       -2 0.47972539E-01 0.67903206E+03</pdfrwt>
<totfact> 0.17130656E+02</totfact>
</mgrwt>
</event>
<event>
 4    1  0.9654646E-007  0.1238993E+04  0.7818608E-02  0.9120120E-01
          2   -1    0    0  501    0  0.00000000000E+00  0.00000000000E+00  0.15061420216E+04  0.15061420216E+04  0.25500000000E-02 0. -1.
         -2   -1    0    0    0  501 -0.00000000000E+00 -0.00000000000E+00 -0.18757307418E+04  0.18757307418E+04  0.25500000000E-02 0.  1.
    8880023    1    1    2    0    0  0.19420560644E+03 -0.10312993016E+04 -0.14231986298E+04  0.18869548520E+04  0.65864270000E+03 0.  0.
    8880022    1    1    2    0    0 -0.19420560644E+03  0.10312993016E+04  0.10536099097E+04  0.14949179114E+04  0.15294330000E+03 0.  0.
<mgrwt>
<rscale>  0 0.11917375E+04</rscale>
<asrwt>0</asrwt>
<pdfrwt beam="1">  1        2 0.23171416E+00 0.12389932E+04</pdfrwt>
<pdfrwt beam="2">  1       -2 0.28857396E+00 0.12389932E+04</pdfrwt>
<totfact> 0.45580793E-01</totfact>
</mgrwt>
</event>
<event>
 4    1  0.9654646E-007  0.7778904E+03  0.7818608E-02  0.9760816E-01
          2   -1    0    0  501    0  0.00000000000E+00  0.00000000000E+00  0.15987340463E+04  0.15987340463E+04  0.25500000000E-02 0. -1.
         -2   -1    0    0    0  501 -0.00000000000E+00 -0.00000000000E+00 -0.43714721583E+03  0.43714721583E+03  0.25500000000E-02 0.  1.
    8880023    1    1    2    0    0  0.21246865835E+03  0.35519058402E+03 -0.16299615563E+02  0.77806115794E+03  0.65864270000E+03 0.  1.
    8880022    1    1    2    0    0 -0.21246865835E+03 -0.35519058402E+03  0.11778864460E+04  0.12578201042E+04  0.15294330000E+03 0.  0.
<mgrwt>
<rscale>  0 0.67508451E+03</rscale>
<asrwt>0</asrwt>
<pdfrwt beam="1">  1        2 0.24595908E+00 0.77789041E+03</pdfrwt>
<pdfrwt beam="2">  1       -2 0.67253418E-01 0.77789041E+03</pdfrwt>
<totfact> 0.23155917E+01</totfact>
</mgrwt>
</event>
<event>
 4    1  0.9654646E-007  0.6609841E+03  0.7818608E-02  0.1023170E+00
          2   -1    0    0  501    0  0.00000000000E+00  0.00000000000E+00  0.11206542037E+04  0.11206542037E+04  0.25500000000E-02 0. -1.
         -2   -1    0    0    0  501 -0.00000000000E+00 -0.00000000000E+00 -0.40412262137E+03  0.40412262138E+03  0.25500000000E-02 0.  1.
    8880023    1    1    2    0    0  0.54428940501E+02  0.11278286016E+02 -0.12066816255E+03  0.67190826830E+03  0.65864270000E+03 0.  1.
    8880022    1    1    2    0    0 -0.54428940501E+02 -0.11278286016E+02  0.83719974492E+03  0.85286855682E+03  0.15294330000E+03 0.  0.
<mgrwt>
<rscale>  0 0.46559765E+03</rscale>
<asrwt>0</asrwt>
<pdfrwt beam="1">  1        2 0.17240834E+00 0.66098405E+03</pdfrwt>
<pdfrwt beam="2">  1       -2 0.62172712E-01 0.66098405E+03</pdfrwt>
<totfact> 0.52102309E+01</totfact>
</mgrwt>
</event>
<event>
 4    1  0.9654646E-007  0.6806643E+03  0.7818608E-02  0.1008950E+00
          2   -1    0    0  501    0  0.00000000000E+00  0.00000000000E+00  0.68655032688E+03  0.68655032688E+03  0.25500000000E-02 0. -1.
         -2   -1    0    0    0  501 -0.00000000000E+00 -0.00000000000E+00 -0.63732063450E+03  0.63732063451E+03  0.25500000000E-02 0.  1.
    8880023    1    1    2    0    0  0.84154974188E+02  0.14970500069E+03 -0.42105560325E+03  0.80036971095E+03  0.65864270000E+03 0.  0.
    8880022    1    1    2    0    0 -0.84154974188E+02 -0.14970500069E+03  0.47028529563E+03  0.52350125044E+03  0.15294330000E+03 0.  0.
<mgrwt>
<rscale>  0 0.51893933E+03</rscale>
<asrwt>0</asrwt>
<pdfrwt beam="1">  1        2 0.10562313E+00 0.68066427E+03</pdfrwt>
<pdfrwt beam="2">  1       -2 0.98049328E-01 0.68066427E+03</pdfrwt>
<totfact> 0.37030370E+01</totfact>
</mgrwt>
</event>
<event>
 4    1  0.9654646E-007  0.8061871E+03  0.7818608E-02  0.9697575E-01
         -2   -1    0    0    0  501 -0.00000000000E+00  0.00000000000E+00  0.45197499850E+03  0.45197499850E+03  0.25500000000E-02 0.  1.
          2   -1    0    0  501    0  0.00000000000E+00 -0.00000000000E+00 -0.92904204864E+03  0.92904204864E+03  0.25500000000E-02 0. -1.
    8880023    1    1    2    0    0 -0.23271639393E+03 -0.40245551144E+03 -0.31357433507E+03  0.86502394682E+03  0.65864270000E+03 0.  0.
    8880022    1    1    2    0    0  0.23271639393E+03  0.40245551144E+03 -0.16349271507E+03  0.51599310033E+03  0.15294330000E+03 0. -1.
<mgrwt>
<rscale>  0 0.71161380E+03</rscale>
<asrwt>0</asrwt>
<pdfrwt beam="1">  1        2 0.14292955E+00 0.80618705E+03</pdfrwt>
<pdfrwt beam="2">  1       -2 0.69534615E-01 0.80618705E+03</pdfrwt>
<totfact> 0.53410873E+01</totfact>
</mgrwt>
</event>
<event>
 4    1  0.9654646E-007  0.6641077E+03  0.7818608E-02  0.1020294E+00
         -2   -1    0    0    0  501 -0.00000000000E+00  0.00000000000E+00  0.12795673507E+03  0.12795673509E+03  0.25500000000E-02 0.  1.
          2   -1    0    0  501    0  0.00000000000E+00 -0.00000000000E+00 -0.38598263569E+04  0.38598263569E+04  0.25500000000E-02 0. -1.
    8880023    1    1    2    0    0 -0.23687075069E+02  0.81656520144E+02 -0.75395813330E+03  0.10047347599E+04  0.65864270000E+03 0.  1.
    8880022    1    1    2    0    0  0.23687075069E+02 -0.81656520144E+02 -0.29779114885E+04  0.29830483321E+04  0.15294330000E+03 0.  0.
<mgrwt>
<rscale>  0 0.47580660E+03</rscale>
<asrwt>0</asrwt>
<pdfrwt beam="1">  1        2 0.59381935E+00 0.66410773E+03</pdfrwt>
<pdfrwt beam="2">  1       -2 0.19685655E-01 0.66410773E+03</pdfrwt>
<totfact> 0.10805823E+01</totfact>
</mgrwt>
</event>
<event>
 4    1  0.9654646E-007  0.8226367E+03  0.7818608E-02  0.9663833E-01
          2   -1    0    0  501    0  0.00000000000E+00  0.00000000000E+00  0.61849176334E+03  0.61849176335E+03  0.25500000000E-02 0. -1.
         -2   -1    0    0    0  501 -0.00000000000E+00 -0.00000000000E+00 -0.93228697818E+03  0.93228697819E+03  0.25500000000E-02 0.  1.
    8880023    1    1    2    0    0 -0.48700371020E+03  0.75817363118E+02 -0.54344438249E+03  0.98593249740E+03  0.65864270000E+03 0.  0.
    8880022    1    1    2    0    0  0.48700371020E+03 -0.75817363118E+02  0.22964916765E+03  0.56484624414E+03  0.15294330000E+03 0.  0.
<mgrwt>
<rscale>  0 0.73211617E+03</rscale>
<asrwt>0</asrwt>
<pdfrwt beam="1">  1        2 0.95152579E-01 0.82263667E+03</pdfrwt>
<pdfrwt beam="2">  1       -2 0.14342877E+00 0.82263667E+03</pdfrwt>
<totfact> 0.16236290E+01</totfact>
</mgrwt>
</event>
<event>
 4    1  0.9654646E-007  0.7317112E+03  0.7818608E-02  0.9884785E-01
          2   -1    0    0  501    0  0.00000000000E+00  0.00000000000E+00  0.20764539035E+04  0.20764539035E+04  0.25500000000E-02 0. -1.
         -2   -1    0    0    0  501 -0.00000000000E+00 -0.00000000000E+00 -0.21702171419E+03  0.21702171421E+03  0.25500000000E-02 0.  1.
    8880023    1    1    2    0    0  0.30432265855E+03  0.94756398689E+02  0.49360461035E+03  0.88263626326E+03  0.65864270000E+03 0.  1.
    8880022    1    1    2    0    0 -0.30432265855E+03 -0.94756398689E+02  0.13658275790E+04  0.14108393545E+04  0.15294330000E+03 0.  0.
<mgrwt>
<rscale>  0 0.61004379E+03</rscale>
<asrwt>0</asrwt>
<pdfrwt beam="1">  1        2 0.31945444E+00 0.73171119E+03</pdfrwt>
<pdfrwt beam="2">  1       -2 0.33387956E-01 0.73171119E+03</pdfrwt>
<totfact> 0.52456522E+01</totfact>
</mgrwt>
</event>
<event>
 4    1  0.9654646E-007  0.7040813E+03  0.7818608E-02  0.9980674E-01
         -2   -1    0    0    0  501 -0.00000000000E+00  0.00000000000E+00  0.15113855926E+03  0.15113855928E+03  0.25500000000E-02 0.  1.
          2   -1    0    0  501    0  0.00000000000E+00 -0.00000000000E+00 -0.17929752395E+04  0.17929752395E+04  0.25500000000E-02 0. -1.
    8880023    1    1    2    0    0  0.24858517955E+03 -0.11208747749E+02 -0.87222194089E+03  0.11209377984E+04  0.65864270000E+03 0.  0.
    8880022    1    1    2    0    0 -0.24858517955E+03  0.11208747749E+02 -0.76961473934E+03  0.82317600035E+03  0.15294330000E+03 0.  0.
<mgrwt>
<rscale>  0 0.56505833E+03</rscale>
<asrwt>0</asrwt>
<pdfrwt beam="1">  1        2 0.27584233E+00 0.70408127E+03</pdfrwt>
<pdfrwt beam="2">  1       -2 0.23252087E-01 0.70408127E+03</pdfrwt>
<totfact> 0.14579584E+02</totfact>
</mgrwt>
</event>
<event>
 4    1  0.9654646E-007  0.9357416E+03  0.7818608E-02  0.9470933E-01
          2   -1    0    0  501    0  0.00000000000E+00  0.00000000000E+00  0.41380565273E+04  0.41380565273E+04  0.25500000000E-02 0. -1.
         -2   -1    0    0    0  501 -0.00000000000E+00 -0.00000000000E+00 -0.45272562564E+03  0.45272562564E+03  0.25500000000E-02 0.  1.
    8880023    1    1    2    0    0 -0.23856803319E+03 -0.62039300800E+03  0.99904834195E+02  0.94105970745E+03  0.65864270000E+03 0.  1.
    8880022    1    1    2    0    0  0.23856803319E+03  0.62039300800E+03  0.35854260675E+04  0.36497224455E+04  0.15294330000E+03 0.  0.
<mgrwt>
<rscale>  0 0.86461190E+03</rscale>
<asrwt>0</asrwt>
<pdfrwt beam="1">  1        2 0.63662407E+00 0.93574163E+03</pdfrwt>
<pdfrwt beam="2">  1       -2 0.69650098E-01 0.93574163E+03</pdfrwt>
<totfact> 0.53011131E-01</totfact>
</mgrwt>
</event>
<event>
 4    1  0.9654646E-007  0.1245091E+04  0.7818608E-02  0.9114490E-01
          2   -1    0    0  501    0  0.00000000000E+00  0.00000000000E+00  0.16605937771E+04  0.16605937771E+04  0.25500000000E-02 0. -1.
         -2   -1    0    0    0  501 -0.00000000000E+00 -0.00000000000E+00 -0.18270222023E+04  0.18270222023E+04  0.25500000000E-02 0.  1.
    8880023    1    1    2    0    0 -0.94331078899E+03 -0.47603279109E+03  0.12163658720E+04  0.17406316680E+04  0.65864270000E+03 0.  0.
    8880022    1    1    2    0    0  0.94331078899E+03  0.47603279109E+03 -0.13827942972E+04  0.17469843114E+04  0.15294330000E+03 0.  0.
<mgrwt>
<rscale>  0 0.11981361E+04</rscale>
<asrwt>0</asrwt>
<pdfrwt beam="1">  1        2 0.25547596E+00 0.12450914E+04</pdfrwt>
<pdfrwt beam="2">  1       -2 0.28108034E+00 0.12450914E+04</pdfrwt>
<totfact> 0.41421628E-01</totfact>
</mgrwt>
</event>
<event>
 4    1  0.9654646E-007  0.8950230E+03  0.7818608E-02  0.9534069E-01
          2   -1    0    0  501    0  0.00000000000E+00  0.00000000000E+00  0.17810311176E+04  0.17810311176E+04  0.25500000000E-02 0. -1.
         -2   -1    0    0    0  501 -0.00000000000E+00 -0.00000000000E+00 -0.11279578113E+04  0.11279578113E+04  0.25500000000E-02 0.  1.
    8880023    1    1    2    0    0 -0.22259059767E+03 -0.56365713141E+03 -0.87891094379E+03  0.12544124479E+04  0.65864270000E+03 0.  0.
    8880022    1    1    2    0    0  0.22259059767E+03  0.56365713141E+03  0.15319842501E+04  0.16545764810E+04  0.15294330000E+03 0. -1.
<mgrwt>
<rscale>  0 0.81817986E+03</rscale>
<asrwt>0</asrwt>
<pdfrwt beam="1">  1        2 0.27400479E+00 0.89502298E+03</pdfrwt>
<pdfrwt beam="2">  1       -2 0.17353197E+00 0.89502298E+03</pdfrwt>
<totfact> 0.17968193E+00</totfact>
</mgrwt>
</event>
<event>
 4    1  0.9654646E-007  0.8874129E+03  0.7818608E-02  0.9546548E-01
         -2   -1    0    0    0  501 -0.00000000000E+00  0.00000000000E+00  0.60537596466E+03  0.60537596467E+03  0.25500000000E-02 0.  1.
          2   -1    0    0  501    0  0.00000000000E+00 -0.00000000000E+00 -0.10516712200E+04  0.10516712200E+04  0.25500000000E-02 0. -1.
    8880023    1    1    2    0    0 -0.21008533457E+03  0.55637724348E+03 -0.53559792770E+03  0.10365166816E+04  0.65864270000E+03 0.  0.
    8880022    1    1    2    0    0  0.21008533457E+03 -0.55637724348E+03  0.89302672392E+02  0.62053050302E+03  0.15294330000E+03 0.  0.
<mgrwt>
<rscale>  0 0.80937344E+03</rscale>
<asrwt>0</asrwt>
<pdfrwt beam="1">  1        2 0.16179557E+00 0.88741292E+03</pdfrwt>
<pdfrwt beam="2">  1       -2 0.93134764E-01 0.88741292E+03</pdfrwt>
<totfact> 0.22881379E+01</totfact>
</mgrwt>
</event>
<event>
 4    1  0.9654646E-007  0.7332446E+03  0.7818608E-02  0.9880081E-01
         -2   -1    0    0    0  501 -0.00000000000E+00  0.00000000000E+00  0.50490318238E+03  0.50490318239E+03  0.25500000000E-02 0.  1.
          2   -1    0    0  501    0  0.00000000000E+00 -0.00000000000E+00 -0.20580423130E+04  0.20580423130E+04  0.25500000000E-02 0. -1.
    8880023    1    1    2    0    0 -0.29291524506E+03  0.13430580479E+03  0.21108594575E+03  0.76302350733E+03  0.65864270000E+03 0.  1.
    8880022    1    1    2    0    0  0.29291524506E+03 -0.13430580479E+03 -0.17642250763E+04  0.17999219880E+04  0.15294330000E+03 0.  0.
<mgrwt>
<rscale>  0 0.61236438E+03</rscale>
<asrwt>0</asrwt>
<pdfrwt beam="1">  1        2 0.31662189E+00 0.73324457E+03</pdfrwt>
<pdfrwt beam="2">  1       -2 0.77677414E-01 0.73324457E+03</pdfrwt>
<totfact> 0.95209383E+00</totfact>
</mgrwt>
</event>
<event>
 4    1  0.9654646E-007  0.9103194E+03  0.7818608E-02  0.9509665E-01
          2   -1    0    0  501    0  0.00000000000E+00  0.00000000000E+00  0.64078603550E+03  0.64078603551E+03  0.25500000000E-02 0. -1.
         -2   -1    0    0    0  501 -0.00000000000E+00 -0.00000000000E+00 -0.12064211325E+04  0.12064211325E+04  0.25500000000E-02 0.  1.
    8880023    1    1    2    0    0 -0.38960635624E+03 -0.49302949256E+03 -0.74472499712E+03  0.11761363530E+04  0.65864270000E+03 0.  0.
    8880022    1    1    2    0    0  0.38960635624E+03  0.49302949256E+03  0.17908990013E+03  0.67107081497E+03  0.15294330000E+03 0.  0.
<mgrwt>
<rscale>  0 0.83575024E+03</rscale>
<asrwt>0</asrwt>
<pdfrwt beam="1">  1        2 0.98582467E-01 0.91031939E+03</pdfrwt>
<pdfrwt beam="2">  1       -2 0.18560325E+00 0.91031939E+03</pdfrwt>
<totfact> 0.76063827E+00</totfact>
</mgrwt>
</event>
<event>
 4    1  0.9654646E-007  0.1334917E+04  0.7818608E-02  0.9035979E-01
         -2   -1    0    0    0  501 -0.00000000000E+00  0.00000000000E+00  0.14036067032E+04  0.14036067032E+04  0.25500000000E-02 0.  1.
          2   -1    0    0  501    0  0.00000000000E+00 -0.00000000000E+00 -0.22372871699E+04  0.22372871699E+04  0.25500000000E-02 0. -1.
    8880023    1    1    2    0    0  0.81237935053E+03 -0.82959808560E+03  0.85543447937E+03  0.15854877948E+04  0.65864270000E+03 0.  0.
    8880022    1    1    2    0    0 -0.81237935053E+03  0.82959808560E+03 -0.16891149461E+04  0.20554060783E+04  0.15294330000E+03 0.  0.
<mgrwt>
<rscale>  0 0.12919435E+04</rscale>
<asrwt>0</asrwt>
<pdfrwt beam="1">  1        2 0.34419803E+00 0.13349170E+04</pdfrwt>
<pdfrwt beam="2">  1       -2 0.21593949E+00 0.13349170E+04</pdfrwt>
<totfact> 0.49352217E-01</totfact>
</mgrwt>
</event>
<event>
 4    1  0.9654646E-007  0.8298777E+03  0.7818608E-02  0.9649570E-01
          2   -1    0    0  501    0  0.00000000000E+00  0.00000000000E+00  0.28239757618E+04  0.28239757618E+04  0.25500000000E-02 0. -1.
         -2   -1    0    0    0  501 -0.00000000000E+00 -0.00000000000E+00 -0.46731669129E+03  0.46731669130E+03  0.25500000000E-02 0.  1.
    8880023    1    1    2    0    0 -0.70292454817E+02  0.49994567570E+03 -0.46244998454E+02  0.83116515447E+03  0.65864270000E+03 0.  0.
    8880022    1    1    2    0    0  0.70292454817E+02 -0.49994567570E+03  0.24029040690E+04  0.24601272986E+04  0.15294330000E+03 0.  0.
<mgrwt>
<rscale>  0 0.74100388E+03</rscale>
<asrwt>0</asrwt>
<pdfrwt beam="1">  1        2 0.43445779E+00 0.82987765E+03</pdfrwt>
<pdfrwt beam="2">  1       -2 0.71894880E-01 0.82987765E+03</pdfrwt>
<totfact> 0.40974111E+00</totfact>
</mgrwt>
</event>
<event>
 4    1  0.9654646E-007  0.6696250E+03  0.7818608E-02  0.1015933E+00
         -2   -1    0    0    0  501 -0.00000000000E+00  0.00000000000E+00  0.27906203136E+03  0.27906203137E+03  0.25500000000E-02 0.  1.
          2   -1    0    0  501    0  0.00000000000E+00 -0.00000000000E+00 -0.10357868721E+04  0.10357868722E+04  0.25500000000E-02 0. -1.
    8880023    1    1    2    0    0 -0.11733892601E+03  0.28617781157E+02 -0.16190809142E+03  0.68892077722E+03  0.65864270000E+03 0.  1.
    8880022    1    1    2    0    0  0.11733892601E+03 -0.28617781157E+02 -0.59481674937E+03  0.62592812631E+03  0.15294330000E+03 0.  0.
<mgrwt>
<rscale>  0 0.49183196E+03</rscale>
<asrwt>0</asrwt>
<pdfrwt beam="1">  1        2 0.15935182E+00 0.66962498E+03</pdfrwt>
<pdfrwt beam="2">  1       -2 0.42932621E-01 0.66962498E+03</pdfrwt>
<totfact> 0.12523908E+02</totfact>
</mgrwt>
</event>
<event>
 4    1  0.9654646E-007  0.7317436E+03  0.7818608E-02  0.9884685E-01
         -2   -1    0    0    0  501 -0.00000000000E+00  0.00000000000E+00  0.40625305953E+03  0.40625305954E+03  0.25500000000E-02 0.  1.
          2   -1    0    0  501    0  0.00000000000E+00 -0.00000000000E+00 -0.95278949075E+03  0.95278949075E+03  0.25500000000E-02 0. -1.
    8880023    1    1    2    0    0 -0.12011170345E+03 -0.29531614219E+03 -0.29091744154E+02  0.73232163766E+03  0.65864270000E+03 0.  0.
    8880022    1    1    2    0    0  0.12011170345E+03  0.29531614219E+03 -0.51744468707E+03  0.62672091263E+03  0.15294330000E+03 0.  0.
<mgrwt>
<rscale>  0 0.61009295E+03</rscale>
<asrwt>0</asrwt>
<pdfrwt beam="1">  1        2 0.14658300E+00 0.73174357E+03</pdfrwt>
<pdfrwt beam="2">  1       -2 0.62500471E-01 0.73174357E+03</pdfrwt>
<totfact> 0.65224404E+01</totfact>
</mgrwt>
</event>
<event>
 4    1  0.9654646E-007  0.7253039E+03  0.7818608E-02  0.9905032E-01
          2   -1    0    0  501    0  0.00000000000E+00  0.00000000000E+00  0.15799636206E+04  0.15799636206E+04  0.25500000000E-02 0. -1.
         -2   -1    0    0    0  501 -0.00000000000E+00 -0.00000000000E+00 -0.27622409449E+03  0.27622409450E+03  0.25500000000E-02 0.  1.
    8880023    1    1    2    0    0  0.29305788942E+03 -0.79828886890E+02  0.28005236019E+03  0.77749283498E+03  0.65864270000E+03 0.  1.
    8880022    1    1    2    0    0 -0.29305788942E+03  0.79828886890E+02  0.10236871659E+04  0.10786948801E+04  0.15294330000E+03 0.  0.
<mgrwt>
<rscale>  0 0.60018056E+03</rscale>
<asrwt>0</asrwt>
<pdfrwt beam="1">  1        2 0.24307133E+00 0.72530393E+03</pdfrwt>
<pdfrwt beam="2">  1       -2 0.42496014E-01 0.72530393E+03</pdfrwt>
<totfact> 0.61546490E+01</totfact>
</mgrwt>
</event>
<event>
 4    1  0.9654646E-007  0.8601631E+03  0.7818608E-02  0.9593273E-01
          2   -1    0    0  501    0  0.00000000000E+00  0.00000000000E+00  0.16757109261E+04  0.16757109261E+04  0.25500000000E-02 0. -1.
         -2   -1    0    0    0  501 -0.00000000000E+00 -0.00000000000E+00 -0.86355669741E+03  0.86355669742E+03  0.25500000000E-02 0.  1.
    8880023    1    1    2    0    0  0.52844478921E+03  0.16375747331E+03 -0.57729365448E+03  0.10359288465E+04  0.65864270000E+03 0.  1.
    8880022    1    1    2    0    0 -0.52844478921E+03 -0.16375747331E+03  0.13894478832E+04  0.15033387770E+04  0.15294330000E+03 0.  0.
<mgrwt>
<rscale>  0 0.77743000E+03</rscale>
<asrwt>0</asrwt>
<pdfrwt beam="1">  1        2 0.25780168E+00 0.86016313E+03</pdfrwt>
<pdfrwt beam="2">  1       -2 0.13285488E+00 0.86016313E+03</pdfrwt>
<totfact> 0.42101126E+00</totfact>
</mgrwt>
</event>
<event>
 4    1  0.9654646E-007  0.6960946E+03  0.7818608E-02  0.1001380E+00
          2   -1    0    0  501    0  0.00000000000E+00  0.00000000000E+00  0.27282619927E+03  0.27282619928E+03  0.25500000000E-02 0. -1.
         -2   -1    0    0    0  501 -0.00000000000E+00 -0.00000000000E+00 -0.33107966979E+04  0.33107966979E+04  0.25500000000E-02 0.  1.
    8880023    1    1    2    0    0 -0.11193500373E+00 -0.22524992168E+03 -0.31945720128E+04  0.32695317846E+04  0.65864270000E+03 0.  1.
    8880022    1    1    2    0    0  0.11193500373E+00  0.22524992168E+03  0.15660151413E+03  0.31409111256E+03  0.15294330000E+03 0.  0.
<mgrwt>
<rscale>  0 0.55049056E+03</rscale>
<asrwt>0</asrwt>
<pdfrwt beam="1">  1        2 0.41973264E-01 0.69609464E+03</pdfrwt>
<pdfrwt beam="2">  1       -2 0.50935331E+00 0.69609464E+03</pdfrwt>
<totfact> 0.18762199E-01</totfact>
</mgrwt>
</event>
<event>
 4    1  0.9654646E-007  0.6668023E+03  0.7818608E-02  0.1018067E+00
         -2   -1    0    0    0  501 -0.00000000000E+00  0.00000000000E+00  0.44968786442E+03  0.44968786443E+03  0.25500000000E-02 0.  1.
          2   -1    0    0  501    0  0.00000000000E+00 -0.00000000000E+00 -0.11196997737E+04  0.11196997737E+04  0.25500000000E-02 0. -1.
    8880023    1    1    2    0    0 -0.63010854874E+02  0.82732850631E+02  0.18709488826E+03  0.69255309968E+03  0.65864270000E+03 0.  0.
    8880022    1    1    2    0    0  0.63010854874E+02 -0.82732850631E+02 -0.85710679756E+03  0.87683453847E+03  0.15294330000E+03 0. -1.
<mgrwt>
<rscale>  0 0.48390686E+03</rscale>
<asrwt>0</asrwt>
<pdfrwt beam="1">  1        2 0.17226150E+00 0.66680229E+03</pdfrwt>
<pdfrwt beam="2">  1       -2 0.69182749E-01 0.66680229E+03</pdfrwt>
<totfact> 0.41445718E+01</totfact>
</mgrwt>
</event>
<event>
 4    1  0.9654646E-007  0.7060556E+03  0.7818608E-02  0.9972950E-01
          2   -1    0    0  501    0  0.00000000000E+00  0.00000000000E+00  0.19869174183E+04  0.19869174183E+04  0.25500000000E-02 0. -1.
         -2   -1    0    0    0  501 -0.00000000000E+00 -0.00000000000E+00 -0.78366105018E+03  0.78366105018E+03  0.25500000000E-02 0.  1.
    8880023    1    1    2    0    0  0.25373791068E+03 -0.17927113912E+02 -0.61007510373E+03  0.93311636315E+03  0.65864270000E+03 0.  1.
    8880022    1    1    2    0    0 -0.25373791068E+03  0.17927113912E+02  0.18133314718E+04  0.18374621053E+04  0.15294330000E+03 0.  0.
<mgrwt>
<rscale>  0 0.56852384E+03</rscale>
<asrwt>0</asrwt>
<pdfrwt beam="1">  1        2 0.30567960E+00 0.70605560E+03</pdfrwt>
<pdfrwt beam="2">  1       -2 0.12056324E+00 0.70605560E+03</pdfrwt>
<totfact> 0.37234475E+00</totfact>
</mgrwt>
</event>
<event>
 4    1  0.9654646E-007  0.7366443E+03  0.7818608E-02  0.9869832E-01
          2   -1    0    0  501    0  0.00000000000E+00  0.00000000000E+00  0.28287060362E+04  0.28287060362E+04  0.25500000000E-02 0. -1.
         -2   -1    0    0    0  501 -0.00000000000E+00 -0.00000000000E+00 -0.19317895168E+03  0.19317895169E+03  0.25500000000E-02 0.  1.
    8880023    1    1    2    0    0  0.21039134265E+03  0.25410658544E+03  0.58862279233E+03  0.94293248525E+03  0.65864270000E+03 0.  1.
    8880022    1    1    2    0    0 -0.21039134265E+03 -0.25410658544E+03  0.20469042922E+04  0.20789525026E+04  0.15294330000E+03 0.  0.
<mgrwt>
<rscale>  0 0.61745901E+03</rscale>
<asrwt>0</asrwt>
<pdfrwt beam="1">  1        2 0.43518553E+00 0.73664434E+03</pdfrwt>
<pdfrwt beam="2">  1       -2 0.29719839E-01 0.73664434E+03</pdfrwt>
<totfact> 0.24459200E+01</totfact>
</mgrwt>
</event>
<event>
 4    1  0.9654646E-007  0.6686958E+03  0.7818608E-02  0.1016616E+00
         -2   -1    0    0    0  501 -0.00000000000E+00  0.00000000000E+00  0.64170482383E+02  0.64170482434E+02  0.25500000000E-02 0.  1.
          2   -1    0    0  501    0  0.00000000000E+00 -0.00000000000E+00 -0.32782845960E+04  0.32782845960E+04  0.25500000000E-02 0. -1.
    8880023    1    1    2    0    0 -0.52204119179E+02  0.10304642583E+03 -0.18957022395E+04  0.20101843257E+04  0.65864270000E+03 0.  1.
    8880022    1    1    2    0    0  0.52204119179E+02 -0.10304642583E+03 -0.13184118741E+04  0.13322707528E+04  0.15294330000E+03 0.  0.
<mgrwt>
<rscale>  0 0.48927966E+03</rscale>
<asrwt>0</asrwt>
<pdfrwt beam="1">  1        2 0.50435135E+00 0.66869578E+03</pdfrwt>
<pdfrwt beam="2">  1       -2 0.98723844E-02 0.66869578E+03</pdfrwt>
<totfact> 0.87079424E+01</totfact>
</mgrwt>
</event>
<event>
 4    1  0.9654646E-007  0.1445921E+04  0.7818608E-02  0.8948798E-01
          2   -1    0    0  501    0  0.00000000000E+00  0.00000000000E+00  0.10360205074E+04  0.10360205074E+04  0.25500000000E-02 0. -1.
         -2   -1    0    0    0  501 -0.00000000000E+00 -0.00000000000E+00 -0.18859891715E+04  0.18859891715E+04  0.25500000000E-02 0.  1.
    8880023    1    1    2    0    0  0.12748638109E+04 -0.17776016836E+03 -0.16329589978E+03  0.14551124256E+04  0.65864270000E+03 0.  0.
    8880022    1    1    2    0    0 -0.12748638109E+04  0.17776016836E+03 -0.68667276431E+03  0.14668972534E+04  0.15294330000E+03 0.  0.
<mgrwt>
<rscale>  0 0.14069565E+04</rscale>
<asrwt>0</asrwt>
<pdfrwt beam="1">  1        2 0.15938777E+00 0.14459207E+04</pdfrwt>
<pdfrwt beam="2">  1       -2 0.29015218E+00 0.14459207E+04</pdfrwt>
<totfact> 0.83030800E-01</totfact>
</mgrwt>
</event>
<event>
 4    1  0.9654646E-007  0.7415040E+03  0.7818608E-02  0.9855587E-01
          2   -1    0    0  501    0  0.00000000000E+00  0.00000000000E+00  0.18662065795E+04  0.18662065795E+04  0.25500000000E-02 0. -1.
         -2   -1    0    0    0  501 -0.00000000000E+00 -0.00000000000E+00 -0.18854304860E+03  0.18854304862E+03  0.25500000000E-02 0.  1.
    8880023    1    1    2    0    0  0.77854236445E+02 -0.33159721954E+03  0.74956030884E+03  0.10543570842E+04  0.65864270000E+03 0.  0.
    8880022    1    1    2    0    0 -0.77854236445E+02  0.33159721954E+03  0.92810322201E+03  0.10003925439E+04  0.15294330000E+03 0.  0.
<mgrwt>
<rscale>  0 0.62462841E+03</rscale>
<asrwt>0</asrwt>
<pdfrwt beam="1">  1        2 0.28710870E+00 0.74150402E+03</pdfrwt>
<pdfrwt beam="2">  1       -2 0.29006624E-01 0.74150402E+03</pdfrwt>
<totfact> 0.88721937E+01</totfact>
</mgrwt>
</event>
<event>
 4    1  0.9654646E-007  0.1016696E+04  0.7818608E-02  0.9360033E-01
         -2   -1    0    0    0  501 -0.00000000000E+00  0.00000000000E+00  0.12363248835E+04  0.12363248835E+04  0.25500000000E-02 0.  1.
          2   -1    0    0  501    0  0.00000000000E+00 -0.00000000000E+00 -0.11802326940E+04  0.11802326940E+04  0.25500000000E-02 0. -1.
    8880023    1    1    2    0    0  0.12109812251E+03 -0.76498076917E+03  0.82892287718E+03  0.13117864441E+04  0.65864270000E+03 0.  1.
    8880022    1    1    2    0    0 -0.12109812251E+03  0.76498076917E+03 -0.77283068767E+03  0.11047711334E+04  0.15294330000E+03 0.  0.
<mgrwt>
<rscale>  0 0.95439084E+03</rscale>
<asrwt>0</asrwt>
<pdfrwt beam="1">  1        2 0.18157426E+00 0.10166959E+04</pdfrwt>
<pdfrwt beam="2">  1       -2 0.19020383E+00 0.10166959E+04</pdfrwt>
<totfact> 0.29771414E+00</totfact>
</mgrwt>
</event>
<event>
 4    1  0.9654646E-007  0.6856740E+03  0.7818608E-02  0.1006280E+00
          2   -1    0    0  501    0  0.00000000000E+00  0.00000000000E+00  0.14640478104E+04  0.14640478104E+04  0.25500000000E-02 0. -1.
         -2   -1    0    0    0  501 -0.00000000000E+00 -0.00000000000E+00 -0.22452971797E+03  0.22452971798E+03  0.25500000000E-02 0.  1.
    8880023    1    1    2    0    0  0.84231996580E+01 -0.19044089230E+03  0.35740044060E+03  0.77322956808E+03  0.65864270000E+03 0.  0.
    8880022    1    1    2    0    0 -0.84231996580E+01  0.19044089230E+03  0.88211765187E+03  0.91534796035E+03  0.15294330000E+03 0.  0.
<mgrwt>
<rscale>  0 0.52980085E+03</rscale>
<asrwt>0</asrwt>
<pdfrwt beam="1">  1        2 0.22523813E+00 0.68567404E+03</pdfrwt>
<pdfrwt beam="2">  1       -2 0.34543033E-01 0.68567404E+03</pdfrwt>
<totfact> 0.10696062E+02</totfact>
</mgrwt>
</event>
<event>
 4    1  0.9654646E-007  0.6769161E+03  0.7818608E-02  0.1011125E+00
         -2   -1    0    0    0  501 -0.00000000000E+00  0.00000000000E+00  0.99317129090E+03  0.99317129090E+03  0.25500000000E-02 0.  1.
          2   -1    0    0  501    0  0.00000000000E+00 -0.00000000000E+00 -0.49753761216E+03  0.49753761216E+03  0.25500000000E-02 0. -1.
    8880023    1    1    2    0    0 -0.99558267640E+02 -0.12038818843E+03  0.84246461674E+03  0.10807229068E+04  0.65864270000E+03 0.  1.
    8880022    1    1    2    0    0  0.99558267640E+02  0.12038818843E+03 -0.34683093799E+03  0.40998599626E+03  0.15294330000E+03 0.  0.
<mgrwt>
<rscale>  0 0.51030050E+03</rscale>
<asrwt>0</asrwt>
<pdfrwt beam="1">  1        2 0.76544248E-01 0.67691607E+03</pdfrwt>
<pdfrwt beam="2">  1       -2 0.15279558E+00 0.67691607E+03</pdfrwt>
<totfact> 0.18035237E+01</totfact>
</mgrwt>
</event>
<event>
 4    1  0.9654646E-007  0.8543903E+03  0.7818608E-02  0.9603621E-01
         -2   -1    0    0    0  501 -0.00000000000E+00  0.00000000000E+00  0.86633194158E+03  0.86633194159E+03  0.25500000000E-02 0.  1.
          2   -1    0    0  501    0  0.00000000000E+00 -0.00000000000E+00 -0.10062994485E+04  0.10062994485E+04  0.25500000000E-02 0. -1.
    8880023    1    1    2    0    0  0.11344135167E+03  0.53226282726E+03  0.52270312337E+03  0.10015994304E+04  0.65864270000E+03 0.  1.
    8880022    1    1    2    0    0 -0.11344135167E+03 -0.53226282726E+03 -0.66267063032E+03  0.87103195972E+03  0.15294330000E+03 0.  0.
<mgrwt>
<rscale>  0 0.77056989E+03</rscale>
<asrwt>0</asrwt>
<pdfrwt beam="1">  1        2 0.15481530E+00 0.85439035E+03</pdfrwt>
<pdfrwt beam="2">  1       -2 0.13328184E+00 0.85439035E+03</pdfrwt>
<totfact> 0.10231243E+01</totfact>
</mgrwt>
</event>
<event>
 4    1  0.9654646E-007  0.7390404E+03  0.7818608E-02  0.9862751E-01
          2   -1    0    0  501    0  0.00000000000E+00  0.00000000000E+00  0.18015784908E+04  0.18015784908E+04  0.25500000000E-02 0. -1.
         -2   -1    0    0    0  501 -0.00000000000E+00 -0.00000000000E+00 -0.39376388278E+03  0.39376388278E+03  0.25500000000E-02 0.  1.
    8880023    1    1    2    0    0  0.98362735256E+02  0.32046095137E+03 -0.11037887584E+01  0.73904118536E+03  0.65864270000E+03 0.  1.
    8880022    1    1    2    0    0 -0.98362735256E+02 -0.32046095137E+03  0.14089183968E+04  0.14563011883E+04  0.15294330000E+03 0.  0.
<mgrwt>
<rscale>  0 0.62100978E+03</rscale>
<asrwt>0</asrwt>
<pdfrwt beam="1">  1        2 0.27716592E+00 0.73904036E+03</pdfrwt>
<pdfrwt beam="2">  1       -2 0.60579059E-01 0.73904036E+03</pdfrwt>
<totfact> 0.22530818E+01</totfact>
</mgrwt>
</event>
<event>
 4    1  0.9654646E-007  0.8751605E+03  0.7818608E-02  0.9567145E-01
         -2   -1    0    0    0  501 -0.00000000000E+00  0.00000000000E+00  0.77685020018E+03  0.77685020018E+03  0.25500000000E-02 0.  1.
          2   -1    0    0  501    0  0.00000000000E+00 -0.00000000000E+00 -0.13749543690E+04  0.13749543690E+04  0.25500000000E-02 0. -1.
    8880023    1    1    2    0    0  0.18695292292E+03 -0.54510937487E+03  0.42095655638E+03  0.97113863819E+03  0.65864270000E+03 0.  1.
    8880022    1    1    2    0    0 -0.18695292292E+03  0.54510937487E+03 -0.10190607252E+04  0.11806659310E+04  0.15294330000E+03 0.  0.
<mgrwt>
<rscale>  0 0.79509455E+03</rscale>
<asrwt>0</asrwt>
<pdfrwt beam="1">  1        2 0.21153144E+00 0.87516046E+03</pdfrwt>
<pdfrwt beam="2">  1       -2 0.11951542E+00 0.87516046E+03</pdfrwt>
<totfact> 0.80773619E+00</totfact>
</mgrwt>
</event>
<event>
 4    1  0.9654646E-007  0.9483714E+03  0.7818608E-02  0.9452461E-01
         -2   -1    0    0    0  501 -0.00000000000E+00  0.00000000000E+00  0.75717221767E+03  0.75717221767E+03  0.25500000000E-02 0.  1.
          2   -1    0    0  501    0  0.00000000000E+00 -0.00000000000E+00 -0.19543463922E+04  0.19543463922E+04  0.25500000000E-02 0. -1.
    8880023    1    1    2    0    0  0.60956572012E+03 -0.30663931855E+03  0.35219395006E+03  0.10116564751E+04  0.65864270000E+03 0.  1.
    8880022    1    1    2    0    0 -0.60956572012E+03  0.30663931855E+03 -0.15493681246E+04  0.16998621348E+04  0.15294330000E+03 0.  0.
<mgrwt>
<rscale>  0 0.87881262E+03</rscale>
<asrwt>0</asrwt>
<pdfrwt beam="1">  1        2 0.30066867E+00 0.94837136E+03</pdfrwt>
<pdfrwt beam="2">  1       -2 0.11648803E+00 0.94837136E+03</pdfrwt>
<totfact> 0.40688310E+00</totfact>
</mgrwt>
</event>
<event>
 4    1  0.1114641E-006  0.7352156E+03  0.7818608E-02  0.9874109E-01
          2   -1    0    0  501    0  0.00000000000E+00  0.00000000000E+00  0.19707145969E+04  0.19707145969E+04  0.25500000000E-02 0. -1.
         -2   -1    0    0    0  501 -0.00000000000E+00 -0.00000000000E+00 -0.87219497909E+03  0.87219497909E+03  0.25500000000E-02 0.  1.
    8880023    1    1    2    0    0 -0.31034703996E+03  0.10206091024E+03 -0.69605466094E+03  0.10124396337E+04  0.65864270000E+03 0.  1.
    8880022    1    1    2    0    0  0.31034703996E+03 -0.10206091024E+03  0.17945742787E+04  0.18304699423E+04  0.15294330000E+03 0.  0.
<mgrwt>
<rscale>  0 0.61532623E+03</rscale>
<asrwt>0</asrwt>
<pdfrwt beam="1">  1        2 0.30318686E+00 0.73521556E+03</pdfrwt>
<pdfrwt beam="2">  1       -2 0.13418384E+00 0.73521556E+03</pdfrwt>
<totfact> 0.28876640E+00</totfact>
</mgrwt>
</event>
<event>
 4    1  0.9654646E-007  0.8394746E+03  0.7818608E-02  0.9631172E-01
          2   -1    0    0  501    0  0.00000000000E+00  0.00000000000E+00  0.75621972366E+03  0.75621972366E+03  0.25500000000E-02 0. -1.
         -2   -1    0    0    0  501 -0.00000000000E+00 -0.00000000000E+00 -0.18704658013E+04  0.18704658014E+04  0.25500000000E-02 0.  1.
    8880023    1    1    2    0    0  0.50671085630E+03 -0.11896038795E+03 -0.16581148469E+04  0.18585108333E+04  0.65864270000E+03 0.  1.
    8880022    1    1    2    0    0 -0.50671085630E+03  0.11896038795E+03  0.54386876922E+03  0.76817469169E+03  0.15294330000E+03 0.  0.
<mgrwt>
<rscale>  0 0.75266948E+03</rscale>
<asrwt>0</asrwt>
<pdfrwt beam="1">  1        2 0.11634150E+00 0.83947464E+03</pdfrwt>
<pdfrwt beam="2">  1       -2 0.28776397E+00 0.83947464E+03</pdfrwt>
<totfact> 0.14366268E+00</totfact>
</mgrwt>
</event>
<event>
 4    1  0.9654646E-007  0.7020361E+03  0.7818608E-02  0.9988857E-01
          2   -1    0    0  501    0  0.00000000000E+00  0.00000000000E+00  0.27393686016E+04  0.27393686016E+04  0.25500000000E-02 0. -1.
         -2   -1    0    0    0  501 -0.00000000000E+00 -0.00000000000E+00 -0.11785163489E+03  0.11785163492E+03  0.25500000000E-02 0.  1.
    8880023    1    1    2    0    0 -0.11389777417E+03  0.21464323060E+03  0.10726368093E+04  0.12819533339E+04  0.65864270000E+03 0.  1.
    8880022    1    1    2    0    0  0.11389777417E+03 -0.21464323060E+03  0.15488801574E+04  0.15752669026E+04  0.15294330000E+03 0.  0.
<mgrwt>
<rscale>  0 0.56141528E+03</rscale>
<asrwt>0</asrwt>
<pdfrwt beam="1">  1        2 0.42144135E+00 0.70203606E+03</pdfrwt>
<pdfrwt beam="2">  1       -2 0.18131020E-01 0.70203606E+03</pdfrwt>
<totfact> 0.67088998E+01</totfact>
</mgrwt>
</event>
<event>
 4    1  0.9654646E-007  0.1027788E+04  0.7818608E-02  0.9346072E-01
          2   -1    0    0  501    0  0.00000000000E+00  0.00000000000E+00  0.18823485274E+04  0.18823485274E+04  0.25500000000E-02 0. -1.
         -2   -1    0    0    0  501 -0.00000000000E+00 -0.00000000000E+00 -0.17147038664E+04  0.17147038664E+04  0.25500000000E-02 0.  1.
    8880023    1    1    2    0    0 -0.76577424805E+03  0.19007567906E+03  0.16308226091E+04  0.19276751675E+04  0.65864270000E+03 0. -1.
    8880022    1    1    2    0    0  0.76577424805E+03 -0.19007567906E+03 -0.14631779481E+04  0.16693772263E+04  0.15294330000E+03 0.  0.
<mgrwt>
<rscale>  0 0.96649819E+03</rscale>
<asrwt>0</asrwt>
<pdfrwt beam="1">  1        2 0.28959208E+00 0.10277885E+04</pdfrwt>
<pdfrwt beam="2">  1       -2 0.26380059E+00 0.10277885E+04</pdfrwt>
<totfact> 0.41030569E-01</totfact>
</mgrwt>
</event>
<event>
 4    1  0.9654646E-007  0.7007071E+03  0.7818608E-02  0.9994280E-01
          2   -1    0    0  501    0  0.00000000000E+00  0.00000000000E+00  0.14721901937E+04  0.14721901937E+04  0.25500000000E-02 0. -1.
         -2   -1    0    0    0  501 -0.00000000000E+00 -0.00000000000E+00 -0.36961592517E+03  0.36961592518E+03  0.25500000000E-02 0.  1.
    8880023    1    1    2    0    0  0.66119828433E+02  0.22980078167E+03 -0.26513391184E+01  0.70071211409E+03  0.65864270000E+03 0.  1.
    8880022    1    1    2    0    0 -0.66119828433E+02 -0.22980078167E+03  0.11052256076E+04  0.11410940048E+04  0.15294330000E+03 0.  0.
<mgrwt>
<rscale>  0 0.55901740E+03</rscale>
<asrwt>0</asrwt>
<pdfrwt beam="1">  1        2 0.22649080E+00 0.70070710E+03</pdfrwt>
<pdfrwt beam="2">  1       -2 0.56863989E-01 0.70070710E+03</pdfrwt>
<totfact> 0.39231713E+01</totfact>
</mgrwt>
</event>
<event>
 4    1  0.9654646E-007  0.7320326E+03  0.7818608E-02  0.9883795E-01
         -2   -1    0    0    0  501 -0.00000000000E+00  0.00000000000E+00  0.13848558015E+04  0.13848558015E+04  0.25500000000E-02 0.  1.
          2   -1    0    0  501    0  0.00000000000E+00 -0.00000000000E+00 -0.23987186101E+03  0.23987186103E+03  0.25500000000E-02 0. -1.
    8880023    1    1    2    0    0 -0.24778118330E+03 -0.20165804060E+03  0.10062078235E+04  0.12443174316E+04  0.65864270000E+03 0.  0.
    8880022    1    1    2    0    0  0.24778118330E+03  0.20165804060E+03  0.13877611691E+03  0.38041023090E+03  0.15294330000E+03 0.  0.
<mgrwt>
<rscale>  0 0.61053138E+03</rscale>
<asrwt>0</asrwt>
<pdfrwt beam="1">  1        2 0.36903363E-01 0.73203257E+03</pdfrwt>
<pdfrwt beam="2">  1       -2 0.21305474E+00 0.73203257E+03</pdfrwt>
<totfact> 0.15744049E+01</totfact>
</mgrwt>
</event>
<event>
 4    1  0.9654646E-007  0.9865923E+03  0.7818608E-02  0.9399313E-01
          2   -1    0    0  501    0  0.00000000000E+00  0.00000000000E+00  0.27373325392E+04  0.27373325392E+04  0.25500000000E-02 0. -1.
         -2   -1    0    0    0  501 -0.00000000000E+00 -0.00000000000E+00 -0.28262435363E+03  0.28262435364E+03  0.25500000000E-02 0.  1.
    8880023    1    1    2    0    0 -0.68379121297E+03 -0.26829780514E+03  0.16273274829E+04  0.19030394315E+04  0.65864270000E+03 0. -1.
    8880022    1    1    2    0    0  0.68379121297E+03  0.26829780514E+03  0.82738070270E+03  0.11169174613E+04  0.15294330000E+03 0.  0.
<mgrwt>
<rscale>  0 0.92132235E+03</rscale>
<asrwt>0</asrwt>
<pdfrwt beam="1">  1        2 0.42112808E+00 0.98659229E+03</pdfrwt>
<pdfrwt beam="2">  1       -2 0.43480670E-01 0.98659229E+03</pdfrwt>
<totfact> 0.12888756E+01</totfact>
</mgrwt>
</event>
<event>
 4    1  0.9654646E-007  0.6652168E+03  0.7818608E-02  0.1019352E+00
          2   -1    0    0  501    0  0.00000000000E+00  0.00000000000E+00  0.91535070756E+03  0.91535070756E+03  0.25500000000E-02 0. -1.
         -2   -1    0    0    0  501 -0.00000000000E+00 -0.00000000000E+00 -0.26050394968E+03  0.26050394969E+03  0.25500000000E-02 0.  1.
    8880023    1    1    2    0    0  0.57377415633E+02 -0.73559471769E+02  0.21206111915E+03  0.69820003454E+03  0.65864270000E+03 0.  0.
    8880022    1    1    2    0    0 -0.57377415633E+02  0.73559471769E+02  0.44278563874E+03  0.47765462271E+03  0.15294330000E+03 0.  0.
<mgrwt>
<rscale>  0 0.47921098E+03</rscale>
<asrwt>0</asrwt>
<pdfrwt beam="1">  1        2 0.14082318E+00 0.66521678E+03</pdfrwt>
<pdfrwt beam="2">  1       -2 0.40077531E-01 0.66521678E+03</pdfrwt>
<totfact> 0.17139028E+02</totfact>
</mgrwt>
</event>
<event>
 4    1  0.9654646E-007  0.6724517E+03  0.7818608E-02  0.1013963E+00
         -2   -1    0    0    0  501 -0.00000000000E+00  0.00000000000E+00  0.35308960853E+03  0.35308960854E+03  0.25500000000E-02 0.  1.
          2   -1    0    0  501    0  0.00000000000E+00 -0.00000000000E+00 -0.12164072541E+04  0.12164072542E+04  0.25500000000E-02 0. -1.
    8880023    1    1    2    0    0  0.12850764005E+03  0.43207911758E+02  0.10056423848E+02  0.67252693263E+03  0.65864270000E+03 0.  1.
    8880022    1    1    2    0    0 -0.12850764005E+03 -0.43207911758E+02 -0.87337406947E+03  0.89696993006E+03  0.15294330000E+03 0.  0.
<mgrwt>
<rscale>  0 0.49929536E+03</rscale>
<asrwt>0</asrwt>
<pdfrwt beam="1">  1        2 0.18713958E+00 0.67245174E+03</pdfrwt>
<pdfrwt beam="2">  1       -2 0.54321479E-01 0.67245174E+03</pdfrwt>
<totfact> 0.60555069E+01</totfact>
</mgrwt>
</event>
<event>
 4    1  0.9654646E-007  0.6992637E+03  0.7818608E-02  0.1000027E+00
         -2   -1    0    0    0  501 -0.00000000000E+00  0.00000000000E+00  0.28578419431E+03  0.28578419432E+03  0.25500000000E-02 0.  1.
          2   -1    0    0  501    0  0.00000000000E+00 -0.00000000000E+00 -0.14294521426E+04  0.14294521426E+04  0.25500000000E-02 0. -1.
    8880023    1    1    2    0    0 -0.22615049497E+03 -0.63367545535E+02 -0.19487022093E+03  0.72590915511E+03  0.65864270000E+03 0.  1.
    8880022    1    1    2    0    0  0.22615049497E+03  0.63367545535E+02 -0.94879772738E+03  0.98932718183E+03  0.15294330000E+03 0.  0.
<mgrwt>
<rscale>  0 0.55638421E+03</rscale>
<asrwt>0</asrwt>
<pdfrwt beam="1">  1        2 0.21991571E+00 0.69926368E+03</pdfrwt>
<pdfrwt beam="2">  1       -2 0.43966800E-01 0.69926368E+03</pdfrwt>
<totfact> 0.69958955E+01</totfact>
</mgrwt>
</event>
<event>
 4    1  0.9654646E-007  0.7048245E+03  0.7818608E-02  0.9977746E-01
         -2   -1    0    0    0  501 -0.00000000000E+00  0.00000000000E+00  0.35874240632E+03  0.35874240633E+03  0.25500000000E-02 0.  1.
          2   -1    0    0  501    0  0.00000000000E+00 -0.00000000000E+00 -0.22069291593E+04  0.22069291593E+04  0.25500000000E-02 0. -1.
    8880023    1    1    2    0    0  0.15653863159E+03  0.19612007617E+03 -0.10773861457E+02  0.70490688024E+03  0.65864270000E+03 0.  1.
    8880022    1    1    2    0    0 -0.15653863159E+03 -0.19612007617E+03 -0.18374128915E+04  0.18607646854E+04  0.15294330000E+03 0.  0.
<mgrwt>
<rscale>  0 0.56636873E+03</rscale>
<asrwt>0</asrwt>
<pdfrwt beam="1">  1        2 0.33952755E+00 0.70482454E+03</pdfrwt>
<pdfrwt beam="2">  1       -2 0.55191141E-01 0.70482454E+03</pdfrwt>
<totfact> 0.16532095E+01</totfact>
</mgrwt>
</event>
<event>
 4    1  0.9654646E-007  0.7015290E+03  0.7818608E-02  0.9990917E-01
         -2   -1    0    0    0  501 -0.00000000000E+00  0.00000000000E+00  0.45974550296E+03  0.45974550297E+03  0.25500000000E-02 0.  1.
          2   -1    0    0  501    0  0.00000000000E+00 -0.00000000000E+00 -0.19034934341E+04  0.19034934341E+04  0.25500000000E-02 0. -1.
    8880023    1    1    2    0    0 -0.21316023945E+03  0.11355802299E+03  0.17207300343E+03  0.72232405265E+03  0.65864270000E+03 0.  0.
    8880022    1    1    2    0    0  0.21316023945E+03 -0.11355802299E+03 -0.16158209346E+04  0.16409148844E+04  0.15294330000E+03 0.  0.
<mgrwt>
<rscale>  0 0.56050328E+03</rscale>
<asrwt>0</asrwt>
<pdfrwt beam="1">  1        2 0.29284514E+00 0.70152899E+03</pdfrwt>
<pdfrwt beam="2">  1       -2 0.70730079E-01 0.70152899E+03</pdfrwt>
<totfact> 0.14286899E+01</totfact>
</mgrwt>
</event>
<event>
 4    1  0.9654646E-007  0.7955096E+03  0.7818608E-02  0.9720591E-01
         -2   -1    0    0    0  501 -0.00000000000E+00  0.00000000000E+00  0.53258209474E+03  0.53258209474E+03  0.25500000000E-02 0.  1.
          2   -1    0    0  501    0  0.00000000000E+00 -0.00000000000E+00 -0.15921192586E+04  0.15921192586E+04  0.25500000000E-02 0. -1.
    8880023    1    1    2    0    0  0.21714621939E+03  0.38970860637E+03  0.16503985865E+03  0.81244916129E+03  0.65864270000E+03 0.  1.
    8880022    1    1    2    0    0 -0.21714621939E+03 -0.38970860637E+03 -0.12245770225E+04  0.13122521920E+04  0.15294330000E+03 0.  0.
<mgrwt>
<rscale>  0 0.69803957E+03</rscale>
<asrwt>0</asrwt>
<pdfrwt beam="1">  1        2 0.24494142E+00 0.79550958E+03</pdfrwt>
<pdfrwt beam="2">  1       -2 0.81935708E-01 0.79550958E+03</pdfrwt>
<totfact> 0.15051621E+01</totfact>
</mgrwt>
</event>
<event>
 4    1  0.9654646E-007  0.6861879E+03  0.7818608E-02  0.1006020E+00
         -2   -1    0    0    0  501 -0.00000000000E+00  0.00000000000E+00  0.39899226130E+03  0.39899226131E+03  0.25500000000E-02 0.  1.
          2   -1    0    0  501    0  0.00000000000E+00 -0.00000000000E+00 -0.65608109032E+03  0.65608109032E+03  0.25500000000E-02 0. -1.
    8880023    1    1    2    0    0 -0.18353902434E+03  0.57939548006E+02  0.17636765604E+02  0.68641447132E+03  0.65864270000E+03 0.  1.
    8880022    1    1    2    0    0  0.18353902434E+03 -0.57939548006E+02 -0.27472559462E+03  0.36865888031E+03  0.15294330000E+03 0.  0.
<mgrwt>
<rscale>  0 0.53087654E+03</rscale>
<asrwt>0</asrwt>
<pdfrwt beam="1">  1        2 0.10093555E+00 0.68618785E+03</pdfrwt>
<pdfrwt beam="2">  1       -2 0.61383425E-01 0.68618785E+03</pdfrwt>
<totfact> 0.11135832E+02</totfact>
</mgrwt>
</event>
<event>
 4    1  0.9654646E-007  0.1353794E+04  0.7818608E-02  0.9020444E-01
          2   -1    0    0  501    0  0.00000000000E+00  0.00000000000E+00  0.13753602096E+04  0.13753602096E+04  0.25500000000E-02 0. -1.
         -2   -1    0    0    0  501 -0.00000000000E+00 -0.00000000000E+00 -0.13075325130E+04  0.13075325130E+04  0.25500000000E-02 0.  1.
    8880023    1    1    2    0    0 -0.98528793599E+03  0.65433510654E+03  0.45626248578E+03  0.14286120574E+04  0.65864270000E+03 0.  0.
    8880022    1    1    2    0    0  0.98528793599E+03 -0.65433510654E+03 -0.38843478920E+03  0.12542806651E+04  0.15294330000E+03 0.  0.
<mgrwt>
<rscale>  0 0.13115646E+04</rscale>
<asrwt>0</asrwt>
<pdfrwt beam="1">  1        2 0.21159388E+00 0.13537935E+04</pdfrwt>
<pdfrwt beam="2">  1       -2 0.20115885E+00 0.13537935E+04</pdfrwt>
<totfact> 0.18673469E+00</totfact>
</mgrwt>
</event>
<event>
 4    1  0.9654646E-007  0.8235987E+03  0.7818608E-02  0.9661918E-01
          2   -1    0    0  501    0  0.00000000000E+00  0.00000000000E+00  0.19898494957E+04  0.19898494957E+04  0.25500000000E-02 0. -1.
         -2   -1    0    0    0  501 -0.00000000000E+00 -0.00000000000E+00 -0.42569178914E+03  0.42569178915E+03  0.25500000000E-02 0.  1.
    8880023    1    1    2    0    0 -0.11719230344E+03  0.48038588035E+03  0.61099469431E+02  0.82586196271E+03  0.65864270000E+03 0.  1.
    8880022    1    1    2    0    0  0.11719230344E+03 -0.48038588035E+03  0.15030582371E+04  0.15896793221E+04  0.15294330000E+03 0.  0.
<mgrwt>
<rscale>  0 0.73330151E+03</rscale>
<asrwt>0</asrwt>
<pdfrwt beam="1">  1        2 0.30613069E+00 0.82359871E+03</pdfrwt>
<pdfrwt beam="2">  1       -2 0.65491046E-01 0.82359871E+03</pdfrwt>
<totfact> 0.14890692E+01</totfact>
</mgrwt>
</event>
<event>
 4    1  0.9654646E-007  0.8324214E+03  0.7818608E-02  0.9644639E-01
         -2   -1    0    0    0  501 -0.00000000000E+00  0.00000000000E+00  0.19083580139E+03  0.19083580141E+03  0.25500000000E-02 0.  1.
          2   -1    0    0  501    0  0.00000000000E+00 -0.00000000000E+00 -0.39695278866E+04  0.39695278866E+04  0.25500000000E-02 0. -1.
    8880023    1    1    2    0    0 -0.19513788275E+02  0.50865941068E+03 -0.87222119547E+03  0.12056928316E+04  0.65864270000E+03 0.  1.
    8880022    1    1    2    0    0  0.19513788275E+02 -0.50865941068E+03 -0.29064708897E+04  0.29546708564E+04  0.15294330000E+03 0.  0.
<mgrwt>
<rscale>  0 0.74410813E+03</rscale>
<asrwt>0</asrwt>
<pdfrwt beam="1">  1        2 0.61069654E+00 0.83242140E+03</pdfrwt>
<pdfrwt beam="2">  1       -2 0.29359357E-01 0.83242140E+03</pdfrwt>
<totfact> 0.41920953E+00</totfact>
</mgrwt>
</event>
<event>
 4    1  0.1238474E-006  0.8550717E+03  0.7818608E-02  0.9602391E-01
          2   -1    0    0  501    0  0.00000000000E+00  0.00000000000E+00  0.13264423583E+04  0.13264423583E+04  0.25500000000E-02 0. -1.
         -2   -1    0    0    0  501 -0.00000000000E+00 -0.00000000000E+00 -0.13761118479E+04  0.13761118479E+04  0.25500000000E-02 0.  1.
    8880023    1    1    2    0    0  0.54490627765E+03  0.20359701322E+02 -0.11688607375E+04  0.14482344419E+04  0.65864270000E+03 0.  1.
    8880022    1    1    2    0    0 -0.54490627765E+03 -0.20359701322E+02  0.11191912478E+04  0.12543197643E+04  0.15294330000E+03 0.  0.
<mgrwt>
<rscale>  0 0.77138142E+03</rscale>
<asrwt>0</asrwt>
<pdfrwt beam="1">  1        2 0.20406805E+00 0.85507168E+03</pdfrwt>
<pdfrwt beam="2">  1       -2 0.21170952E+00 0.85507168E+03</pdfrwt>
<totfact> 0.18057319E+00</totfact>
</mgrwt>
</event>
<event>
 4    1  0.9654646E-007  0.6976576E+03  0.7818608E-02  0.1000706E+00
          2   -1    0    0  501    0  0.00000000000E+00  0.00000000000E+00  0.15034497871E+04  0.15034497871E+04  0.25500000000E-02 0. -1.
         -2   -1    0    0    0  501 -0.00000000000E+00 -0.00000000000E+00 -0.19731955143E+03  0.19731955145E+03  0.25500000000E-02 0.  1.
    8880023    1    1    2    0    0 -0.20656744628E+03  0.10122132459E+03  0.52762626197E+03  0.87470883441E+03  0.65864270000E+03 0.  1.
    8880022    1    1    2    0    0  0.20656744628E+03 -0.10122132459E+03  0.77850397368E+03  0.82606050412E+03  0.15294330000E+03 0.  0.
<mgrwt>
<rscale>  0 0.55341719E+03</rscale>
<asrwt>0</asrwt>
<pdfrwt beam="1">  1        2 0.23129997E+00 0.69765756E+03</pdfrwt>
<pdfrwt beam="2">  1       -2 0.30356853E-01 0.69765756E+03</pdfrwt>
<totfact> 0.12945574E+02</totfact>
</mgrwt>
</event>
<event>
 4    1  0.9654646E-007  0.7040854E+03  0.7818608E-02  0.9980658E-01
         -2   -1    0    0    0  501 -0.00000000000E+00  0.00000000000E+00  0.11668592403E+04  0.11668592403E+04  0.25500000000E-02 0.  1.
          2   -1    0    0  501    0  0.00000000000E+00 -0.00000000000E+00 -0.43624659198E+03  0.43624659198E+03  0.25500000000E-02 0. -1.
    8880023    1    1    2    0    0  0.14517349170E+03 -0.20211554644E+03  0.98839327661E+03  0.12135310100E+04  0.65864270000E+03 0.  1.
    8880022    1    1    2    0    0 -0.14517349170E+03  0.20211554644E+03 -0.25778062828E+03  0.38957482226E+03  0.15294330000E+03 0.  0.
<mgrwt>
<rscale>  0 0.56506562E+03</rscale>
<asrwt>0</asrwt>
<pdfrwt beam="1">  1        2 0.67114860E-01 0.70408539E+03</pdfrwt>
<pdfrwt beam="2">  1       -2 0.17951681E+00 0.70408539E+03</pdfrwt>
<totfact> 0.13439308E+01</totfact>
</mgrwt>
</event>
<event>
 4    1  0.9654646E-007  0.7975027E+03  0.7818608E-02  0.9716222E-01
         -2   -1    0    0    0  501 -0.00000000000E+00  0.00000000000E+00  0.28778008593E+03  0.28778008594E+03  0.25500000000E-02 0.  1.
          2   -1    0    0  501    0  0.00000000000E+00 -0.00000000000E+00 -0.14527557122E+04  0.14527557122E+04  0.25500000000E-02 0. -1.
    8880023    1    1    2    0    0 -0.34379245340E+03 -0.28983966203E+03 -0.57523705406E+03  0.98331488106E+03  0.65864270000E+03 0.  1.
    8880022    1    1    2    0    0  0.34379245340E+03  0.28983966203E+03 -0.58973857222E+03  0.75722091709E+03  0.15294330000E+03 0.  0.
<mgrwt>
<rscale>  0 0.70059099E+03</rscale>
<asrwt>0</asrwt>
<pdfrwt beam="1">  1        2 0.22350088E+00 0.79750266E+03</pdfrwt>
<pdfrwt beam="2">  1       -2 0.44273860E-01 0.79750266E+03</pdfrwt>
<totfact> 0.66318244E+01</totfact>
</mgrwt>
</event>
<event>
 4    1  0.9654646E-007  0.6663807E+03  0.7818608E-02  0.1018402E+00
          2   -1    0    0  501    0  0.00000000000E+00  0.00000000000E+00  0.15061906860E+04  0.15061906860E+04  0.25500000000E-02 0. -1.
         -2   -1    0    0    0  501 -0.00000000000E+00 -0.00000000000E+00 -0.32486978310E+03  0.32486978311E+03  0.25500000000E-02 0.  1.
    8880023    1    1    2    0    0 -0.88625585566E+02  0.48974848413E+02  0.31950780300E+02  0.66714622746E+03  0.65864270000E+03 0.  1.
    8880022    1    1    2    0    0  0.88625585566E+02 -0.48974848413E+02  0.11493701226E+04  0.11639142417E+04  0.15294330000E+03 0.  0.
<mgrwt>
<rscale>  0 0.48267673E+03</rscale>
<asrwt>0</asrwt>
<pdfrwt beam="1">  1        2 0.23172164E+00 0.66638070E+03</pdfrwt>
<pdfrwt beam="2">  1       -2 0.49979966E-01 0.66638070E+03</pdfrwt>
<totfact> 0.49192468E+01</totfact>
</mgrwt>
</event>
<event>
 4    1  0.9654646E-007  0.1204274E+04  0.7818608E-02  0.9152979E-01
         -2   -1    0    0    0  501 -0.00000000000E+00  0.00000000000E+00  0.19471814311E+04  0.19471814311E+04  0.25500000000E-02 0.  1.
          2   -1    0    0  501    0  0.00000000000E+00 -0.00000000000E+00 -0.69891226836E+03  0.69891226836E+03  0.25500000000E-02 0. -1.
    8880023    1    1    2    0    0  0.13077047539E+03 -0.99968172480E+03  0.27250221380E+03  0.12347194543E+04  0.65864270000E+03 0.  0.
    8880022    1    1    2    0    0 -0.13077047539E+03  0.99968172480E+03  0.97576694895E+03  0.14113742451E+04  0.15294330000E+03 0.  0.
<mgrwt>
<rscale>  0 0.11552221E+04</rscale>
<asrwt>0</asrwt>
<pdfrwt beam="1">  1        2 0.10752497E+00 0.12042735E+04</pdfrwt>
<pdfrwt beam="2">  1       -2 0.29956637E+00 0.12042735E+04</pdfrwt>
<totfact> 0.12888496E+00</totfact>
</mgrwt>
</event>
<event>
 4    1  0.9654646E-007  0.7088647E+03  0.7818608E-02  0.9962241E-01
          2   -1    0    0  501    0  0.00000000000E+00  0.00000000000E+00  0.93566006317E+03  0.93566006318E+03  0.25500000000E-02 0. -1.
         -2   -1    0    0    0  501 -0.00000000000E+00 -0.00000000000E+00 -0.43195389703E+03  0.43195389704E+03  0.25500000000E-02 0.  1.
    8880023    1    1    2    0    0 -0.20876933305E+03 -0.15841195527E+03 -0.76373072890E+02  0.71296706412E+03  0.65864270000E+03 0.  0.
    8880022    1    1    2    0    0  0.20876933305E+03  0.15841195527E+03  0.58007923903E+03  0.65464689609E+03  0.15294330000E+03 0.  0.
<mgrwt>
<rscale>  0 0.57337356E+03</rscale>
<asrwt>0</asrwt>
<pdfrwt beam="1">  1        2 0.14394770E+00 0.70886472E+03</pdfrwt>
<pdfrwt beam="2">  1       -2 0.66454446E-01 0.70886472E+03</pdfrwt>
<totfact> 0.58800579E+01</totfact>
</mgrwt>
</event>
<event>
 4    1  0.9654646E-007  0.9501600E+03  0.7818608E-02  0.9449884E-01
         -2   -1    0    0    0  501 -0.00000000000E+00  0.00000000000E+00  0.70852322722E+03  0.70852322722E+03  0.25500000000E-02 0.  1.
          2   -1    0    0  501    0  0.00000000000E+00 -0.00000000000E+00 -0.18094619369E+04  0.18094619369E+04  0.25500000000E-02 0. -1.
    8880023    1    1    2    0    0  0.62727069860E+03 -0.27481865528E+03  0.26147833351E+03  0.98548208901E+03  0.65864270000E+03 0.  1.
    8880022    1    1    2    0    0 -0.62727069860E+03  0.27481865528E+03 -0.13624170432E+04  0.15325030751E+04  0.15294330000E+03 0.  0.
<mgrwt>
<rscale>  0 0.88081705E+03</rscale>
<asrwt>0</asrwt>
<pdfrwt beam="1">  1        2 0.27837876E+00 0.95016000E+03</pdfrwt>
<pdfrwt beam="2">  1       -2 0.10900357E+00 0.95016000E+03</pdfrwt>
<totfact> 0.57457649E+00</totfact>
</mgrwt>
</event>
<event>
 4    1  0.9654646E-007  0.8199160E+03  0.7818608E-02  0.9669281E-01
          2   -1    0    0  501    0  0.00000000000E+00  0.00000000000E+00  0.20015048373E+04  0.20015048373E+04  0.25500000000E-02 0. -1.
         -2   -1    0    0    0  501 -0.00000000000E+00 -0.00000000000E+00 -0.49800146609E+03  0.49800146609E+03  0.25500000000E-02 0.  1.
    8880023    1    1    2    0    0  0.47271086810E+03 -0.12246005405E+03 -0.90958587505E+02  0.82494587735E+03  0.65864270000E+03 0.  1.
    8880022    1    1    2    0    0 -0.47271086810E+03  0.12246005405E+03  0.15944619587E+04  0.16745604261E+04  0.15294330000E+03 0.  0.
<mgrwt>
<rscale>  0 0.72875623E+03</rscale>
<asrwt>0</asrwt>
<pdfrwt beam="1">  1        2 0.30792383E+00 0.81991599E+03</pdfrwt>
<pdfrwt beam="2">  1       -2 0.76615609E-01 0.81991599E+03</pdfrwt>
<totfact> 0.10409066E+01</totfact>
</mgrwt>
</event>
<event>
 4    1  0.9654646E-007  0.8838314E+03  0.7818608E-02  0.9552502E-01
          2   -1    0    0  501    0  0.00000000000E+00  0.00000000000E+00  0.17283152479E+04  0.17283152479E+04  0.25500000000E-02 0. -1.
         -2   -1    0    0    0  501 -0.00000000000E+00 -0.00000000000E+00 -0.70624030765E+03  0.70624030766E+03  0.25500000000E-02 0.  1.
    8880023    1    1    2    0    0  0.23633734939E+03  0.53990042699E+03 -0.33654229986E+03  0.94573714088E+03  0.65864270000E+03 0.  0.
    8880022    1    1    2    0    0 -0.23633734939E+03 -0.53990042699E+03  0.13586172401E+04  0.14888184147E+04  0.15294330000E+03 0.  0.
<mgrwt>
<rscale>  0 0.80521283E+03</rscale>
<asrwt>0</asrwt>
<pdfrwt beam="1">  1        2 0.26589465E+00 0.88383144E+03</pdfrwt>
<pdfrwt beam="2">  1       -2 0.10865236E+00 0.88383144E+03</pdfrwt>
<totfact> 0.64701030E+00</totfact>
</mgrwt>
</event>
<event>
 4    1  0.9654646E-007  0.7818189E+03  0.7818608E-02  0.9751582E-01
         -2   -1    0    0    0  501 -0.00000000000E+00  0.00000000000E+00  0.40295936864E+03  0.40295936865E+03  0.25500000000E-02 0.  1.
          2   -1    0    0  501    0  0.00000000000E+00 -0.00000000000E+00 -0.13491767030E+04  0.13491767030E+04  0.25500000000E-02 0. -1.
    8880023    1    1    2    0    0  0.11601588769E+03 -0.40493317459E+03 -0.91618193653E+02  0.78716876320E+03  0.65864270000E+03 0. -1.
    8880022    1    1    2    0    0 -0.11601588769E+03  0.40493317459E+03 -0.85459914071E+03  0.96496730846E+03  0.15294330000E+03 0.  0.
<mgrwt>
<rscale>  0 0.68026964E+03</rscale>
<asrwt>0</asrwt>
<pdfrwt beam="1">  1        2 0.20756564E+00 0.78181888E+03</pdfrwt>
<pdfrwt beam="2">  1       -2 0.61993750E-01 0.78181888E+03</pdfrwt>
<totfact> 0.38037507E+01</totfact>
</mgrwt>
</event>
<event>
 4    1  0.9654646E-007  0.9034107E+03  0.7818608E-02  0.9520578E-01
         -2   -1    0    0    0  501 -0.00000000000E+00  0.00000000000E+00  0.82952608058E+03  0.82952608059E+03  0.25500000000E-02 0.  1.
          2   -1    0    0  501    0  0.00000000000E+00 -0.00000000000E+00 -0.19649652876E+04  0.19649652876E+04  0.25500000000E-02 0. -1.
    8880023    1    1    2    0    0 -0.61221882725E+03  0.86768630039E+02  0.50482395921E+03  0.10348903921E+04  0.65864270000E+03 0.  0.
    8880022    1    1    2    0    0  0.61221882725E+03 -0.86768630039E+02 -0.16402631662E+04  0.17596009761E+04  0.15294330000E+03 0.  0.
<mgrwt>
<rscale>  0 0.82783518E+03</rscale>
<asrwt>0</asrwt>
<pdfrwt beam="1">  1        2 0.30230235E+00 0.90341070E+03</pdfrwt>
<pdfrwt beam="2">  1       -2 0.12761940E+00 0.90341070E+03</pdfrwt>
<totfact> 0.32157675E+00</totfact>
</mgrwt>
</event>
<event>
 4    1  0.9654646E-007  0.9787434E+03  0.7818608E-02  0.9409912E-01
         -2   -1    0    0    0  501 -0.00000000000E+00  0.00000000000E+00  0.34383871878E+03  0.34383871879E+03  0.25500000000E-02 0.  1.
          2   -1    0    0  501    0  0.00000000000E+00 -0.00000000000E+00 -0.26184260729E+04  0.26184260729E+04  0.25500000000E-02 0. -1.
    8880023    1    1    2    0    0  0.48929094128E+03 -0.53359414972E+03 -0.64392070913E+03  0.11715683624E+04  0.65864270000E+03 0.  0.
    8880022    1    1    2    0    0 -0.48929094128E+03  0.53359414972E+03 -0.16306666450E+04  0.17906964293E+04  0.15294330000E+03 0.  0.
<mgrwt>
<rscale>  0 0.91264445E+03</rscale>
<asrwt>0</asrwt>
<pdfrwt beam="1">  1        2 0.40283477E+00 0.97874335E+03</pdfrwt>
<pdfrwt beam="2">  1       -2 0.52898266E-01 0.97874335E+03</pdfrwt>
<totfact> 0.10176333E+01</totfact>
</mgrwt>
</event>
<event>
 4    1  0.9654646E-007  0.7471540E+03  0.7818608E-02  0.9839577E-01
         -2   -1    0    0    0  501 -0.00000000000E+00  0.00000000000E+00  0.83704287585E+03  0.83704287585E+03  0.25500000000E-02 0.  1.
          2   -1    0    0  501    0  0.00000000000E+00 -0.00000000000E+00 -0.17330504119E+04  0.17330504119E+04  0.25500000000E-02 0. -1.
    8880023    1    1    2    0    0  0.48174027557E+02  0.34943981993E+03  0.64179507363E+03  0.98495687595E+03  0.65864270000E+03 0.  1.
    8880022    1    1    2    0    0 -0.48174027557E+02 -0.34943981993E+03 -0.15378026097E+04  0.15851364118E+04  0.15294330000E+03 0.  0.
<mgrwt>
<rscale>  0 0.63281165E+03</rscale>
<asrwt>0</asrwt>
<pdfrwt beam="1">  1        2 0.26662314E+00 0.74715402E+03</pdfrwt>
<pdfrwt beam="2">  1       -2 0.12877583E+00 0.74715402E+03</pdfrwt>
<totfact> 0.43103535E+00</totfact>
</mgrwt>
</event>
<event>
 4    1  0.9654646E-007  0.6637634E+03  0.7818608E-02  0.1020594E+00
          2   -1    0    0  501    0  0.00000000000E+00  0.00000000000E+00  0.20186548313E+04  0.20186548313E+04  0.25500000000E-02 0. -1.
         -2   -1    0    0    0  501 -0.00000000000E+00 -0.00000000000E+00 -0.11103424777E+03  0.11103424780E+03  0.25500000000E-02 0.  1.
    8880023    1    1    2    0    0  0.80534057916E+02  0.16909611179E+02  0.96524631230E+03  0.11714445438E+04  0.65864270000E+03 0.  1.
    8880022    1    1    2    0    0 -0.80534057916E+02 -0.16909611179E+02  0.94237427119E+03  0.95824453531E+03  0.15294330000E+03 0.  0.
<mgrwt>
<rscale>  0 0.47472804E+03</rscale>
<asrwt>0</asrwt>
<pdfrwt beam="1">  1        2 0.31056230E+00 0.66376342E+03</pdfrwt>
<pdfrwt beam="2">  1       -2 0.17082191E-01 0.66376342E+03</pdfrwt>
<totfact> 0.18914736E+02</totfact>
</mgrwt>
</event>
<event>
 4    1  0.9654646E-007  0.7426265E+03  0.7818608E-02  0.9852361E-01
          2   -1    0    0  501    0  0.00000000000E+00  0.00000000000E+00  0.86152861648E+03  0.86152861648E+03  0.25500000000E-02 0. -1.
         -2   -1    0    0    0  501 -0.00000000000E+00 -0.00000000000E+00 -0.65425365366E+03  0.65425365366E+03  0.25500000000E-02 0.  1.
    8880023    1    1    2    0    0  0.28082038909E+03 -0.19703756935E+03 -0.36795491720E+03  0.82878520862E+03  0.65864270000E+03 0.  1.
    8880022    1    1    2    0    0 -0.28082038909E+03  0.19703756935E+03  0.57522988002E+03  0.68699706153E+03  0.15294330000E+03 0.  0.
<mgrwt>
<rscale>  0 0.62626666E+03</rscale>
<asrwt>0</asrwt>
<pdfrwt beam="1">  1        2 0.13254286E+00 0.74262649E+03</pdfrwt>
<pdfrwt beam="2">  1       -2 0.10065441E+00 0.74262649E+03</pdfrwt>
<totfact> 0.25734446E+01</totfact>
</mgrwt>
</event>
<event>
 4    1  0.9654646E-007  0.9599766E+03  0.7818608E-02  0.9435903E-01
          2   -1    0    0  501    0  0.00000000000E+00  0.00000000000E+00  0.27033510354E+04  0.27033510354E+04  0.25500000000E-02 0. -1.
         -2   -1    0    0    0  501 -0.00000000000E+00 -0.00000000000E+00 -0.82252236692E+03  0.82252236692E+03  0.25500000000E-02 0.  1.
    8880023    1    1    2    0    0 -0.31784211834E+03 -0.62186916892E+03 -0.46991229020E+03  0.10688183392E+04  0.65864270000E+03 0.  1.
    8880022    1    1    2    0    0  0.31784211834E+03  0.62186916892E+03  0.23507409587E+04  0.24570550631E+04  0.15294330000E+03 0.  0.
<mgrwt>
<rscale>  0 0.89179001E+03</rscale>
<asrwt>0</asrwt>
<pdfrwt beam="1">  1        2 0.41590016E+00 0.95997660E+03</pdfrwt>
<pdfrwt beam="2">  1       -2 0.12654190E+00 0.95997660E+03</pdfrwt>
<totfact> 0.12502690E+00</totfact>
</mgrwt>
</event>
<event>
 4    1  0.9654646E-007  0.6709907E+03  0.7818608E-02  0.1014962E+00
         -2   -1    0    0    0  501 -0.00000000000E+00  0.00000000000E+00  0.59744306723E+03  0.59744306723E+03  0.25500000000E-02 0.  1.
          2   -1    0    0  501    0  0.00000000000E+00 -0.00000000000E+00 -0.65052944134E+03  0.65052944134E+03  0.25500000000E-02 0. -1.
    8880023    1    1    2    0    0 -0.12636099778E+03 -0.21241091753E+02  0.38000977531E+03  0.77112639777E+03  0.65864270000E+03 0.  1.
    8880022    1    1    2    0    0  0.12636099778E+03  0.21241091753E+02 -0.43309614942E+03  0.47684611081E+03  0.15294330000E+03 0.  0.
<mgrwt>
<rscale>  0 0.49549161E+03</rscale>
<asrwt>0</asrwt>
<pdfrwt beam="1">  1        2 0.10008145E+00 0.67099068E+03</pdfrwt>
<pdfrwt beam="2">  1       -2 0.91914319E-01 0.67099068E+03</pdfrwt>
<totfact> 0.46070873E+01</totfact>
</mgrwt>
</event>
<event>
 4    1  0.9654646E-007  0.1098195E+04  0.7818608E-02  0.9263068E-01
          2   -1    0    0  501    0  0.00000000000E+00  0.00000000000E+00  0.10990865288E+04  0.10990865288E+04  0.25500000000E-02 0. -1.
         -2   -1    0    0    0  501 -0.00000000000E+00 -0.00000000000E+00 -0.95268452658E+03  0.95268452658E+03  0.25500000000E-02 0.  1.
    8880023    1    1    2    0    0  0.87798905345E+03 -0.36856061504E+02 -0.15753594071E+03  0.11094372114E+04  0.65864270000E+03 0.  0.
    8880022    1    1    2    0    0 -0.87798905345E+03  0.36856061504E+02  0.30393794291E+03  0.94233384392E+03  0.15294330000E+03 0.  0.
<mgrwt>
<rscale>  0 0.10425517E+04</rscale>
<asrwt>0</asrwt>
<pdfrwt beam="1">  1        2 0.16909024E+00 0.10981955E+04</pdfrwt>
<pdfrwt beam="2">  1       -2 0.14656685E+00 0.10981955E+04</pdfrwt>
<totfact> 0.68263080E+00</totfact>
</mgrwt>
</event>
<event>
 4    1  0.9654646E-007  0.9884174E+03  0.7818608E-02  0.9396871E-01
          2   -1    0    0  501    0  0.00000000000E+00  0.00000000000E+00  0.12149383605E+04  0.12149383605E+04  0.25500000000E-02 0. -1.
         -2   -1    0    0    0  501 -0.00000000000E+00 -0.00000000000E+00 -0.62631602157E+03  0.62631602157E+03  0.25500000000E-02 0.  1.
    8880023    1    1    2    0    0  0.68750642899E+03  0.26550626901E+03  0.39190756871E+03  0.10632781468E+04  0.65864270000E+03 0.  1.
    8880022    1    1    2    0    0 -0.68750642899E+03 -0.26550626901E+03  0.19671477020E+03  0.77797623525E+03  0.15294330000E+03 0. -1.
<mgrwt>
<rscale>  0 0.92333667E+03</rscale>
<asrwt>0</asrwt>
<pdfrwt beam="1">  1        2 0.18691359E+00 0.98841736E+03</pdfrwt>
<pdfrwt beam="2">  1       -2 0.96356311E-01 0.98841736E+03</pdfrwt>
<totfact> 0.16653201E+01</totfact>
</mgrwt>
</event>
<event>
 4    1  0.9654646E-007  0.1344244E+04  0.7818608E-02  0.9028264E-01
          2   -1    0    0  501    0  0.00000000000E+00  0.00000000000E+00  0.75361557735E+03  0.75361557736E+03  0.25500000000E-02 0. -1.
         -2   -1    0    0    0  501 -0.00000000000E+00 -0.00000000000E+00 -0.23547204867E+04  0.23547204867E+04  0.25500000000E-02 0.  1.
    8880023    1    1    2    0    0 -0.11714895269E+04  0.28169380605E+02 -0.13400381019E+04  0.18980762752E+04  0.65864270000E+03 0.  0.
    8880022    1    1    2    0    0  0.11714895269E+04 -0.28169380605E+02 -0.26106680738E+03  0.12102597888E+04  0.15294330000E+03 0.  0.
<mgrwt>
<rscale>  0 0.13016418E+04</rscale>
<asrwt>0</asrwt>
<pdfrwt beam="1">  1        2 0.11594086E+00 0.13442438E+04</pdfrwt>
<pdfrwt beam="2">  1       -2 0.36226469E+00 0.13442438E+04</pdfrwt>
<totfact> 0.47052004E-01</totfact>
</mgrwt>
</event>
<event>
 4    1  0.9654646E-007  0.7242714E+03  0.7818608E-02  0.9908389E-01
         -2   -1    0    0    0  501 -0.00000000000E+00  0.00000000000E+00  0.27419287472E+03  0.27419287473E+03  0.25500000000E-02 0.  1.
          2   -1    0    0  501    0  0.00000000000E+00 -0.00000000000E+00 -0.10854619025E+04  0.10854619025E+04  0.25500000000E-02 0. -1.
    8880023    1    1    2    0    0 -0.28233866085E+03 -0.10508922449E+03 -0.39994684361E+03  0.82736119591E+03  0.65864270000E+03 0.  0.
    8880022    1    1    2    0    0  0.28233866085E+03  0.10508922449E+03 -0.41132218417E+03  0.53229358133E+03  0.15294330000E+03 0.  0.
<mgrwt>
<rscale>  0 0.59856420E+03</rscale>
<asrwt>0</asrwt>
<pdfrwt beam="1">  1        2 0.16699414E+00 0.72427141E+03</pdfrwt>
<pdfrwt beam="2">  1       -2 0.42183520E-01 0.72427141E+03</pdfrwt>
<totfact> 0.12027839E+02</totfact>
</mgrwt>
</event>
<event>
 4    1  0.9654646E-007  0.9300590E+03  0.7818608E-02  0.9479405E-01
         -2   -1    0    0    0  501 -0.00000000000E+00  0.00000000000E+00  0.40527784301E+03  0.40527784301E+03  0.25500000000E-02 0.  1.
          2   -1    0    0  501    0  0.00000000000E+00 -0.00000000000E+00 -0.25243430742E+04  0.25243430742E+04  0.25500000000E-02 0. -1.
    8880023    1    1    2    0    0  0.61434585230E+03  0.23190247155E+03 -0.20509215578E+04  0.22519522697E+04  0.65864270000E+03 0.  0.
    8880022    1    1    2    0    0 -0.61434585230E+03 -0.23190247155E+03 -0.68143673372E+02  0.67766864748E+03  0.15294330000E+03 0.  1.
<mgrwt>
<rscale>  0 0.85819408E+03</rscale>
<asrwt>0</asrwt>
<pdfrwt beam="1">  1        2 0.38836046E+00 0.93005902E+03</pdfrwt>
<pdfrwt beam="2">  1       -2 0.62350439E-01 0.93005902E+03</pdfrwt>
<totfact> 0.82146446E+00</totfact>
</mgrwt>
</event>
<event>
 4    1  0.9654646E-007  0.7780582E+03  0.7818608E-02  0.9760418E-01
          2   -1    0    0  501    0  0.00000000000E+00  0.00000000000E+00  0.25775579268E+04  0.25775579268E+04  0.25500000000E-02 0. -1.
         -2   -1    0    0    0  501 -0.00000000000E+00 -0.00000000000E+00 -0.31686778183E+03  0.31686778184E+03  0.25500000000E-02 0.  1.
    8880023    1    1    2    0    0  0.37100815493E+03  0.18416631705E+03  0.22291143400E+03  0.80936023934E+03  0.65864270000E+03 0.  1.
    8880022    1    1    2    0    0 -0.37100815493E+03 -0.18416631705E+03  0.20377787109E+04  0.20850654693E+04  0.15294330000E+03 0.  0.
<mgrwt>
<rscale>  0 0.67530677E+03</rscale>
<asrwt>0</asrwt>
<pdfrwt beam="1">  1        2 0.39654738E+00 0.77805815E+03</pdfrwt>
<pdfrwt beam="2">  1       -2 0.48748889E-01 0.77805815E+03</pdfrwt>
<totfact> 0.13063472E+01</totfact>
</mgrwt>
</event>
<event>
 4    1  0.9654646E-007  0.1123751E+04  0.7818608E-02  0.9235062E-01
         -2   -1    0    0    0  501 -0.00000000000E+00  0.00000000000E+00  0.73524047250E+03  0.73524047251E+03  0.25500000000E-02 0.  1.
          2   -1    0    0  501    0  0.00000000000E+00 -0.00000000000E+00 -0.16969286397E+04  0.16969286397E+04  0.25500000000E-02 0. -1.
    8880023    1    1    2    0    0 -0.40697939485E+03 -0.81447823617E+03 -0.10054265941E+04  0.15078792616E+04  0.65864270000E+03 0.  0.
    8880022    1    1    2    0    0  0.40697939485E+03  0.81447823617E+03  0.43738426907E+02  0.92428985066E+03  0.15294330000E+03 0.  0.
<mgrwt>
<rscale>  0 0.10698750E+04</rscale>
<asrwt>0</asrwt>
<pdfrwt beam="1">  1        2 0.26106594E+00 0.11237514E+04</pdfrwt>
<pdfrwt beam="2">  1       -2 0.11311392E+00 0.11237514E+04</pdfrwt>
<totfact> 0.59426977E+00</totfact>
</mgrwt>
</event>
<event>
 4    1  0.9654646E-007  0.6645302E+03  0.7818608E-02  0.1019931E+00
         -2   -1    0    0    0  501 -0.00000000000E+00  0.00000000000E+00  0.17210566137E+03  0.17210566139E+03  0.25500000000E-02 0.  1.
          2   -1    0    0  501    0  0.00000000000E+00 -0.00000000000E+00 -0.28932943098E+04  0.28932943098E+04  0.25500000000E-02 0. -1.
    8880023    1    1    2    0    0  0.71202342137E+02  0.52157364176E+02 -0.48609084242E+03  0.82333752345E+03  0.65864270000E+03 0.  1.
    8880022    1    1    2    0    0 -0.71202342137E+02 -0.52157364176E+02 -0.22350978060E+04  0.22420624477E+04  0.15294330000E+03 0.  0.
<mgrwt>
<rscale>  0 0.47711571E+03</rscale>
<asrwt>0</asrwt>
<pdfrwt beam="1">  1        2 0.44512217E+00 0.66453019E+03</pdfrwt>
<pdfrwt beam="2">  1       -2 0.26477796E-01 0.66453019E+03</pdfrwt>
<totfact> 0.28006917E+01</totfact>
</mgrwt>
</event>
<event>
 4    1  0.9654646E-007  0.7374806E+03  0.7818608E-02  0.9867347E-01
         -2   -1    0    0    0  501 -0.00000000000E+00  0.00000000000E+00  0.17044962977E+03  0.17044962979E+03  0.25500000000E-02 0.  1.
          2   -1    0    0  501    0  0.00000000000E+00 -0.00000000000E+00 -0.20271374224E+04  0.20271374224E+04  0.25500000000E-02 0. -1.
    8880023    1    1    2    0    0  0.14906797509E+03 -0.29638861574E+03 -0.84287690868E+03  0.11199639111E+04  0.65864270000E+03 0.  0.
    8880022    1    1    2    0    0 -0.14906797509E+03  0.29638861574E+03 -0.10138108839E+04  0.10776231410E+04  0.15294330000E+03 0.  0.
<mgrwt>
<rscale>  0 0.61870197E+03</rscale>
<asrwt>0</asrwt>
<pdfrwt beam="1">  1        2 0.31186728E+00 0.73748063E+03</pdfrwt>
<pdfrwt beam="2">  1       -2 0.26223021E-01 0.73748063E+03</pdfrwt>
<totfact> 0.87242787E+01</totfact>
</mgrwt>
</event>
<event>
 4    1  0.9654646E-007  0.8544906E+03  0.7818608E-02  0.9603440E-01
         -2   -1    0    0    0  501 -0.00000000000E+00  0.00000000000E+00  0.20111559642E+03  0.20111559643E+03  0.25500000000E-02 0.  1.
          2   -1    0    0  501    0  0.00000000000E+00 -0.00000000000E+00 -0.31132816849E+04  0.31132816849E+04  0.25500000000E-02 0. -1.
    8880023    1    1    2    0    0 -0.76882813705E+02 -0.53891833554E+03 -0.97527590946E+03  0.12966561785E+04  0.65864270000E+03 0.  1.
    8880022    1    1    2    0    0  0.76882813705E+02  0.53891833554E+03 -0.19368901790E+04  0.20177411029E+04  0.15294330000E+03 0.  0.
<mgrwt>
<rscale>  0 0.77068930E+03</rscale>
<asrwt>0</asrwt>
<pdfrwt beam="1">  1        2 0.47896638E+00 0.85449058E+03</pdfrwt>
<pdfrwt beam="2">  1       -2 0.30940863E-01 0.85449058E+03</pdfrwt>
<totfact> 0.14940885E+01</totfact>
</mgrwt>
</event>
<event>
 4    1  0.9654646E-007  0.7646979E+03  0.7818608E-02  0.9793093E-01
         -2   -1    0    0    0  501 -0.00000000000E+00  0.00000000000E+00  0.60749723550E+03  0.60749723551E+03  0.25500000000E-02 0.  1.
          2   -1    0    0  501    0  0.00000000000E+00 -0.00000000000E+00 -0.11783205125E+04  0.11783205125E+04  0.25500000000E-02 0. -1.
    8880023    1    1    2    0    0 -0.26910390144E+03 -0.28024242917E+03  0.29891479285E+03  0.82104384080E+03  0.65864270000E+03 0.  1.
    8880022    1    1    2    0    0  0.26910390144E+03  0.28024242917E+03 -0.86973806985E+03  0.96477390722E+03  0.15294330000E+03 0.  0.
<mgrwt>
<rscale>  0 0.65734511E+03</rscale>
<asrwt>0</asrwt>
<pdfrwt beam="1">  1        2 0.18128008E+00 0.76469794E+03</pdfrwt>
<pdfrwt beam="2">  1       -2 0.93461113E-01 0.76469794E+03</pdfrwt>
<totfact> 0.19221815E+01</totfact>
</mgrwt>
</event>
<event>
 4    1  0.9654646E-007  0.7794196E+03  0.7818608E-02  0.9757202E-01
          2   -1    0    0  501    0  0.00000000000E+00  0.00000000000E+00  0.18757742352E+04  0.18757742352E+04  0.25500000000E-02 0. -1.
         -2   -1    0    0    0  501 -0.00000000000E+00 -0.00000000000E+00 -0.51634344496E+03  0.51634344497E+03  0.25500000000E-02 0.  1.
    8880023    1    1    2    0    0 -0.21789932016E+03  0.35525282946E+03 -0.17154796349E+03  0.79807493170E+03  0.65864270000E+03 0.  1.
    8880022    1    1    2    0    0  0.21789932016E+03 -0.35525282946E+03  0.15309787537E+04  0.15940427485E+04  0.15294330000E+03 0.  0.
<mgrwt>
<rscale>  0 0.67710777E+03</rscale>
<asrwt>0</asrwt>
<pdfrwt beam="1">  1        2 0.28858065E+00 0.77941959E+03</pdfrwt>
<pdfrwt beam="2">  1       -2 0.79437454E-01 0.77941959E+03</pdfrwt>
<totfact> 0.11308036E+01</totfact>
</mgrwt>
</event>
<event>
 4    1  0.9654646E-007  0.1145812E+04  0.7818608E-02  0.9211686E-01
          2   -1    0    0  501    0  0.00000000000E+00  0.00000000000E+00  0.10046965068E+04  0.10046965068E+04  0.25500000000E-02 0. -1.
         -2   -1    0    0    0  501 -0.00000000000E+00 -0.00000000000E+00 -0.19084600862E+04  0.19084600862E+04  0.25500000000E-02 0.  1.
    8880023    1    1    2    0    0  0.89554079071E+03 -0.27763494886E+03 -0.14258299156E+04  0.18291734820E+04  0.65864270000E+03 0.  1.
    8880022    1    1    2    0    0 -0.89554079071E+03  0.27763494886E+03  0.52206633624E+03  0.10839831111E+04  0.15294330000E+03 0.  0.
<mgrwt>
<rscale>  0 0.10933616E+04</rscale>
<asrwt>0</asrwt>
<pdfrwt beam="1">  1        2 0.15456869E+00 0.11458118E+04</pdfrwt>
<pdfrwt beam="2">  1       -2 0.29360924E+00 0.11458118E+04</pdfrwt>
<totfact> 0.85593195E-01</totfact>
</mgrwt>
</event>
<event>
 4    1  0.9654646E-007  0.1864297E+04  0.7818608E-02  0.8687779E-01
          2   -1    0    0  501    0  0.00000000000E+00  0.00000000000E+00  0.17137501919E+04  0.17137501919E+04  0.25500000000E-02 0. -1.
         -2   -1    0    0    0  501 -0.00000000000E+00 -0.00000000000E+00 -0.23362296802E+04  0.23362296802E+04  0.25500000000E-02 0.  1.
    8880023    1    1    2    0    0  0.41437282408E+03 -0.16941332427E+04 -0.11874076333E+04  0.22103256265E+04  0.65864270000E+03 0.  0.
    8880022    1    1    2    0    0 -0.41437282408E+03  0.16941332427E+04  0.56492814504E+03  0.18396542456E+04  0.15294330000E+03 0.  0.
<mgrwt>
<rscale>  0 0.18352421E+04</rscale>
<asrwt>0</asrwt>
<pdfrwt beam="1">  1        2 0.26365387E+00 0.18642968E+04</pdfrwt>
<pdfrwt beam="2">  1       -2 0.35941995E+00 0.18642968E+04</pdfrwt>
<totfact> 0.11808550E-01</totfact>
</mgrwt>
</event>
<event>
 4    1  0.9654646E-007  0.6680075E+03  0.7818608E-02  0.1017133E+00
          2   -1    0    0  501    0  0.00000000000E+00  0.00000000000E+00  0.51936223736E+03  0.51936223737E+03  0.25500000000E-02 0. -1.
         -2   -1    0    0    0  501 -0.00000000000E+00 -0.00000000000E+00 -0.10322713467E+04  0.10322713467E+04  0.25500000000E-02 0.  1.
    8880023    1    1    2    0    0  0.71289356945E+02  0.85683651898E+02 -0.89996369942E+03  0.11207893322E+04  0.65864270000E+03 0.  1.
    8880022    1    1    2    0    0 -0.71289356945E+02 -0.85683651898E+02  0.38705459011E+03  0.43084425186E+03  0.15294330000E+03 0.  0.
<mgrwt>
<rscale>  0 0.48735443E+03</rscale>
<asrwt>0</asrwt>
<pdfrwt beam="1">  1        2 0.79901883E-01 0.66800754E+03</pdfrwt>
<pdfrwt beam="2">  1       -2 0.15881098E+00 0.66800754E+03</pdfrwt>
<totfact> 0.15487443E+01</totfact>
</mgrwt>
</event>
<event>
 4    1  0.9654646E-007  0.7981245E+03  0.7818608E-02  0.9714866E-01
          2   -1    0    0  501    0  0.00000000000E+00  0.00000000000E+00  0.12265071390E+04  0.12265071390E+04  0.25500000000E-02 0. -1.
         -2   -1    0    0    0  501 -0.00000000000E+00 -0.00000000000E+00 -0.34162139900E+03  0.34162139901E+03  0.25500000000E-02 0.  1.
    8880023    1    1    2    0    0 -0.21130562856E+03 -0.39817395075E+03  0.41626871576E+03  0.90015688283E+03  0.65864270000E+03 0.  0.
    8880022    1    1    2    0    0  0.21130562856E+03  0.39817395075E+03  0.46861702425E+03  0.66797165519E+03  0.15294330000E+03 0.  0.
<mgrwt>
<rscale>  0 0.70138537E+03</rscale>
<asrwt>0</asrwt>
<pdfrwt beam="1">  1        2 0.18869341E+00 0.79812453E+03</pdfrwt>
<pdfrwt beam="2">  1       -2 0.52557138E-01 0.79812453E+03</pdfrwt>
<totfact> 0.63199743E+01</totfact>
</mgrwt>
</event>
<event>
 4    1  0.9654646E-007  0.8151961E+03  0.7818608E-02  0.9678854E-01
          2   -1    0    0  501    0  0.00000000000E+00  0.00000000000E+00  0.18935460009E+04  0.18935460010E+04  0.25500000000E-02 0. -1.
         -2   -1    0    0    0  501 -0.00000000000E+00 -0.00000000000E+00 -0.80420774887E+03  0.80420774888E+03  0.25500000000E-02 0.  1.
    8880023    1    1    2    0    0 -0.47033389431E+03  0.97573174263E+02 -0.54952006373E+03  0.98311596629E+03  0.65864270000E+03 0.  1.
    8880022    1    1    2    0    0  0.47033389431E+03 -0.97573174263E+02  0.16388583158E+04  0.17146377835E+04  0.15294330000E+03 0.  0.
<mgrwt>
<rscale>  0 0.72289920E+03</rscale>
<asrwt>0</asrwt>
<pdfrwt beam="1">  1        2 0.29131477E+00 0.81519611E+03</pdfrwt>
<pdfrwt beam="2">  1       -2 0.12372427E+00 0.81519611E+03</pdfrwt>
<totfact> 0.38540896E+00</totfact>
</mgrwt>
</event>
<event>
 4    1  0.9654646E-007  0.7032833E+03  0.7818608E-02  0.9983844E-01
         -2   -1    0    0    0  501 -0.00000000000E+00  0.00000000000E+00  0.22601860768E+03  0.22601860769E+03  0.25500000000E-02 0.  1.
          2   -1    0    0  501    0  0.00000000000E+00 -0.00000000000E+00 -0.18575475224E+04  0.18575475224E+04  0.25500000000E-02 0. -1.
    8880023    1    1    2    0    0  0.26753582513E+02 -0.24511509385E+03 -0.38107643270E+03  0.79989162843E+03  0.65864270000E+03 0.  1.
    8880022    1    1    2    0    0 -0.26753582513E+02  0.24511509385E+03 -0.12504524821E+04  0.12836745017E+04  0.15294330000E+03 0.  0.
<mgrwt>
<rscale>  0 0.56364352E+03</rscale>
<asrwt>0</asrwt>
<pdfrwt beam="1">  1        2 0.28577653E+00 0.70328328E+03</pdfrwt>
<pdfrwt beam="2">  1       -2 0.34772095E-01 0.70328328E+03</pdfrwt>
<totfact> 0.64143577E+01</totfact>
</mgrwt>
</event>
<event>
 4    1  0.9654646E-007  0.7848522E+03  0.7818608E-02  0.9744560E-01
         -2   -1    0    0    0  501 -0.00000000000E+00  0.00000000000E+00  0.98575792059E+03  0.98575792060E+03  0.25500000000E-02 0.  1.
          2   -1    0    0  501    0  0.00000000000E+00 -0.00000000000E+00 -0.99661589800E+03  0.99661589801E+03  0.25500000000E-02 0. -1.
    8880023    1    1    2    0    0  0.42648100653E+03  0.17224872528E+02  0.75713694936E+03  0.10905270797E+04  0.65864270000E+03 0.  0.
    8880022    1    1    2    0    0 -0.42648100653E+03 -0.17224872528E+02 -0.76799492677E+03  0.89184673892E+03  0.15294330000E+03 0.  0.
<mgrwt>
<rscale>  0 0.68424563E+03</rscale>
<asrwt>0</asrwt>
<pdfrwt beam="1">  1        2 0.15332552E+00 0.78485218E+03</pdfrwt>
<pdfrwt beam="2">  1       -2 0.15165506E+00 0.78485218E+03</pdfrwt>
<totfact> 0.74711915E+00</totfact>
</mgrwt>
</event>
<event>
 4    1  0.9654646E-007  0.7914117E+03  0.7818608E-02  0.9729683E-01
         -2   -1    0    0    0  501 -0.00000000000E+00  0.00000000000E+00  0.17003120335E+04  0.17003120335E+04  0.25500000000E-02 0.  1.
          2   -1    0    0  501    0  0.00000000000E+00 -0.00000000000E+00 -0.85304277975E+03  0.85304277975E+03  0.25500000000E-02 0. -1.
    8880023    1    1    2    0    0 -0.15618835794E+02 -0.43849557103E+03  0.15328764244E+04  0.17251210545E+04  0.65864270000E+03 0.  1.
    8880022    1    1    2    0    0  0.15618835794E+02  0.43849557103E+03 -0.68560717061E+03  0.82823375882E+03  0.15294330000E+03 0.  0.
<mgrwt>
<rscale>  0 0.69276662E+03</rscale>
<asrwt>0</asrwt>
<pdfrwt beam="1">  1        2 0.13123735E+00 0.79141173E+03</pdfrwt>
<pdfrwt beam="2">  1       -2 0.26158647E+00 0.79141173E+03</pdfrwt>
<totfact> 0.17716310E+00</totfact>
</mgrwt>
</event>
<event>
 4    1  0.9654646E-007  0.8190275E+03  0.7818608E-02  0.9671071E-01
          2   -1    0    0  501    0  0.00000000000E+00  0.00000000000E+00  0.11978039695E+04  0.11978039695E+04  0.25500000000E-02 0. -1.
         -2   -1    0    0    0  501 -0.00000000000E+00 -0.00000000000E+00 -0.40371444931E+03  0.40371444932E+03  0.25500000000E-02 0.  1.
    8880023    1    1    2    0    0  0.17345728386E+03  0.45487180598E+03  0.25172173489E+03  0.85683710662E+03  0.65864270000E+03 0.  0.
    8880022    1    1    2    0    0 -0.17345728386E+03 -0.45487180598E+03  0.54236778534E+03  0.74468131224E+03  0.15294330000E+03 0.  0.
<mgrwt>
<rscale>  0 0.72765640E+03</rscale>
<asrwt>0</asrwt>
<pdfrwt beam="1">  1        2 0.18427753E+00 0.81902747E+03</pdfrwt>
<pdfrwt beam="2">  1       -2 0.62109916E-01 0.81902747E+03</pdfrwt>
<totfact> 0.46244872E+01</totfact>
</mgrwt>
</event>
<event>
 4    1  0.9654646E-007  0.9467025E+03  0.7818608E-02  0.9454874E-01
          2   -1    0    0  501    0  0.00000000000E+00  0.00000000000E+00  0.38134670429E+04  0.38134670429E+04  0.25500000000E-02 0. -1.
         -2   -1    0    0    0  501 -0.00000000000E+00 -0.00000000000E+00 -0.32052650859E+03  0.32052650860E+03  0.25500000000E-02 0.  1.
    8880023    1    1    2    0    0 -0.49560874361E+03  0.46562577837E+03  0.51934171363E+03  0.10797969318E+04  0.65864270000E+03 0.  0.
    8880022    1    1    2    0    0  0.49560874361E+03 -0.46562577837E+03  0.29735988207E+04  0.30541966197E+04  0.15294330000E+03 0.  0.
<mgrwt>
<rscale>  0 0.87694095E+03</rscale>
<asrwt>0</asrwt>
<pdfrwt beam="1">  1        2 0.58668723E+00 0.94670249E+03</pdfrwt>
<pdfrwt beam="2">  1       -2 0.49311771E-01 0.94670249E+03</pdfrwt>
<totfact> 0.19748332E+00</totfact>
</mgrwt>
</event>
<event>
 4    1  0.9654646E-007  0.6713240E+03  0.7818608E-02  0.1014731E+00
         -2   -1    0    0    0  501 -0.00000000000E+00  0.00000000000E+00  0.12457853008E+03  0.12457853010E+03  0.25500000000E-02 0.  1.
          2   -1    0    0  501    0  0.00000000000E+00 -0.00000000000E+00 -0.26778968582E+04  0.26778968582E+04  0.25500000000E-02 0. -1.
    8880023    1    1    2    0    0 -0.81480795090E+02 -0.10112667201E+03 -0.82996771183E+03  0.10674841136E+04  0.65864270000E+03 0.  1.
    8880022    1    1    2    0    0  0.81480795090E+02  0.10112667201E+03 -0.17233506163E+04  0.17349912748E+04  0.15294330000E+03 0.  0.
<mgrwt>
<rscale>  0 0.49636919E+03</rscale>
<asrwt>0</asrwt>
<pdfrwt beam="1">  1        2 0.41198409E+00 0.67132401E+03</pdfrwt>
<pdfrwt beam="2">  1       -2 0.19165930E-01 0.67132401E+03</pdfrwt>
<totfact> 0.66462547E+01</totfact>
</mgrwt>
</event>
<event>
 4    1  0.9654646E-007  0.7766415E+03  0.7818608E-02  0.9763786E-01
          2   -1    0    0  501    0  0.00000000000E+00  0.00000000000E+00  0.18703981190E+04  0.18703981190E+04  0.25500000000E-02 0. -1.
         -2   -1    0    0    0  501 -0.00000000000E+00 -0.00000000000E+00 -0.31115363113E+03  0.31115363114E+03  0.25500000000E-02 0.  1.
    8880023    1    1    2    0    0  0.35167115559E+03  0.21375036248E+03  0.27427622130E+03  0.82365009013E+03  0.65864270000E+03 0.  1.
    8880022    1    1    2    0    0 -0.35167115559E+03 -0.21375036248E+03  0.12849682666E+04  0.13579016600E+04  0.15294330000E+03 0.  0.
<mgrwt>
<rscale>  0 0.67342731E+03</rscale>
<asrwt>0</asrwt>
<pdfrwt beam="1">  1        2 0.28775355E+00 0.77664150E+03</pdfrwt>
<pdfrwt beam="2">  1       -2 0.47869790E-01 0.77664150E+03</pdfrwt>
<totfact> 0.33462413E+01</totfact>
</mgrwt>
</event>
<event>
 4    1  0.9654646E-007  0.7030418E+03  0.7818608E-02  0.9984809E-01
          2   -1    0    0  501    0  0.00000000000E+00  0.00000000000E+00  0.14152510191E+04  0.14152510191E+04  0.25500000000E-02 0. -1.
         -2   -1    0    0    0  501 -0.00000000000E+00 -0.00000000000E+00 -0.35318676849E+03  0.35318676850E+03  0.25500000000E-02 0.  1.
    8880023    1    1    2    0    0 -0.23756570186E+03  0.63404031477E+02  0.37831262231E+02  0.70405890703E+03  0.65864270000E+03 0.  1.
    8880022    1    1    2    0    0  0.23756570186E+03 -0.63404031477E+02  0.10242329883E+04  0.10643788805E+04  0.15294330000E+03 0.  0.
<mgrwt>
<rscale>  0 0.56321370E+03</rscale>
<asrwt>0</asrwt>
<pdfrwt beam="1">  1        2 0.21773093E+00 0.70304178E+03</pdfrwt>
<pdfrwt beam="2">  1       -2 0.54336426E-01 0.70304178E+03</pdfrwt>
<totfact> 0.46391793E+01</totfact>
</mgrwt>
</event>
<event>
 4    1  0.9654646E-007  0.7669167E+03  0.7818608E-02  0.9787519E-01
         -2   -1    0    0    0  501 -0.00000000000E+00  0.00000000000E+00  0.20615175377E+03  0.20615175379E+03  0.25500000000E-02 0.  1.
          2   -1    0    0  501    0  0.00000000000E+00 -0.00000000000E+00 -0.25550588221E+04  0.25550588221E+04  0.25500000000E-02 0. -1.
    8880023    1    1    2    0    0  0.15067847482E+03 -0.36283199706E+03 -0.63341781337E+03  0.99467552168E+03  0.65864270000E+03 0.  1.
    8880022    1    1    2    0    0 -0.15067847482E+03  0.36283199706E+03 -0.17154892550E+04  0.17665350542E+04  0.15294330000E+03 0.  0.
<mgrwt>
<rscale>  0 0.66036665E+03</rscale>
<asrwt>0</asrwt>
<pdfrwt beam="1">  1        2 0.39308595E+00 0.76691673E+03</pdfrwt>
<pdfrwt beam="2">  1       -2 0.31715656E-01 0.76691673E+03</pdfrwt>
<totfact> 0.31123368E+01</totfact>
</mgrwt>
</event>
<event>
 4    1  0.1293380E-006  0.9629405E+03  0.7818608E-02  0.9431735E-01
         -2   -1    0    0    0  501 -0.00000000000E+00  0.00000000000E+00  0.86851093428E+03  0.86851093429E+03  0.25500000000E-02 0.  1.
          2   -1    0    0  501    0  0.00000000000E+00 -0.00000000000E+00 -0.26635174823E+04  0.26635174823E+04  0.25500000000E-02 0. -1.
    8880023    1    1    2    0    0 -0.12649832739E+03 -0.69097201578E+03  0.52947873814E+03  0.10989095021E+04  0.65864270000E+03 0.  1.
    8880022    1    1    2    0    0  0.12649832739E+03  0.69097201578E+03 -0.23244852861E+04  0.24331189144E+04  0.15294330000E+03 0.  0.
<mgrwt>
<rscale>  0 0.89509402E+03</rscale>
<asrwt>0</asrwt>
<pdfrwt beam="1">  1        2 0.40977192E+00 0.96294048E+03</pdfrwt>
<pdfrwt beam="2">  1       -2 0.13361707E+00 0.96294048E+03</pdfrwt>
<totfact> 0.11483684E+00</totfact>
</mgrwt>
</event>
<event>
 4    1  0.9654646E-007  0.7313339E+03  0.7818608E-02  0.9885950E-01
          2   -1    0    0  501    0  0.00000000000E+00  0.00000000000E+00  0.93821230429E+03  0.93821230429E+03  0.25500000000E-02 0. -1.
         -2   -1    0    0    0  501 -0.00000000000E+00 -0.00000000000E+00 -0.67878472909E+03  0.67878472909E+03  0.25500000000E-02 0.  1.
    8880023    1    1    2    0    0 -0.31394238450E+03  0.49791806671E+02 -0.42583217259E+03  0.84627554040E+03  0.65864270000E+03 0.  1.
    8880022    1    1    2    0    0  0.31394238450E+03 -0.49791806671E+02  0.68525974779E+03  0.77072149299E+03  0.15294330000E+03 0.  0.
<mgrwt>
<rscale>  0 0.60947053E+03</rscale>
<asrwt>0</asrwt>
<pdfrwt beam="1">  1        2 0.14434035E+00 0.73133388E+03</pdfrwt>
<pdfrwt beam="2">  1       -2 0.10442842E+00 0.73133388E+03</pdfrwt>
<totfact> 0.20952655E+01</totfact>
</mgrwt>
</event>
<event>
 4    1  0.9654646E-007  0.1109830E+04  0.7818608E-02  0.9250190E-01
         -2   -1    0    0    0  501 -0.00000000000E+00  0.00000000000E+00  0.89519169821E+03  0.89519169821E+03  0.25500000000E-02 0.  1.
          2   -1    0    0  501    0  0.00000000000E+00 -0.00000000000E+00 -0.25456324275E+04  0.25456324275E+04  0.25500000000E-02 0. -1.
    8880023    1    1    2    0    0  0.64435216955E+03 -0.61864618525E+03  0.41533611753E+03  0.11850008935E+04  0.65864270000E+03 0.  0.
    8880022    1    1    2    0    0 -0.64435216955E+03  0.61864618525E+03 -0.20657768468E+04  0.22558232322E+04  0.15294330000E+03 0.  0.
<mgrwt>
<rscale>  0 0.10550072E+04</rscale>
<asrwt>0</asrwt>
<pdfrwt beam="1">  1        2 0.39163575E+00 0.11098302E+04</pdfrwt>
<pdfrwt beam="2">  1       -2 0.13772180E+00 0.11098302E+04</pdfrwt>
<totfact> 0.12163825E+00</totfact>
</mgrwt>
</event>
<event>
 4    1  0.9654646E-007  0.6725344E+03  0.7818608E-02  0.1013908E+00
         -2   -1    0    0    0  501 -0.00000000000E+00  0.00000000000E+00  0.97300692243E+03  0.97300692244E+03  0.25500000000E-02 0.  1.
          2   -1    0    0  501    0  0.00000000000E+00 -0.00000000000E+00 -0.11414014964E+04  0.11414014964E+04  0.25500000000E-02 0. -1.
    8880023    1    1    2    0    0  0.11257355891E+03 -0.76285750602E+02  0.84533398792E+03  0.10802277905E+04  0.65864270000E+03 0.  1.
    8880022    1    1    2    0    0 -0.11257355891E+03  0.76285750602E+02 -0.10137285619E+04  0.10341806284E+04  0.15294330000E+03 0.  0.
<mgrwt>
<rscale>  0 0.49950733E+03</rscale>
<asrwt>0</asrwt>
<pdfrwt beam="1">  1        2 0.17560023E+00 0.67253441E+03</pdfrwt>
<pdfrwt beam="2">  1       -2 0.14969337E+00 0.67253441E+03</pdfrwt>
<totfact> 0.63866083E+00</totfact>
</mgrwt>
</event>
<event>
 4    1  0.9654646E-007  0.7296209E+03  0.7818608E-02  0.9891282E-01
         -2   -1    0    0    0  501 -0.00000000000E+00  0.00000000000E+00  0.69460801499E+03  0.69460801500E+03  0.25500000000E-02 0.  1.
          2   -1    0    0  501    0  0.00000000000E+00 -0.00000000000E+00 -0.11020085355E+04  0.11020085355E+04  0.25500000000E-02 0. -1.
    8880023    1    1    2    0    0 -0.31390200837E+03 -0.14186938921E+01  0.45934734164E+03  0.86217554482E+03  0.65864270000E+03 0. -1.
    8880022    1    1    2    0    0  0.31390200837E+03  0.14186938921E+01 -0.86674786212E+03  0.93444100566E+03  0.15294330000E+03 0.  0.
<mgrwt>
<rscale>  0 0.60685642E+03</rscale>
<asrwt>0</asrwt>
<pdfrwt beam="1">  1        2 0.16953978E+00 0.72962092E+03</pdfrwt>
<pdfrwt beam="2">  1       -2 0.10686277E+00 0.72962092E+03</pdfrwt>
<totfact> 0.15619399E+01</totfact>
</mgrwt>
</event>
<event>
 4    1  0.9654646E-007  0.6892531E+03  0.7818608E-02  0.1004510E+00
         -2   -1    0    0    0  501 -0.00000000000E+00  0.00000000000E+00  0.25885950370E+03  0.25885950371E+03  0.25500000000E-02 0.  1.
          2   -1    0    0  501    0  0.00000000000E+00 -0.00000000000E+00 -0.13537685586E+04  0.13537685586E+04  0.25500000000E-02 0. -1.
    8880023    1    1    2    0    0  0.22018219546E+02  0.20192785998E+03 -0.25473126352E+03  0.73481826699E+03  0.65864270000E+03 0.  1.
    8880022    1    1    2    0    0 -0.22018219546E+02 -0.20192785998E+03 -0.84017779133E+03  0.87780979528E+03  0.15294330000E+03 0.  0.
<mgrwt>
<rscale>  0 0.53716317E+03</rscale>
<asrwt>0</asrwt>
<pdfrwt beam="1">  1        2 0.20827208E+00 0.68925312E+03</pdfrwt>
<pdfrwt beam="2">  1       -2 0.39824540E-01 0.68925312E+03</pdfrwt>
<totfact> 0.93849677E+01</totfact>
</mgrwt>
</event>
<event>
 4    1  0.9654646E-007  0.6737658E+03  0.7818608E-02  0.1013096E+00
          2   -1    0    0  501    0  0.00000000000E+00  0.00000000000E+00  0.18159191829E+04  0.18159191829E+04  0.25500000000E-02 0. -1.
         -2   -1    0    0    0  501 -0.00000000000E+00 -0.00000000000E+00 -0.13340283861E+03  0.13340283863E+03  0.25500000000E-02 0.  1.
    8880023    1    1    2    0    0  0.92869159193E+02 -0.10735694972E+03  0.81688952395E+03  0.10588998517E+04  0.65864270000E+03 0.  1.
    8880022    1    1    2    0    0 -0.92869159193E+02  0.10735694972E+03  0.86562682033E+03  0.89042216980E+03  0.15294330000E+03 0.  0.
<mgrwt>
<rscale>  0 0.50262617E+03</rscale>
<asrwt>0</asrwt>
<pdfrwt beam="1">  1        2 0.27937219E+00 0.67376584E+03</pdfrwt>
<pdfrwt beam="2">  1       -2 0.20523513E-01 0.67376584E+03</pdfrwt>
<totfact> 0.17717643E+02</totfact>
</mgrwt>
</event>
<event>
 4    1  0.9654646E-007  0.6890671E+03  0.7818608E-02  0.1004599E+00
         -2   -1    0    0    0  501 -0.00000000000E+00  0.00000000000E+00  0.55141504710E+03  0.55141504711E+03  0.25500000000E-02 0.  1.
          2   -1    0    0  501    0  0.00000000000E+00 -0.00000000000E+00 -0.29628716935E+04  0.29628716935E+04  0.25500000000E-02 0. -1.
    8880023    1    1    2    0    0  0.10371374561E+03  0.17391568603E+03  0.32796654931E+03  0.76313528984E+03  0.65864270000E+03 0.  1.
    8880022    1    1    2    0    0 -0.10371374561E+03 -0.17391568603E+03 -0.27394231957E+04  0.27511514508E+04  0.15294330000E+03 0.  0.
<mgrwt>
<rscale>  0 0.53678765E+03</rscale>
<asrwt>0</asrwt>
<pdfrwt beam="1">  1        2 0.45582641E+00 0.68906706E+03</pdfrwt>
<pdfrwt beam="2">  1       -2 0.84833086E-01 0.68906706E+03</pdfrwt>
<totfact> 0.24012433E+00</totfact>
</mgrwt>
</event>
<event>
 4    1  0.9654646E-007  0.7418110E+03  0.7818608E-02  0.9854703E-01
          2   -1    0    0  501    0  0.00000000000E+00  0.00000000000E+00  0.12182864417E+04  0.12182864417E+04  0.25500000000E-02 0. -1.
         -2   -1    0    0    0  501 -0.00000000000E+00 -0.00000000000E+00 -0.31136621928E+03  0.31136621929E+03  0.25500000000E-02 0.  1.
    8880023    1    1    2    0    0 -0.34042228887E+03 -0.24207247326E+02  0.26687847443E+03  0.78835756606E+03  0.65864270000E+03 0.  0.
    8880022    1    1    2    0    0  0.34042228887E+03  0.24207247326E+02  0.64004174800E+03  0.74129509494E+03  0.15294330000E+03 0.  0.
<mgrwt>
<rscale>  0 0.62507707E+03</rscale>
<asrwt>0</asrwt>
<pdfrwt beam="1">  1        2 0.18742869E+00 0.74181098E+03</pdfrwt>
<pdfrwt beam="2">  1       -2 0.47902494E-01 0.74181098E+03</pdfrwt>
<totfact> 0.77576062E+01</totfact>
</mgrwt>
</event>
<event>
 4    1  0.9654646E-007  0.7086465E+03  0.7818608E-02  0.9963062E-01
          2   -1    0    0  501    0  0.00000000000E+00  0.00000000000E+00  0.27310605984E+04  0.27310605984E+04  0.25500000000E-02 0. -1.
         -2   -1    0    0    0  501 -0.00000000000E+00 -0.00000000000E+00 -0.14153612933E+04  0.14153612933E+04  0.25500000000E-02 0.  1.
    8880023    1    1    2    0    0 -0.22668028367E+03 -0.13032898176E+03 -0.13174284771E+04  0.14959270012E+04  0.65864270000E+03 0.  1.
    8880022    1    1    2    0    0  0.22668028367E+03  0.13032898176E+03  0.26331277822E+04  0.26504948906E+04  0.15294330000E+03 0.  0.
<mgrwt>
<rscale>  0 0.57300001E+03</rscale>
<asrwt>0</asrwt>
<pdfrwt beam="1">  1        2 0.42016317E+00 0.70864646E+03</pdfrwt>
<pdfrwt beam="2">  1       -2 0.21774789E+00 0.70864646E+03</pdfrwt>
<totfact> 0.28091203E-01</totfact>
</mgrwt>
</event>
<event>
 4    1  0.9654646E-007  0.1157037E+04  0.7818608E-02  0.9200060E-01
         -2   -1    0    0    0  501 -0.00000000000E+00  0.00000000000E+00  0.34639772315E+03  0.34639772316E+03  0.25500000000E-02 0.  1.
          2   -1    0    0  501    0  0.00000000000E+00 -0.00000000000E+00 -0.34553400697E+04  0.34553400697E+04  0.25500000000E-02 0. -1.
    8880023    1    1    2    0    0  0.69400737729E+03  0.65059913434E+03 -0.12208935026E+04  0.16820572595E+04  0.65864270000E+03 0.  0.
    8880022    1    1    2    0    0 -0.69400737729E+03 -0.65059913434E+03 -0.18880488439E+04  0.21196805333E+04  0.15294330000E+03 0.  0.
<mgrwt>
<rscale>  0 0.11052808E+04</rscale>
<asrwt>0</asrwt>
<pdfrwt beam="1">  1        2 0.53159076E+00 0.11570375E+04</pdfrwt>
<pdfrwt beam="2">  1       -2 0.53291960E-01 0.11570375E+04</pdfrwt>
<totfact> 0.29344681E+00</totfact>
</mgrwt>
</event>
<event>
 4    1  0.9654646E-007  0.8126889E+03  0.7818608E-02  0.9684003E-01
         -2   -1    0    0    0  501 -0.00000000000E+00  0.00000000000E+00  0.18620264104E+03  0.18620264105E+03  0.25500000000E-02 0.  1.
          2   -1    0    0  501    0  0.00000000000E+00 -0.00000000000E+00 -0.33573522579E+04  0.33573522579E+04  0.25500000000E-02 0. -1.
    8880023    1    1    2    0    0  0.43252427143E+03  0.19893664506E+03 -0.87746870452E+03  0.11959994012E+04  0.65864270000E+03 0.  0.
    8880022    1    1    2    0    0 -0.43252427143E+03 -0.19893664506E+03 -0.22936809124E+04  0.23475554977E+04  0.15294330000E+03 0.  0.
<mgrwt>
<rscale>  0 0.71977283E+03</rscale>
<asrwt>0</asrwt>
<pdfrwt beam="1">  1        2 0.51651569E+00 0.81268890E+03</pdfrwt>
<pdfrwt beam="2">  1       -2 0.28646563E-01 0.81268890E+03</pdfrwt>
<totfact> 0.12088884E+01</totfact>
</mgrwt>
</event>
<event>
 4    1  0.9654646E-007  0.7253237E+03  0.7818608E-02  0.9904968E-01
         -2   -1    0    0    0  501 -0.00000000000E+00  0.00000000000E+00  0.19352526853E+03  0.19352526855E+03  0.25500000000E-02 0.  1.
          2   -1    0    0  501    0  0.00000000000E+00 -0.00000000000E+00 -0.18821852861E+04  0.18821852861E+04  0.25500000000E-02 0. -1.
    8880023    1    1    2    0    0  0.16277372547E+03 -0.25649349855E+03 -0.61988289252E+03  0.95412221817E+03  0.65864270000E+03 0.  0.
    8880022    1    1    2    0    0 -0.16277372547E+03  0.25649349855E+03 -0.10687771250E+04  0.11215883365E+04  0.15294330000E+03 0.  0.
<mgrwt>
<rscale>  0 0.60021137E+03</rscale>
<asrwt>0</asrwt>
<pdfrwt beam="1">  1        2 0.28956695E+00 0.72532366E+03</pdfrwt>
<pdfrwt beam="2">  1       -2 0.29773120E-01 0.72532366E+03</pdfrwt>
<totfact> 0.83009658E+01</totfact>
</mgrwt>
</event>
<event>
 4    1  0.9654646E-007  0.9046149E+03  0.7818608E-02  0.9518663E-01
          2   -1    0    0  501    0  0.00000000000E+00  0.00000000000E+00  0.40122624346E+04  0.40122624346E+04  0.25500000000E-02 0. -1.
         -2   -1    0    0    0  501 -0.00000000000E+00 -0.00000000000E+00 -0.24125618567E+03  0.24125618568E+03  0.25500000000E-02 0.  1.
    8880023    1    1    2    0    0  0.60386434019E+03 -0.14094626589E+03  0.77807694410E+03  0.11932023837E+04  0.65864270000E+03 0.  0.
    8880022    1    1    2    0    0 -0.60386434019E+03  0.14094626589E+03  0.29929293048E+04  0.30603162366E+04  0.15294330000E+03 0.  0.
<mgrwt>
<rscale>  0 0.82921723E+03</rscale>
<asrwt>0</asrwt>
<pdfrwt beam="1">  1        2 0.61727120E+00 0.90461494E+03</pdfrwt>
<pdfrwt beam="2">  1       -2 0.37116333E-01 0.90461494E+03</pdfrwt>
<totfact> 0.24555752E+00</totfact>
</mgrwt>
</event>
<event>
 4    1  0.9654646E-007  0.7840899E+03  0.7818608E-02  0.9746316E-01
          2   -1    0    0  501    0  0.00000000000E+00  0.00000000000E+00  0.29186073607E+04  0.29186073607E+04  0.25500000000E-02 0. -1.
         -2   -1    0    0    0  501 -0.00000000000E+00 -0.00000000000E+00 -0.13663828014E+03  0.13663828016E+03  0.25500000000E-02 0.  1.
    8880023    1    1    2    0    0  0.42456374400E+03 -0.27062809093E+02  0.14466848425E+04  0.16455072191E+04  0.65864270000E+03 0.  1.
    8880022    1    1    2    0    0 -0.42456374400E+03  0.27062809093E+02  0.13352842381E+04  0.14097384218E+04  0.15294330000E+03 0. -1.
<mgrwt>
<rscale>  0 0.68324864E+03</rscale>
<asrwt>0</asrwt>
<pdfrwt beam="1">  1        2 0.44901648E+00 0.78408990E+03</pdfrwt>
<pdfrwt beam="2">  1       -2 0.21021276E-01 0.78408990E+03</pdfrwt>
<totfact> 0.40099243E+01</totfact>
</mgrwt>
</event>
<event>
 4    1  0.9654646E-007  0.7362681E+03  0.7818608E-02  0.9870954E-01
         -2   -1    0    0    0  501 -0.00000000000E+00  0.00000000000E+00  0.47486350977E+03  0.47486350977E+03  0.25500000000E-02 0.  1.
          2   -1    0    0  501    0  0.00000000000E+00 -0.00000000000E+00 -0.31811792784E+04  0.31811792784E+04  0.25500000000E-02 0. -1.
    8880023    1    1    2    0    0 -0.31542146999E+03 -0.93753604637E+02  0.17105858597E+03  0.75587809084E+03  0.65864270000E+03 0.  1.
    8880022    1    1    2    0    0  0.31542146999E+03  0.93753604637E+02 -0.28773743546E+04  0.29001646973E+04  0.15294330000E+03 0.  0.
<mgrwt>
<rscale>  0 0.61689846E+03</rscale>
<asrwt>0</asrwt>
<pdfrwt beam="1">  1        2 0.48941218E+00 0.73626805E+03</pdfrwt>
<pdfrwt beam="2">  1       -2 0.73055926E-01 0.73626805E+03</pdfrwt>
<totfact> 0.24319319E+00</totfact>
</mgrwt>
</event>
<event>
 4    1  0.9654646E-007  0.1425147E+04  0.7818608E-02  0.8964385E-01
          2   -1    0    0  501    0  0.00000000000E+00  0.00000000000E+00  0.14433456661E+04  0.14433456661E+04  0.25500000000E-02 0. -1.
         -2   -1    0    0    0  501 -0.00000000000E+00 -0.00000000000E+00 -0.16723940137E+04  0.16723940137E+04  0.25500000000E-02 0.  1.
    8880023    1    1    2    0    0  0.10294708363E+04  0.73309174846E+03  0.65235130680E+03  0.15673564203E+04  0.65864270000E+03 0.  0.
    8880022    1    1    2    0    0 -0.10294708363E+04 -0.73309174846E+03 -0.88139965445E+03  0.15483832595E+04  0.15294330000E+03 0.  0.
<mgrwt>
<rscale>  0 0.13854953E+04</rscale>
<asrwt>0</asrwt>
<pdfrwt beam="1">  1        2 0.22205318E+00 0.14251470E+04</pdfrwt>
<pdfrwt beam="2">  1       -2 0.25729139E+00 0.14251470E+04</pdfrwt>
<totfact> 0.75116694E-01</totfact>
</mgrwt>
</event>
<event>
 4    1  0.9654646E-007  0.8784617E+03  0.7818608E-02  0.9561532E-01
         -2   -1    0    0    0  501 -0.00000000000E+00  0.00000000000E+00  0.45057786039E+03  0.45057786040E+03  0.25500000000E-02 0.  1.
          2   -1    0    0  501    0  0.00000000000E+00 -0.00000000000E+00 -0.16372577022E+04  0.16372577022E+04  0.25500000000E-02 0. -1.
    8880023    1    1    2    0    0 -0.58127037563E+03 -0.30784542280E+01 -0.11993342103E+04  0.14866396607E+04  0.65864270000E+03 0. -1.
    8880022    1    1    2    0    0  0.58127037563E+03  0.30784542280E+01  0.12654368451E+02  0.60119590195E+03  0.15294330000E+03 0.  0.
<mgrwt>
<rscale>  0 0.79895453E+03</rscale>
<asrwt>0</asrwt>
<pdfrwt beam="1">  1        2 0.25188580E+00 0.87846169E+03</pdfrwt>
<pdfrwt beam="2">  1       -2 0.69319672E-01 0.87846169E+03</pdfrwt>
<totfact> 0.20412353E+01</totfact>
</mgrwt>
</event>
<event>
 4    1  0.9654646E-007  0.6702189E+03  0.7818608E-02  0.1015506E+00
          2   -1    0    0  501    0  0.00000000000E+00  0.00000000000E+00  0.42113533306E+04  0.42113533306E+04  0.25500000000E-02 0. -1.
         -2   -1    0    0    0  501 -0.00000000000E+00 -0.00000000000E+00 -0.58121951129E+02  0.58121951185E+02  0.25500000000E-02 0.  1.
    8880023    1    1    2    0    0 -0.12109636343E+03 -0.26809991840E+02  0.20440913328E+04  0.21511631012E+04  0.65864270000E+03 0.  1.
    8880022    1    1    2    0    0  0.12109636343E+03  0.26809991840E+02  0.21091400467E+04  0.21183121806E+04  0.15294330000E+03 0.  0.
<mgrwt>
<rscale>  0 0.49343632E+03</rscale>
<asrwt>0</asrwt>
<pdfrwt beam="1">  1        2 0.64790062E+00 0.67021885E+03</pdfrwt>
<pdfrwt beam="2">  1       -2 0.89418371E-02 0.67021885E+03</pdfrwt>
<totfact> 0.21157856E+01</totfact>
</mgrwt>
</event>
<event>
 4    1  0.9654646E-007  0.9943498E+03  0.7818608E-02  0.9388987E-01
         -2   -1    0    0    0  501 -0.00000000000E+00  0.00000000000E+00  0.44708834696E+03  0.44708834697E+03  0.25500000000E-02 0.  1.
          2   -1    0    0  501    0  0.00000000000E+00 -0.00000000000E+00 -0.37756924857E+04  0.37756924857E+04  0.25500000000E-02 0. -1.
    8880023    1    1    2    0    0  0.71324585187E+03  0.21494573347E+03 -0.21457256302E+03  0.10172378801E+04  0.65864270000E+03 0.  1.
    8880022    1    1    2    0    0 -0.71324585187E+03 -0.21494573347E+03 -0.31140315757E+04  0.32055429526E+04  0.15294330000E+03 0.  0.
<mgrwt>
<rscale>  0 0.92987540E+03</rscale>
<asrwt>0</asrwt>
<pdfrwt beam="1">  1        2 0.58087575E+00 0.99434980E+03</pdfrwt>
<pdfrwt beam="2">  1       -2 0.68782825E-01 0.99434980E+03</pdfrwt>
<totfact> 0.10356810E+00</totfact>
</mgrwt>
</event>
<event>
 4    1  0.9654646E-007  0.1039887E+04  0.7818608E-02  0.9331139E-01
         -2   -1    0    0    0  501 -0.00000000000E+00  0.00000000000E+00  0.57593725656E+03  0.57593725657E+03  0.25500000000E-02 0.  1.
          2   -1    0    0  501    0  0.00000000000E+00 -0.00000000000E+00 -0.30994863726E+04  0.30994863726E+04  0.25500000000E-02 0. -1.
    8880023    1    1    2    0    0 -0.80463924373E+03  0.10465135416E+02 -0.18709167302E+02  0.10400548403E+04  0.65864270000E+03 0.  0.
    8880022    1    1    2    0    0  0.80463924373E+03 -0.10465135416E+02 -0.25048399488E+04  0.26353687889E+04  0.15294330000E+03 0.  0.
<mgrwt>
<rscale>  0 0.97966000E+03</rscale>
<asrwt>0</asrwt>
<pdfrwt beam="1">  1        2 0.47684404E+00 0.10398866E+04</pdfrwt>
<pdfrwt beam="2">  1       -2 0.88605734E-01 0.10398866E+04</pdfrwt>
<totfact> 0.16772941E+00</totfact>
</mgrwt>
</event>
<event>
 4    1  0.9654646E-007  0.1631875E+04  0.7818608E-02  0.8821723E-01
         -2   -1    0    0    0  501 -0.00000000000E+00  0.00000000000E+00  0.16667936341E+04  0.16667936341E+04  0.25500000000E-02 0.  1.
          2   -1    0    0  501    0  0.00000000000E+00 -0.00000000000E+00 -0.15479923442E+04  0.15479923442E+04  0.25500000000E-02 0. -1.
    8880023    1    1    2    0    0 -0.14626903511E+04  0.29957314304E+03  0.41761230273E+03  0.16844635268E+04  0.65864270000E+03 0.  0.
    8880022    1    1    2    0    0  0.14626903511E+04 -0.29957314304E+03 -0.29881101275E+03  0.15303224515E+04  0.15294330000E+03 0.  0.
<mgrwt>
<rscale>  0 0.15980881E+04</rscale>
<asrwt>0</asrwt>
<pdfrwt beam="1">  1        2 0.23815267E+00 0.16318754E+04</pdfrwt>
<pdfrwt beam="2">  1       -2 0.25642979E+00 0.16318754E+04</pdfrwt>
<totfact> 0.64965186E-01</totfact>
</mgrwt>
</event>
<event>
 4    1  0.9654646E-007  0.1272921E+04  0.7818608E-02  0.9089305E-01
          2   -1    0    0  501    0  0.00000000000E+00  0.00000000000E+00  0.16990993397E+04  0.16990993397E+04  0.25500000000E-02 0. -1.
         -2   -1    0    0    0  501 -0.00000000000E+00 -0.00000000000E+00 -0.93742512427E+03  0.93742512427E+03  0.25500000000E-02 0.  1.
    8880023    1    1    2    0    0 -0.10359990705E+04  0.33648592127E+03 -0.43015607786E+02  0.12736472817E+04  0.65864270000E+03 0.  0.
    8880022    1    1    2    0    0  0.10359990705E+04 -0.33648592127E+03  0.80468982318E+03  0.13628771822E+04  0.15294330000E+03 0.  0.
<mgrwt>
<rscale>  0 0.12272840E+04</rscale>
<asrwt>0</asrwt>
<pdfrwt beam="1">  1        2 0.26139990E+00 0.12729207E+04</pdfrwt>
<pdfrwt beam="2">  1       -2 0.14421925E+00 0.12729207E+04</pdfrwt>
<totfact> 0.31510973E+00</totfact>
</mgrwt>
</event>
<event>
 4    1  0.9654646E-007  0.7313555E+03  0.7818608E-02  0.9885883E-01
         -2   -1    0    0    0  501 -0.00000000000E+00  0.00000000000E+00  0.56970568761E+03  0.56970568762E+03  0.25500000000E-02 0.  1.
          2   -1    0    0  501    0  0.00000000000E+00 -0.00000000000E+00 -0.53249873860E+03  0.53249873861E+03  0.25500000000E-02 0. -1.
    8880023    1    1    2    0    0 -0.88970014107E+01  0.31779170345E+03  0.11659238550E+03  0.74059078716E+03  0.65864270000E+03 0.  1.
    8880022    1    1    2    0    0  0.88970014107E+01 -0.31779170345E+03 -0.79385436489E+02  0.36161363906E+03  0.15294330000E+03 0. -1.
<mgrwt>
<rscale>  0 0.60950346E+03</rscale>
<asrwt>0</asrwt>
<pdfrwt beam="1">  1        2 0.81922883E-01 0.73135554E+03</pdfrwt>
<pdfrwt beam="2">  1       -2 0.87647029E-01 0.73135554E+03</pdfrwt>
<totfact> 0.65076326E+01</totfact>
</mgrwt>
</event>
<event>
 4    1  0.9654646E-007  0.8144424E+03  0.7818608E-02  0.9680397E-01
          2   -1    0    0  501    0  0.00000000000E+00  0.00000000000E+00  0.26456058470E+04  0.26456058470E+04  0.25500000000E-02 0. -1.
         -2   -1    0    0    0  501 -0.00000000000E+00 -0.00000000000E+00 -0.24437728469E+03  0.24437728470E+03  0.25500000000E-02 0.  1.
    8880023    1    1    2    0    0  0.47806822497E+03 -0.30935000044E+02  0.57807269950E+03  0.99874143507E+03  0.65864270000E+03 0.  1.
    8880022    1    1    2    0    0 -0.47806822497E+03  0.30935000044E+02  0.18231558628E+04  0.18912416967E+04  0.15294330000E+03 0.  0.
<mgrwt>
<rscale>  0 0.72196047E+03</rscale>
<asrwt>0</asrwt>
<pdfrwt beam="1">  1        2 0.40701630E+00 0.81444239E+03</pdfrwt>
<pdfrwt beam="2">  1       -2 0.37596503E-01 0.81444239E+03</pdfrwt>
<totfact> 0.19841901E+01</totfact>
</mgrwt>
</event>
<event>
 4    1  0.9654646E-007  0.7842988E+03  0.7818608E-02  0.9745834E-01
         -2   -1    0    0    0  501 -0.00000000000E+00  0.00000000000E+00  0.43369673581E+03  0.43369673582E+03  0.25500000000E-02 0.  1.
          2   -1    0    0  501    0  0.00000000000E+00 -0.00000000000E+00 -0.12528978909E+04  0.12528978909E+04  0.25500000000E-02 0. -1.
    8880023    1    1    2    0    0 -0.40592119196E+03  0.12861692118E+03 -0.39700836853E+02  0.78530292830E+03  0.65864270000E+03 0.  1.
    8880022    1    1    2    0    0  0.40592119196E+03 -0.12861692118E+03 -0.77950031820E+03  0.90129169839E+03  0.15294330000E+03 0.  0.
<mgrwt>
<rscale>  0 0.68352194E+03</rscale>
<asrwt>0</asrwt>
<pdfrwt beam="1">  1        2 0.19275352E+00 0.78429875E+03</pdfrwt>
<pdfrwt beam="2">  1       -2 0.66722575E-01 0.78429875E+03</pdfrwt>
<totfact> 0.36918688E+01</totfact>
</mgrwt>
</event>
<event>
 4    1  0.9654646E-007  0.9013247E+03  0.7818608E-02  0.9523908E-01
          2   -1    0    0  501    0  0.00000000000E+00  0.00000000000E+00  0.79951824146E+03  0.79951824146E+03  0.25500000000E-02 0. -1.
         -2   -1    0    0    0  501 -0.00000000000E+00 -0.00000000000E+00 -0.10984911911E+04  0.10984911911E+04  0.25500000000E-02 0.  1.
    8880023    1    1    2    0    0 -0.59704225016E+03 -0.14871665244E+03 -0.70572325764E+03  0.11447408501E+04  0.65864270000E+03 0.  0.
    8880022    1    1    2    0    0  0.59704225016E+03  0.14871665244E+03  0.40675030804E+03  0.75326858244E+03  0.15294330000E+03 0.  0.
<mgrwt>
<rscale>  0 0.82543879E+03</rscale>
<asrwt>0</asrwt>
<pdfrwt beam="1">  1        2 0.12300281E+00 0.90132475E+03</pdfrwt>
<pdfrwt beam="2">  1       -2 0.16899865E+00 0.90132475E+03</pdfrwt>
<totfact> 0.74778060E+00</totfact>
</mgrwt>
</event>
<event>
 4    1  0.9654646E-007  0.7035740E+03  0.7818608E-02  0.9982686E-01
          2   -1    0    0  501    0  0.00000000000E+00  0.00000000000E+00  0.22076056510E+04  0.22076056510E+04  0.25500000000E-02 0. -1.
         -2   -1    0    0    0  501 -0.00000000000E+00 -0.00000000000E+00 -0.15120553086E+03  0.15120553088E+03  0.25500000000E-02 0.  1.
    8880023    1    1    2    0    0  0.22767650890E+03 -0.96796770349E+02  0.78321562008E+03  0.10528262541E+04  0.65864270000E+03 0.  0.
    8880022    1    1    2    0    0 -0.22767650890E+03  0.96796770349E+02  0.12731845001E+04  0.13059849278E+04  0.15294330000E+03 0.  0.
<mgrwt>
<rscale>  0 0.56415998E+03</rscale>
<asrwt>0</asrwt>
<pdfrwt beam="1">  1        2 0.33963163E+00 0.70357403E+03</pdfrwt>
<pdfrwt beam="2">  1       -2 0.23262390E-01 0.70357403E+03</pdfrwt>
<totfact> 0.86538065E+01</totfact>
</mgrwt>
</event>
<event>
 4    1  0.9654646E-007  0.7885862E+03  0.7818608E-02  0.9736041E-01
          2   -1    0    0  501    0  0.00000000000E+00  0.00000000000E+00  0.10814687603E+04  0.10814687603E+04  0.25500000000E-02 0. -1.
         -2   -1    0    0    0  501 -0.00000000000E+00 -0.00000000000E+00 -0.10691762246E+04  0.10691762246E+04  0.25500000000E-02 0.  1.
    8880023    1    1    2    0    0  0.79648582355E+01 -0.43358329482E+03 -0.85861238954E+03  0.11657973041E+04  0.65864270000E+03 0.  1.
    8880022    1    1    2    0    0 -0.79648582355E+01  0.43358329482E+03  0.87090492527E+03  0.98484768081E+03  0.15294330000E+03 0.  0.
<mgrwt>
<rscale>  0 0.68910866E+03</rscale>
<asrwt>0</asrwt>
<pdfrwt beam="1">  1        2 0.16637981E+00 0.78858615E+03</pdfrwt>
<pdfrwt beam="2">  1       -2 0.16448865E+00 0.78858615E+03</pdfrwt>
<totfact> 0.53046727E+00</totfact>
</mgrwt>
</event>
<event>
 4    1  0.9654646E-007  0.1036811E+04  0.7818608E-02  0.9334906E-01
         -2   -1    0    0    0  501 -0.00000000000E+00  0.00000000000E+00  0.12329980527E+04  0.12329980527E+04  0.25500000000E-02 0.  1.
          2   -1    0    0  501    0  0.00000000000E+00 -0.00000000000E+00 -0.15511950562E+04  0.15511950562E+04  0.25500000000E-02 0. -1.
    8880023    1    1    2    0    0 -0.49020102005E+03  0.63314361678E+03  0.86301208131E+03  0.13489877458E+04  0.65864270000E+03 0.  1.
    8880022    1    1    2    0    0  0.49020102005E+03 -0.63314361678E+03 -0.11812090848E+04  0.14352053632E+04  0.15294330000E+03 0.  0.
<mgrwt>
<rscale>  0 0.97631866E+03</rscale>
<asrwt>0</asrwt>
<pdfrwt beam="1">  1        2 0.23864539E+00 0.10368115E+04</pdfrwt>
<pdfrwt beam="2">  1       -2 0.18969201E+00 0.10368115E+04</pdfrwt>
<totfact> 0.18290094E+00</totfact>
</mgrwt>
</event>
<event>
 4    1  0.9654646E-007  0.7024018E+03  0.7818608E-02  0.9987380E-01
         -2   -1    0    0    0  501 -0.00000000000E+00  0.00000000000E+00  0.34387883659E+03  0.34387883660E+03  0.25500000000E-02 0.  1.
          2   -1    0    0  501    0  0.00000000000E+00 -0.00000000000E+00 -0.12492576471E+04  0.12492576471E+04  0.25500000000E-02 0. -1.
    8880023    1    1    2    0    0 -0.18500472294E+03 -0.15915842623E+03 -0.65736102933E+02  0.70547118555E+03  0.65864270000E+03 0.  1.
    8880022    1    1    2    0    0  0.18500472294E+03  0.15915842623E+03 -0.83964270760E+03  0.88766529818E+03  0.15294330000E+03 0.  0.
<mgrwt>
<rscale>  0 0.56207097E+03</rscale>
<asrwt>0</asrwt>
<pdfrwt beam="1">  1        2 0.19219348E+00 0.70240185E+03</pdfrwt>
<pdfrwt beam="2">  1       -2 0.52904437E-01 0.70240185E+03</pdfrwt>
<totfact> 0.60996420E+01</totfact>
</mgrwt>
</event>
<event>
 4    1  0.9654646E-007  0.1040265E+04  0.7818608E-02  0.9330676E-01
          2   -1    0    0  501    0  0.00000000000E+00  0.00000000000E+00  0.26735545797E+04  0.26735545797E+04  0.25500000000E-02 0. -1.
         -2   -1    0    0    0  501 -0.00000000000E+00 -0.00000000000E+00 -0.39002634072E+03  0.39002634073E+03  0.25500000000E-02 0.  1.
    8880023    1    1    2    0    0 -0.45300354858E+03  0.66567976544E+03  0.62496229693E+03  0.12135608118E+04  0.65864270000E+03 0.  0.
    8880022    1    1    2    0    0  0.45300354858E+03 -0.66567976544E+03  0.16585659421E+04  0.18500201086E+04  0.15294330000E+03 0.  0.
<mgrwt>
<rscale>  0 0.98007140E+03</rscale>
<asrwt>0</asrwt>
<pdfrwt beam="1">  1        2 0.41131611E+00 0.10402653E+04</pdfrwt>
<pdfrwt beam="2">  1       -2 0.60004050E-01 0.10402653E+04</pdfrwt>
<totfact> 0.72015990E+00</totfact>
</mgrwt>
</event>
<event>
 4    1  0.9654646E-007  0.8608382E+03  0.7818608E-02  0.9592074E-01
          2   -1    0    0  501    0  0.00000000000E+00  0.00000000000E+00  0.14146314203E+04  0.14146314203E+04  0.25500000000E-02 0. -1.
         -2   -1    0    0    0  501 -0.00000000000E+00 -0.00000000000E+00 -0.60926517048E+03  0.60926517049E+03  0.25500000000E-02 0.  1.
    8880023    1    1    2    0    0 -0.24222115485E+03  0.49855897183E+03 -0.18334121597E+03  0.88014563794E+03  0.65864270000E+03 0.  1.
    8880022    1    1    2    0    0  0.24222115485E+03 -0.49855897183E+03  0.98870746582E+03  0.11437509529E+04  0.15294330000E+03 0.  0.
<mgrwt>
<rscale>  0 0.77822987E+03</rscale>
<asrwt>0</asrwt>
<pdfrwt beam="1">  1        2 0.21763560E+00 0.86083816E+03</pdfrwt>
<pdfrwt beam="2">  1       -2 0.93733105E-01 0.86083816E+03</pdfrwt>
<totfact> 0.13781272E+01</totfact>
</mgrwt>
</event>
<event>
 4    1  0.9654646E-007  0.6757488E+03  0.7818608E-02  0.1011838E+00
          2   -1    0    0  501    0  0.00000000000E+00  0.00000000000E+00  0.34418323786E+03  0.34418323787E+03  0.25500000000E-02 0. -1.
         -2   -1    0    0    0  501 -0.00000000000E+00 -0.00000000000E+00 -0.10909162418E+04  0.10909162418E+04  0.25500000000E-02 0.  1.
    8880023    1    1    2    0    0 -0.12579978046E+03 -0.83669644006E+02 -0.93206921297E+03  0.11512555833E+04  0.65864270000E+03 0.  1.
    8880022    1    1    2    0    0  0.12579978046E+03  0.83669644006E+02  0.18533620905E+03  0.28384389634E+03  0.15294330000E+03 0.  0.
<mgrwt>
<rscale>  0 0.50750481E+03</rscale>
<asrwt>0</asrwt>
<pdfrwt beam="1">  1        2 0.52951268E-01 0.67574877E+03</pdfrwt>
<pdfrwt beam="2">  1       -2 0.16783327E+00 0.67574877E+03</pdfrwt>
<totfact> 0.21219806E+01</totfact>
</mgrwt>
</event>
<event>
 4    1  0.9654646E-007  0.6719703E+03  0.7818608E-02  0.1014288E+00
         -2   -1    0    0    0  501 -0.00000000000E+00  0.00000000000E+00  0.45594817173E+03  0.45594817174E+03  0.25500000000E-02 0.  1.
          2   -1    0    0  501    0  0.00000000000E+00 -0.00000000000E+00 -0.11571024060E+04  0.11571024060E+04  0.25500000000E-02 0. -1.
    8880023    1    1    2    0    0 -0.94313938876E+02  0.94014744384E+02  0.19063969340E+03  0.69848950614E+03  0.65864270000E+03 0.  1.
    8880022    1    1    2    0    0  0.94313938876E+02 -0.94014744384E+02 -0.89179392769E+03  0.91456107161E+03  0.15294330000E+03 0.  0.
<mgrwt>
<rscale>  0 0.49805410E+03</rscale>
<asrwt>0</asrwt>
<pdfrwt beam="1">  1        2 0.17801575E+00 0.67197031E+03</pdfrwt>
<pdfrwt beam="2">  1       -2 0.70145873E-01 0.67197031E+03</pdfrwt>
<totfact> 0.38166018E+01</totfact>
</mgrwt>
</event>
<event>
 4    1  0.9867836E-007  0.8625359E+03  0.7818608E-02  0.9589068E-01
          2   -1    0    0  501    0  0.00000000000E+00  0.00000000000E+00  0.15514768136E+04  0.15514768136E+04  0.25500000000E-02 0. -1.
         -2   -1    0    0    0  501 -0.00000000000E+00 -0.00000000000E+00 -0.11321562201E+04  0.11321562201E+04  0.25500000000E-02 0.  1.
    8880023    1    1    2    0    0 -0.41854481004E+03 -0.36739385712E+03 -0.89808082017E+03  0.12451977233E+04  0.65864270000E+03 0.  1.
    8880022    1    1    2    0    0  0.41854481004E+03  0.36739385712E+03  0.13174014137E+04  0.14384353103E+04  0.15294330000E+03 0.  0.
<mgrwt>
<rscale>  0 0.78023954E+03</rscale>
<asrwt>0</asrwt>
<pdfrwt beam="1">  1        2 0.23868874E+00 0.86253592E+03</pdfrwt>
<pdfrwt beam="2">  1       -2 0.17417788E+00 0.86253592E+03</pdfrwt>
<totfact> 0.23917745E+00</totfact>
</mgrwt>
</event>
<event>
 4    1  0.9654646E-007  0.8296118E+03  0.7818608E-02  0.9650088E-01
         -2   -1    0    0    0  501 -0.00000000000E+00  0.00000000000E+00  0.65067430155E+03  0.65067430155E+03  0.25500000000E-02 0.  1.
          2   -1    0    0  501    0  0.00000000000E+00 -0.00000000000E+00 -0.12029047750E+04  0.12029047750E+04  0.25500000000E-02 0. -1.
    8880023    1    1    2    0    0  0.35416518796E+03 -0.35918316518E+03  0.27386386737E+03  0.87364589544E+03  0.65864270000E+03 0.  1.
    8880022    1    1    2    0    0 -0.35416518796E+03  0.35918316518E+03 -0.82609434085E+03  0.97993318115E+03  0.15294330000E+03 0.  0.
<mgrwt>
<rscale>  0 0.74067892E+03</rscale>
<asrwt>0</asrwt>
<pdfrwt beam="1">  1        2 0.18506227E+00 0.82961180E+03</pdfrwt>
<pdfrwt beam="2">  1       -2 0.10010374E+00 0.82961180E+03</pdfrwt>
<totfact> 0.15706626E+01</totfact>
</mgrwt>
</event>
<event>
 4    1  0.9654646E-007  0.1480772E+04  0.7818608E-02  0.8923334E-01
          2   -1    0    0  501    0  0.00000000000E+00  0.00000000000E+00  0.17009900867E+04  0.17009900867E+04  0.25500000000E-02 0. -1.
         -2   -1    0    0    0  501 -0.00000000000E+00 -0.00000000000E+00 -0.15031847602E+04  0.15031847602E+04  0.25500000000E-02 0.  1.
    8880023    1    1    2    0    0  0.11812636900E+04 -0.60290346960E+03 -0.65590152576E+03  0.16195349693E+04  0.65864270000E+03 0.  0.
    8880022    1    1    2    0    0 -0.11812636900E+04  0.60290346960E+03  0.85370685227E+03  0.15846398776E+04  0.15294330000E+03 0.  0.
<mgrwt>
<rscale>  0 0.14429054E+04</rscale>
<asrwt>0</asrwt>
<pdfrwt beam="1">  1        2 0.26169078E+00 0.14807723E+04</pdfrwt>
<pdfrwt beam="2">  1       -2 0.23125919E+00 0.14807723E+04</pdfrwt>
<totfact> 0.77385482E-01</totfact>
</mgrwt>
</event>
<event>
 4    1  0.9654646E-007  0.7066229E+03  0.7818608E-02  0.9970762E-01
         -2   -1    0    0    0  501 -0.00000000000E+00  0.00000000000E+00  0.22462907649E+03  0.22462907651E+03  0.25500000000E-02 0.  1.
          2   -1    0    0  501    0  0.00000000000E+00 -0.00000000000E+00 -0.20428563714E+04  0.20428563714E+04  0.25500000000E-02 0. -1.
    8880023    1    1    2    0    0 -0.98639533350E+02  0.23616923368E+03 -0.38725351589E+03  0.80577984357E+03  0.65864270000E+03 0.  1.
    8880022    1    1    2    0    0  0.98639533350E+02 -0.23616923368E+03 -0.14309737790E+04  0.14617056044E+04  0.15294330000E+03 0.  0.
<mgrwt>
<rscale>  0 0.56951064E+03</rscale>
<asrwt>0</asrwt>
<pdfrwt beam="1">  1        2 0.31428558E+00 0.70662286E+03</pdfrwt>
<pdfrwt beam="2">  1       -2 0.34558321E-01 0.70662286E+03</pdfrwt>
<totfact> 0.51427626E+01</totfact>
</mgrwt>
</event>
<event>
 4    1  0.9654646E-007  0.9858874E+03  0.7818608E-02  0.9400259E-01
         -2   -1    0    0    0  501 -0.00000000000E+00  0.00000000000E+00  0.89440305616E+03  0.89440305616E+03  0.25500000000E-02 0.  1.
          2   -1    0    0  501    0  0.00000000000E+00 -0.00000000000E+00 -0.86808553752E+03  0.86808553752E+03  0.25500000000E-02 0. -1.
    8880023    1    1    2    0    0  0.65445329819E+03 -0.33144331108E+03 -0.13747731152E+03  0.99542654446E+03  0.65864270000E+03 0.  1.
    8880022    1    1    2    0    0 -0.65445329819E+03  0.33144331108E+03  0.16379483016E+03  0.76706204923E+03  0.15294330000E+03 0.  0.
<mgrwt>
<rscale>  0 0.92054404E+03</rscale>
<asrwt>0</asrwt>
<pdfrwt beam="1">  1        2 0.13355162E+00 0.98588741E+03</pdfrwt>
<pdfrwt beam="2">  1       -2 0.13760047E+00 0.98588741E+03</pdfrwt>
<totfact> 0.11503496E+01</totfact>
</mgrwt>
</event>
<event>
 4    1  0.9654646E-007  0.1506374E+04  0.7818608E-02  0.8905148E-01
          2   -1    0    0  501    0  0.00000000000E+00  0.00000000000E+00  0.27308561337E+04  0.27308561337E+04  0.25500000000E-02 0. -1.
         -2   -1    0    0    0  501 -0.00000000000E+00 -0.00000000000E+00 -0.15842246448E+04  0.15842246448E+04  0.25500000000E-02 0.  1.
    8880023    1    1    2    0    0  0.13152192907E+04  0.32488368070E+03  0.21479501081E+04  0.26235188320E+04  0.65864270000E+03 0.  0.
    8880022    1    1    2    0    0 -0.13152192907E+04 -0.32488368070E+03 -0.10013186192E+04  0.16915619465E+04  0.15294330000E+03 0.  0.
<mgrwt>
<rscale>  0 0.14692711E+04</rscale>
<asrwt>0</asrwt>
<pdfrwt beam="1">  1        2 0.42013171E+00 0.15063736E+04</pdfrwt>
<pdfrwt beam="2">  1       -2 0.24372687E+00 0.15063736E+04</pdfrwt>
<totfact> 0.16772846E-01</totfact>
</mgrwt>
</event>
<event>
 4    1  0.9654646E-007  0.7442345E+03  0.7818608E-02  0.9847780E-01
         -2   -1    0    0    0  501 -0.00000000000E+00  0.00000000000E+00  0.10281732253E+03  0.10281732256E+03  0.25500000000E-02 0.  1.
          2   -1    0    0  501    0  0.00000000000E+00 -0.00000000000E+00 -0.31582618740E+04  0.31582618740E+04  0.25500000000E-02 0. -1.
    8880023    1    1    2    0    0  0.81714709381E+02  0.33674540739E+03 -0.22737652955E+04  0.23924660057E+04  0.65864270000E+03 0. -1.
    8880022    1    1    2    0    0 -0.81714709381E+02 -0.33674540739E+03 -0.78167925602E+03  0.86861319092E+03  0.15294330000E+03 0.  1.
<mgrwt>
<rscale>  0 0.62860253E+03</rscale>
<asrwt>0</asrwt>
<pdfrwt beam="1">  1        2 0.48588637E+00 0.74423449E+03</pdfrwt>
<pdfrwt beam="2">  1       -2 0.15818052E-01 0.74423449E+03</pdfrwt>
<totfact> 0.46945885E+01</totfact>
</mgrwt>
</event>
<event>
 4    1  0.9654646E-007  0.8408851E+03  0.7818608E-02  0.9628514E-01
         -2   -1    0    0    0  501 -0.00000000000E+00  0.00000000000E+00  0.52898207390E+03  0.52898207391E+03  0.25500000000E-02 0.  1.
          2   -1    0    0  501    0  0.00000000000E+00 -0.00000000000E+00 -0.91702974726E+03  0.91702974727E+03  0.25500000000E-02 0. -1.
    8880023    1    1    2    0    0 -0.51729583929E+03  0.75382374219E+02 -0.16227622240E+03  0.85640017884E+03  0.65864270000E+03 0. -1.
    8880022    1    1    2    0    0  0.51729583929E+03 -0.75382374219E+02 -0.22577145096E+03  0.58961164234E+03  0.15294330000E+03 0.  1.
<mgrwt>
<rscale>  0 0.75437368E+03</rscale>
<asrwt>0</asrwt>
<pdfrwt beam="1">  1        2 0.14108150E+00 0.84088507E+03</pdfrwt>
<pdfrwt beam="2">  1       -2 0.81381857E-01 0.84088507E+03</pdfrwt>
<totfact> 0.38254937E+01</totfact>
</mgrwt>
</event>
<event>
 4    1  0.9654646E-007  0.7625971E+03  0.7818608E-02  0.9798430E-01
          2   -1    0    0  501    0  0.00000000000E+00  0.00000000000E+00  0.10058834466E+04  0.10058834466E+04  0.25500000000E-02 0. -1.
         -2   -1    0    0    0  501 -0.00000000000E+00 -0.00000000000E+00 -0.49274652923E+03  0.49274652923E+03  0.25500000000E-02 0.  1.
    8880023    1    1    2    0    0 -0.32165839225E+03 -0.21042829906E+03 -0.89325386482E+02  0.76781079784E+03  0.65864270000E+03 0.  0.
    8880022    1    1    2    0    0  0.32165839225E+03  0.21042829906E+03  0.60246230388E+03  0.73081917802E+03  0.15294330000E+03 0.  0.
<mgrwt>
<rscale>  0 0.65446888E+03</rscale>
<asrwt>0</asrwt>
<pdfrwt beam="1">  1        2 0.15475130E+00 0.76259714E+03</pdfrwt>
<pdfrwt beam="2">  1       -2 0.75807158E-01 0.76259714E+03</pdfrwt>
<totfact> 0.39508849E+01</totfact>
</mgrwt>
</event>
<event>
 4    1  0.9654646E-007  0.7734727E+03  0.7818608E-02  0.9771399E-01
          2   -1    0    0  501    0  0.00000000000E+00  0.00000000000E+00  0.34704549221E+04  0.34704549221E+04  0.25500000000E-02 0. -1.
         -2   -1    0    0    0  501 -0.00000000000E+00 -0.00000000000E+00 -0.14322902433E+03  0.14322902435E+03  0.25500000000E-02 0.  1.
    8880023    1    1    2    0    0 -0.86975258716E+02 -0.39608721988E+03  0.11002144847E+04  0.13448910365E+04  0.65864270000E+03 0.  1.
    8880022    1    1    2    0    0  0.86975258716E+02  0.39608721988E+03  0.22270114131E+04  0.22687929100E+04  0.15294330000E+03 0.  0.
<mgrwt>
<rscale>  0 0.66920266E+03</rscale>
<asrwt>0</asrwt>
<pdfrwt beam="1">  1        2 0.53391611E+00 0.77347268E+03</pdfrwt>
<pdfrwt beam="2">  1       -2 0.22035236E-01 0.77347268E+03</pdfrwt>
<totfact> 0.16431003E+01</totfact>
</mgrwt>
</event>
<event>
 4    1  0.9654646E-007  0.6700850E+03  0.7818608E-02  0.1015602E+00
         -2   -1    0    0    0  501 -0.00000000000E+00  0.00000000000E+00  0.51194750278E+03  0.51194750278E+03  0.25500000000E-02 0.  1.
          2   -1    0    0  501    0  0.00000000000E+00 -0.00000000000E+00 -0.22117601951E+04  0.22117601951E+04  0.25500000000E-02 0. -1.
    8880023    1    1    2    0    0 -0.12328118828E+03 -0.23245921788E+01  0.28573616187E+03  0.72846346207E+03  0.65864270000E+03 0.  0.
    8880022    1    1    2    0    0  0.12328118828E+03  0.23245921788E+01 -0.19855488542E+04  0.19952442359E+04  0.15294330000E+03 0. -1.
<mgrwt>
<rscale>  0 0.49307640E+03</rscale>
<asrwt>0</asrwt>
<pdfrwt beam="1">  1        2 0.34027079E+00 0.67008497E+03</pdfrwt>
<pdfrwt beam="2">  1       -2 0.78761156E-01 0.67008497E+03</pdfrwt>
<totfact> 0.76860811E+00</totfact>
</mgrwt>
</event>
<event>
 4    1  0.9654646E-007  0.1279273E+04  0.7818608E-02  0.9083668E-01
          2   -1    0    0  501    0  0.00000000000E+00  0.00000000000E+00  0.25281209863E+04  0.25281209863E+04  0.25500000000E-02 0. -1.
         -2   -1    0    0    0  501 -0.00000000000E+00 -0.00000000000E+00 -0.64900638203E+03  0.64900638203E+03  0.25500000000E-02 0.  1.
    8880023    1    1    2    0    0 -0.86740516079E+03 -0.67107256689E+03  0.42213073831E+03  0.13471208815E+04  0.65864270000E+03 0.  0.
    8880022    1    1    2    0    0  0.86740516079E+03  0.67107256689E+03  0.14569838659E+04  0.18300064868E+04  0.15294330000E+03 0.  0.
<mgrwt>
<rscale>  0 0.12339263E+04</rscale>
<asrwt>0</asrwt>
<pdfrwt beam="1">  1        2 0.38894170E+00 0.12792734E+04</pdfrwt>
<pdfrwt beam="2">  1       -2 0.99847134E-01 0.12792734E+04</pdfrwt>
<totfact> 0.27097453E+00</totfact>
</mgrwt>
</event>
<event>
 4    1  0.9654646E-007  0.6588015E+03  0.7818608E-02  0.1025419E+00
         -2   -1    0    0    0  501 -0.00000000000E+00  0.00000000000E+00  0.14618324099E+03  0.14618324102E+03  0.25500000000E-02 0.  1.
          2   -1    0    0  501    0  0.00000000000E+00 -0.00000000000E+00 -0.14184062846E+04  0.14184062846E+04  0.25500000000E-02 0. -1.
    8880023    1    1    2    0    0  0.83597543837E+01 -0.11800998842E+02 -0.65676219841E+03  0.93024509705E+03  0.65864270000E+03 0.  1.
    8880022    1    1    2    0    0 -0.83597543837E+01  0.11800998842E+02 -0.61546084517E+03  0.63434442854E+03  0.15294330000E+03 0.  0.
<mgrwt>
<rscale>  0 0.45780629E+03</rscale>
<asrwt>0</asrwt>
<pdfrwt beam="1">  1        2 0.21821634E+00 0.65880145E+03</pdfrwt>
<pdfrwt beam="2">  1       -2 0.22489730E-01 0.65880145E+03</pdfrwt>
<totfact> 0.24964822E+02</totfact>
</mgrwt>
</event>
<event>
 4    1  0.9654646E-007  0.8854310E+03  0.7818608E-02  0.9549836E-01
         -2   -1    0    0    0  501 -0.00000000000E+00  0.00000000000E+00  0.50650917418E+03  0.50650917419E+03  0.25500000000E-02 0.  1.
          2   -1    0    0  501    0  0.00000000000E+00 -0.00000000000E+00 -0.17036887660E+04  0.17036887660E+04  0.25500000000E-02 0. -1.
    8880023    1    1    2    0    0 -0.43912088069E+03  0.39667448653E+03 -0.22145767952E+02  0.88570787364E+03  0.65864270000E+03 0.  1.
    8880022    1    1    2    0    0  0.43912088069E+03 -0.39667448653E+03 -0.11750338238E+04  0.13244900665E+04  0.15294330000E+03 0.  0.
<mgrwt>
<rscale>  0 0.80707232E+03</rscale>
<asrwt>0</asrwt>
<pdfrwt beam="1">  1        2 0.26210596E+00 0.88543097E+03</pdfrwt>
<pdfrwt beam="2">  1       -2 0.77924489E-01 0.88543097E+03</pdfrwt>
<totfact> 0.14472365E+01</totfact>
</mgrwt>
</event>
<event>
 4    1  0.9654646E-007  0.1057075E+04  0.7818608E-02  0.9310425E-01
          2   -1    0    0  501    0  0.00000000000E+00  0.00000000000E+00  0.34578946070E+04  0.34578946070E+04  0.25500000000E-02 0. -1.
         -2   -1    0    0    0  501 -0.00000000000E+00 -0.00000000000E+00 -0.40930858024E+03  0.40930858025E+03  0.25500000000E-02 0.  1.
    8880023    1    1    2    0    0  0.11121769712E+03  0.81928447139E+03  0.47342596908E+03  0.11582481494E+04  0.65864270000E+03 0.  0.
    8880022    1    1    2    0    0 -0.11121769712E+03 -0.81928447139E+03  0.25751600577E+04  0.27089550379E+04  0.15294330000E+03 0.  0.
<mgrwt>
<rscale>  0 0.99828772E+03</rscale>
<asrwt>0</asrwt>
<pdfrwt beam="1">  1        2 0.53198378E+00 0.10570746E+04</pdfrwt>
<pdfrwt beam="2">  1       -2 0.62970552E-01 0.10570746E+04</pdfrwt>
<totfact> 0.20852216E+00</totfact>
</mgrwt>
</event>
<event>
 4    1  0.9654646E-007  0.6629640E+03  0.7818608E-02  0.1021306E+00
         -2   -1    0    0    0  501 -0.00000000000E+00  0.00000000000E+00  0.61381972706E+03  0.61381972707E+03  0.25500000000E-02 0.  1.
          2   -1    0    0  501    0  0.00000000000E+00 -0.00000000000E+00 -0.69626634111E+03  0.69626634112E+03  0.25500000000E-02 0. -1.
    8880023    1    1    2    0    0 -0.54476171645E+02 -0.52377374376E+02  0.41639323742E+03  0.78288222426E+03  0.65864270000E+03 0.  1.
    8880022    1    1    2    0    0  0.54476171645E+02  0.52377374376E+02 -0.49883985147E+03  0.52720384393E+03  0.15294330000E+03 0.  0.
<mgrwt>
<rscale>  0 0.47218165E+03</rscale>
<asrwt>0</asrwt>
<pdfrwt beam="1">  1        2 0.10711790E+00 0.66296399E+03</pdfrwt>
<pdfrwt beam="2">  1       -2 0.94433804E-01 0.66296399E+03</pdfrwt>
<totfact> 0.39791050E+01</totfact>
</mgrwt>
</event>
<event>
 4    1  0.9654646E-007  0.6968109E+03  0.7818608E-02  0.1001070E+00
          2   -1    0    0  501    0  0.00000000000E+00  0.00000000000E+00  0.10380213066E+04  0.10380213066E+04  0.25500000000E-02 0. -1.
         -2   -1    0    0    0  501 -0.00000000000E+00 -0.00000000000E+00 -0.11251596167E+04  0.11251596167E+04  0.25500000000E-02 0.  1.
    8880023    1    1    2    0    0  0.43946973854E+02 -0.22316780164E+03 -0.99506479415E+03  0.12147836659E+04  0.65864270000E+03 0.  1.
    8880022    1    1    2    0    0 -0.43946973854E+02  0.22316780164E+03  0.90792648409E+03  0.94839725734E+03  0.15294330000E+03 0.  0.
<mgrwt>
<rscale>  0 0.55183672E+03</rscale>
<asrwt>0</asrwt>
<pdfrwt beam="1">  1        2 0.15969559E+00 0.69681089E+03</pdfrwt>
<pdfrwt beam="2">  1       -2 0.17310148E+00 0.69681089E+03</pdfrwt>
<totfact> 0.49658131E+00</totfact>
</mgrwt>
</event>
<event>
 4    1  0.9654646E-007  0.9370982E+03  0.7818608E-02  0.9468925E-01
          2   -1    0    0  501    0  0.00000000000E+00  0.00000000000E+00  0.12002683316E+04  0.12002683316E+04  0.25500000000E-02 0. -1.
         -2   -1    0    0    0  501 -0.00000000000E+00 -0.00000000000E+00 -0.79021980189E+03  0.79021980189E+03  0.25500000000E-02 0.  1.
    8880023    1    1    2    0    0  0.20015585368E+03 -0.63583055361E+03 -0.31991140342E+03  0.99020016712E+03  0.65864270000E+03 0.  0.
    8880022    1    1    2    0    0 -0.20015585368E+03  0.63583055361E+03  0.72995993314E+03  0.10002879664E+04  0.15294330000E+03 0.  0.
<mgrwt>
<rscale>  0 0.86614132E+03</rscale>
<asrwt>0</asrwt>
<pdfrwt beam="1">  1        2 0.18465666E+00 0.93709822E+03</pdfrwt>
<pdfrwt beam="2">  1       -2 0.12157228E+00 0.93709822E+03</pdfrwt>
<totfact> 0.97200377E+00</totfact>
</mgrwt>
</event>
<event>
 4    1  0.9654646E-007  0.7147632E+03  0.7818608E-02  0.9940721E-01
         -2   -1    0    0    0  501 -0.00000000000E+00  0.00000000000E+00  0.94881437006E+03  0.94881437006E+03  0.25500000000E-02 0.  1.
          2   -1    0    0  501    0  0.00000000000E+00 -0.00000000000E+00 -0.35713031542E+03  0.35713031543E+03  0.25500000000E-02 0. -1.
    8880023    1    1    2    0    0 -0.27601927327E+03  0.29826239197E+02  0.66973925404E+03  0.97950861070E+03  0.65864270000E+03 0.  1.
    8880022    1    1    2    0    0  0.27601927327E+03 -0.29826239197E+02 -0.78055199399E+02  0.32643607480E+03  0.15294330000E+03 0.  0.
<mgrwt>
<rscale>  0 0.58327728E+03</rscale>
<asrwt>0</asrwt>
<pdfrwt beam="1">  1        2 0.54943125E-01 0.71476321E+03</pdfrwt>
<pdfrwt beam="2">  1       -2 0.14597144E+00 0.71476321E+03</pdfrwt>
<totfact> 0.29519491E+01</totfact>
</mgrwt>
</event>
<event>
 4    1  0.9654646E-007  0.6832908E+03  0.7818608E-02  0.1007520E+00
          2   -1    0    0  501    0  0.00000000000E+00  0.00000000000E+00  0.12534362545E+04  0.12534362545E+04  0.25500000000E-02 0. -1.
         -2   -1    0    0    0  501 -0.00000000000E+00 -0.00000000000E+00 -0.27505779767E+03  0.27505779768E+03  0.25500000000E-02 0.  1.
    8880023    1    1    2    0    0 -0.91345798648E+02  0.15726407299E+03  0.19603201247E+03  0.71085497801E+03  0.65864270000E+03 0.  1.
    8880022    1    1    2    0    0  0.91345798648E+02 -0.15726407299E+03  0.78234644439E+03  0.81763907419E+03  0.15294330000E+03 0.  0.
<mgrwt>
<rscale>  0 0.52472187E+03</rscale>
<asrwt>0</asrwt>
<pdfrwt beam="1">  1        2 0.19283635E+00 0.68329075E+03</pdfrwt>
<pdfrwt beam="2">  1       -2 0.42316584E-01 0.68329075E+03</pdfrwt>
<totfact> 0.95222768E+01</totfact>
</mgrwt>
</event>
<event>
 4    1  0.9654646E-007  0.9124719E+03  0.7818608E-02  0.9506300E-01
         -2   -1    0    0    0  501 -0.00000000000E+00  0.00000000000E+00  0.81140638955E+03  0.81140638956E+03  0.25500000000E-02 0.  1.
          2   -1    0    0  501    0  0.00000000000E+00 -0.00000000000E+00 -0.79042336148E+03  0.79042336148E+03  0.25500000000E-02 0. -1.
    8880023    1    1    2    0    0  0.61085037398E+03  0.16017672182E+03  0.18646538347E+03  0.93132932258E+03  0.65864270000E+03 0.  0.
    8880022    1    1    2    0    0 -0.61085037398E+03 -0.16017672182E+03 -0.16548235539E+03  0.67050042846E+03  0.15294330000E+03 0.  0.
<mgrwt>
<rscale>  0 0.83820965E+03</rscale>
<asrwt>0</asrwt>
<pdfrwt beam="1">  1        2 0.12160359E+00 0.91247190E+03</pdfrwt>
<pdfrwt beam="2">  1       -2 0.12483175E+00 0.91247190E+03</pdfrwt>
<totfact> 0.16838072E+01</totfact>
</mgrwt>
</event>
<event>
 4    1  0.9654646E-007  0.6747381E+03  0.7818608E-02  0.1012472E+00
          2   -1    0    0  501    0  0.00000000000E+00  0.00000000000E+00  0.18990315948E+04  0.18990315948E+04  0.25500000000E-02 0. -1.
         -2   -1    0    0    0  501 -0.00000000000E+00 -0.00000000000E+00 -0.42050511688E+03  0.42050511689E+03  0.25500000000E-02 0.  1.
    8880023    1    1    2    0    0  0.13801475514E+03  0.49124050032E+02 -0.13841133600E+03  0.68878817435E+03  0.65864270000E+03 0.  1.
    8880022    1    1    2    0    0 -0.13801475514E+03 -0.49124050032E+02  0.16169378139E+04  0.16307485373E+04  0.15294330000E+03 0.  0.
<mgrwt>
<rscale>  0 0.50503935E+03</rscale>
<asrwt>0</asrwt>
<pdfrwt beam="1">  1        2 0.29215871E+00 0.67473806E+03</pdfrwt>
<pdfrwt beam="2">  1       -2 0.64693094E-01 0.67473806E+03</pdfrwt>
<totfact> 0.17498730E+01</totfact>
</mgrwt>
</event>
<event>
 4    1  0.9654646E-007  0.9989587E+03  0.7818608E-02  0.9382921E-01
          2   -1    0    0  501    0  0.00000000000E+00  0.00000000000E+00  0.48262173415E+03  0.48262173415E+03  0.25500000000E-02 0. -1.
         -2   -1    0    0    0  501 -0.00000000000E+00 -0.00000000000E+00 -0.24991279835E+04  0.24991279835E+04  0.25500000000E-02 0.  1.
    8880023    1    1    2    0    0  0.91224675269E+01  0.75101597524E+03 -0.19760440997E+04  0.22141970790E+04  0.65864270000E+03 0.  0.
    8880022    1    1    2    0    0 -0.91224675269E+01 -0.75101597524E+03 -0.40462149620E+02  0.76755263861E+03  0.15294330000E+03 0.  0.
<mgrwt>
<rscale>  0 0.93494618E+03</rscale>
<asrwt>0</asrwt>
<pdfrwt beam="1">  1        2 0.74249499E-01 0.99895867E+03</pdfrwt>
<pdfrwt beam="2">  1       -2 0.38448122E+00 0.99895867E+03</pdfrwt>
<totfact> 0.61250216E-01</totfact>
</mgrwt>
</event>
<event>
 4    1  0.9654646E-007  0.1001001E+04  0.7818608E-02  0.9380249E-01
         -2   -1    0    0    0  501 -0.00000000000E+00  0.00000000000E+00  0.10866491881E+04  0.10866491881E+04  0.25500000000E-02 0.  1.
          2   -1    0    0  501    0  0.00000000000E+00 -0.00000000000E+00 -0.87977827332E+03  0.87977827332E+03  0.25500000000E-02 0. -1.
    8880023    1    1    2    0    0 -0.82434221086E+02 -0.74926490602E+03  0.52942626681E+03  0.11323849515E+04  0.65864270000E+03 0.  0.
    8880022    1    1    2    0    0  0.82434221086E+02  0.74926490602E+03 -0.32255535202E+03  0.83404250991E+03  0.15294330000E+03 0.  0.
<mgrwt>
<rscale>  0 0.93719099E+03</rscale>
<asrwt>0</asrwt>
<pdfrwt beam="1">  1        2 0.13535050E+00 0.10010013E+04</pdfrwt>
<pdfrwt beam="2">  1       -2 0.16717680E+00 0.10010013E+04</pdfrwt>
<totfact> 0.66999059E+00</totfact>
</mgrwt>
</event>
<event>
 4    1  0.9654646E-007  0.8382871E+03  0.7818608E-02  0.9633419E-01
         -2   -1    0    0    0  501 -0.00000000000E+00  0.00000000000E+00  0.16744900075E+04  0.16744900075E+04  0.25500000000E-02 0.  1.
          2   -1    0    0  501    0  0.00000000000E+00 -0.00000000000E+00 -0.81498194127E+03  0.81498194128E+03  0.25500000000E-02 0. -1.
    8880023    1    1    2    0    0 -0.11782845778E+02  0.51843629743E+03  0.14586992811E+04  0.16824175548E+04  0.65864270000E+03 0.  0.
    8880022    1    1    2    0    0  0.11782845778E+02 -0.51843629743E+03 -0.59919121480E+03  0.80705439399E+03  0.15294330000E+03 0.  0.
<mgrwt>
<rscale>  0 0.75123260E+03</rscale>
<asrwt>0</asrwt>
<pdfrwt beam="1">  1        2 0.12538184E+00 0.83828708E+03</pdfrwt>
<pdfrwt beam="2">  1       -2 0.25761385E+00 0.83828708E+03</pdfrwt>
<totfact> 0.19772668E+00</totfact>
</mgrwt>
</event>
<event>
 4    1  0.9654646E-007  0.6903271E+03  0.7818608E-02  0.1003998E+00
         -2   -1    0    0    0  501 -0.00000000000E+00  0.00000000000E+00  0.34362048839E+03  0.34362048840E+03  0.25500000000E-02 0.  1.
          2   -1    0    0  501    0  0.00000000000E+00 -0.00000000000E+00 -0.93786720940E+03  0.93786720940E+03  0.25500000000E-02 0. -1.
    8880023    1    1    2    0    0 -0.17684969401E+03 -0.10707696919E+03 -0.65385154158E+02  0.69341669741E+03  0.65864270000E+03 0.  1.
    8880022    1    1    2    0    0  0.17684969401E+03  0.10707696919E+03 -0.52886156684E+03  0.58807100039E+03  0.15294330000E+03 0.  0.
<mgrwt>
<rscale>  0 0.53931615E+03</rscale>
<asrwt>0</asrwt>
<pdfrwt beam="1">  1        2 0.14428726E+00 0.69032709E+03</pdfrwt>
<pdfrwt beam="2">  1       -2 0.52864691E-01 0.69032709E+03</pdfrwt>
<totfact> 0.95008275E+01</totfact>
</mgrwt>
</event>
<event>
 4    1  0.9654646E-007  0.6656621E+03  0.7818608E-02  0.1018984E+00
          2   -1    0    0  501    0  0.00000000000E+00  0.00000000000E+00  0.18512881563E+04  0.18512881563E+04  0.25500000000E-02 0. -1.
         -2   -1    0    0    0  501 -0.00000000000E+00 -0.00000000000E+00 -0.58894075289E+03  0.58894075289E+03  0.25500000000E-02 0.  1.
    8880023    1    1    2    0    0 -0.70145690533E+02  0.66146695953E+02 -0.39434429738E+03  0.77370112732E+03  0.65864270000E+03 0.  1.
    8880022    1    1    2    0    0  0.70145690533E+02 -0.66146695953E+02  0.16566917008E+04  0.16665277819E+04  0.15294330000E+03 0.  0.
<mgrwt>
<rscale>  0 0.48054936E+03</rscale>
<asrwt>0</asrwt>
<pdfrwt beam="1">  1        2 0.28481356E+00 0.66566208E+03</pdfrwt>
<pdfrwt beam="2">  1       -2 0.90606272E-01 0.66566208E+03</pdfrwt>
<totfact> 0.87959615E+00</totfact>
</mgrwt>
</event>
<event>
 4    1  0.9654646E-007  0.6893122E+03  0.7818608E-02  0.1004481E+00
         -2   -1    0    0    0  501 -0.00000000000E+00  0.00000000000E+00  0.97692108815E+03  0.97692108815E+03  0.25500000000E-02 0.  1.
          2   -1    0    0  501    0  0.00000000000E+00 -0.00000000000E+00 -0.22820693409E+03  0.22820693411E+03  0.25500000000E-02 0. -1.
    8880023    1    1    2    0    0 -0.20063458041E+03  0.32967672126E+02  0.56558941850E+03  0.89165166901E+03  0.65864270000E+03 0.  0.
    8880022    1    1    2    0    0  0.20063458041E+03 -0.32967672126E+02  0.18312473556E+03  0.31347635325E+03  0.15294330000E+03 0. -1.
<mgrwt>
<rscale>  0 0.53728224E+03</rscale>
<asrwt>0</asrwt>
<pdfrwt beam="1">  1        2 0.35108759E-01 0.68931220E+03</pdfrwt>
<pdfrwt beam="2">  1       -2 0.15029555E+00 0.68931220E+03</pdfrwt>
<totfact> 0.45081929E+01</totfact>
</mgrwt>
</event>
<event>
 4    1  0.9654646E-007  0.9969946E+03  0.7818608E-02  0.9385500E-01
          2   -1    0    0  501    0  0.00000000000E+00  0.00000000000E+00  0.38255940768E+04  0.38255940768E+04  0.25500000000E-02 0. -1.
         -2   -1    0    0    0  501 -0.00000000000E+00 -0.00000000000E+00 -0.27699965844E+03  0.27699965845E+03  0.25500000000E-02 0.  1.
    8880023    1    1    2    0    0 -0.70478104560E+03  0.25193590488E+03  0.89009310098E+03  0.13365118619E+04  0.65864270000E+03 0.  0.
    8880022    1    1    2    0    0  0.70478104560E+03 -0.25193590488E+03  0.26585013173E+04  0.27660818733E+04  0.15294330000E+03 0.  0.
<mgrwt>
<rscale>  0 0.93278622E+03</rscale>
<asrwt>0</asrwt>
<pdfrwt beam="1">  1        2 0.58855293E+00 0.99699460E+03</pdfrwt>
<pdfrwt beam="2">  1       -2 0.42615333E-01 0.99699460E+03</pdfrwt>
<totfact> 0.25701610E+00</totfact>
</mgrwt>
</event>
<event>
 4    1  0.9654646E-007  0.8288465E+03  0.7818608E-02  0.9651581E-01
          2   -1    0    0  501    0  0.00000000000E+00  0.00000000000E+00  0.31980041014E+03  0.31980041015E+03  0.25500000000E-02 0. -1.
         -2   -1    0    0    0  501 -0.00000000000E+00 -0.00000000000E+00 -0.25585066023E+04  0.25585066023E+04  0.25500000000E-02 0.  1.
    8880023    1    1    2    0    0  0.49972443327E+03  0.58752649992E+02 -0.22000380097E+04  0.23509899689E+04  0.65864270000E+03 0.  0.
    8880022    1    1    2    0    0 -0.49972443327E+03 -0.58752649992E+02 -0.38668182380E+02  0.52731704356E+03  0.15294330000E+03 0.  0.
<mgrwt>
<rscale>  0 0.73974297E+03</rscale>
<asrwt>0</asrwt>
<pdfrwt beam="1">  1        2 0.49200065E-01 0.82884654E+03</pdfrwt>
<pdfrwt beam="2">  1       -2 0.39361639E+00 0.82884654E+03</pdfrwt>
<totfact> 0.87468536E-01</totfact>
</mgrwt>
</event>
<event>
 4    1  0.9654646E-007  0.7234826E+03  0.7818608E-02  0.9910973E-01
          2   -1    0    0  501    0  0.00000000000E+00  0.00000000000E+00  0.12277747526E+04  0.12277747526E+04  0.25500000000E-02 0. -1.
         -2   -1    0    0    0  501 -0.00000000000E+00 -0.00000000000E+00 -0.99077985035E+03  0.99077985035E+03  0.25500000000E-02 0.  1.
    8880023    1    1    2    0    0 -0.29877680006E+03 -0.18690377011E+02 -0.82929641754E+03  0.11005269923E+04  0.65864270000E+03 0.  1.
    8880022    1    1    2    0    0  0.29877680006E+03  0.18690377011E+02  0.10662913198E+04  0.11180276106E+04  0.15294330000E+03 0.  0.
<mgrwt>
<rscale>  0 0.59732405E+03</rscale>
<asrwt>0</asrwt>
<pdfrwt beam="1">  1        2 0.18888842E+00 0.72348263E+03</pdfrwt>
<pdfrwt beam="2">  1       -2 0.15242767E+00 0.72348263E+03</pdfrwt>
<totfact> 0.53693513E+00</totfact>
</mgrwt>
</event>
<event>
 4    1  0.9654646E-007  0.7191296E+03  0.7818608E-02  0.9925542E-01
          2   -1    0    0  501    0  0.00000000000E+00  0.00000000000E+00  0.13704675728E+04  0.13704675728E+04  0.25500000000E-02 0. -1.
         -2   -1    0    0    0  501 -0.00000000000E+00 -0.00000000000E+00 -0.61370256520E+03  0.61370256521E+03  0.25500000000E-02 0.  1.
    8880023    1    1    2    0    0  0.28019193627E+03  0.69495736859E+02 -0.37159856648E+03  0.80946456344E+03  0.65864270000E+03 0.  1.
    8880022    1    1    2    0    0 -0.28019193627E+03 -0.69495736859E+02  0.11283635741E+04  0.11747055746E+04  0.15294330000E+03 0.  0.
<mgrwt>
<rscale>  0 0.59039218E+03</rscale>
<asrwt>0</asrwt>
<pdfrwt beam="1">  1        2 0.21084116E+00 0.71912960E+03</pdfrwt>
<pdfrwt beam="2">  1       -2 0.94415781E-01 0.71912960E+03</pdfrwt>
<totfact> 0.14598133E+01</totfact>
</mgrwt>
</event>
<event>
 4    1  0.9654646E-007  0.7275269E+03  0.7818608E-02  0.9897894E-01
         -2   -1    0    0    0  501 -0.00000000000E+00  0.00000000000E+00  0.23850061873E+04  0.23850061873E+04  0.25500000000E-02 0.  1.
          2   -1    0    0  501    0  0.00000000000E+00 -0.00000000000E+00 -0.40544194365E+03  0.40544194366E+03  0.25500000000E-02 0. -1.
    8880023    1    1    2    0    0  0.16678746447E+03  0.26012908149E+03  0.22420388667E+04  0.23571240280E+04  0.65864270000E+03 0.  0.
    8880022    1    1    2    0    0 -0.16678746447E+03 -0.26012908149E+03 -0.26247462313E+03  0.43332410289E+03  0.15294330000E+03 0.  0.
<mgrwt>
<rscale>  0 0.60363437E+03</rscale>
<asrwt>0</asrwt>
<pdfrwt beam="1">  1        2 0.62375685E-01 0.72752691E+03</pdfrwt>
<pdfrwt beam="2">  1       -2 0.36692402E+00 0.72752691E+03</pdfrwt>
<totfact> 0.10096357E+00</totfact>
</mgrwt>
</event>
<event>
 4    1  0.9654646E-007  0.7513821E+03  0.7818608E-02  0.9827952E-01
          2   -1    0    0  501    0  0.00000000000E+00  0.00000000000E+00  0.80586569337E+03  0.80586569337E+03  0.25500000000E-02 0. -1.
         -2   -1    0    0    0  501 -0.00000000000E+00 -0.00000000000E+00 -0.66700376552E+03  0.66700376552E+03  0.25500000000E-02 0.  1.
    8880023    1    1    2    0    0 -0.31948280837E+03  0.16939782682E+03 -0.36397975120E+03  0.83489900834E+03  0.65864270000E+03 0.  1.
    8880022    1    1    2    0    0  0.31948280837E+03 -0.16939782682E+03  0.50284167905E+03  0.63797045055E+03  0.15294330000E+03 0.  0.
<mgrwt>
<rscale>  0 0.63883822E+03</rscale>
<asrwt>0</asrwt>
<pdfrwt beam="1">  1        2 0.12397934E+00 0.75138212E+03</pdfrwt>
<pdfrwt beam="2">  1       -2 0.10261596E+00 0.75138212E+03</pdfrwt>
<totfact> 0.26870213E+01</totfact>
</mgrwt>
</event>
<event>
 4    1  0.9654646E-007  0.8491689E+03  0.7818608E-02  0.9613128E-01
         -2   -1    0    0    0  501 -0.00000000000E+00  0.00000000000E+00  0.51466131183E+03  0.51466131184E+03  0.25500000000E-02 0.  1.
          2   -1    0    0  501    0  0.00000000000E+00 -0.00000000000E+00 -0.10425675826E+04  0.10425675826E+04  0.25500000000E-02 0. -1.
    8880023    1    1    2    0    0  0.43206138663E+03 -0.31717592476E+03 -0.10101372114E+03  0.85515588472E+03  0.65864270000E+03 0.  1.
    8880022    1    1    2    0    0 -0.43206138663E+03  0.31717592476E+03 -0.42689254966E+03  0.70207300976E+03  0.15294330000E+03 0.  0.
<mgrwt>
<rscale>  0 0.76433341E+03</rscale>
<asrwt>0</asrwt>
<pdfrwt beam="1">  1        2 0.16039501E+00 0.84916890E+03</pdfrwt>
<pdfrwt beam="2">  1       -2 0.79178663E-01 0.84916890E+03</pdfrwt>
<totfact> 0.33726300E+01</totfact>
</mgrwt>
</event>
<event>
 4    1  0.9654646E-007  0.8305263E+03  0.7818608E-02  0.9648309E-01
          2   -1    0    0  501    0  0.00000000000E+00  0.00000000000E+00  0.13952380533E+04  0.13952380533E+04  0.25500000000E-02 0. -1.
         -2   -1    0    0    0  501 -0.00000000000E+00 -0.00000000000E+00 -0.64979128507E+03  0.64979128508E+03  0.25500000000E-02 0.  1.
    8880023    1    1    2    0    0  0.24663319465E+03 -0.44174171739E+03 -0.29228020534E+03  0.88045533804E+03  0.65864270000E+03 0.  1.
    8880022    1    1    2    0    0 -0.24663319465E+03  0.44174171739E+03  0.10377269736E+04  0.11645740004E+04  0.15294330000E+03 0.  0.
<mgrwt>
<rscale>  0 0.74179628E+03</rscale>
<asrwt>0</asrwt>
<pdfrwt beam="1">  1        2 0.21465201E+00 0.83052627E+03</pdfrwt>
<pdfrwt beam="2">  1       -2 0.99967890E-01 0.83052627E+03</pdfrwt>
<totfact> 0.12189899E+01</totfact>
</mgrwt>
</event>
<event>
 4    1  0.9654646E-007  0.8692731E+03  0.7818608E-02  0.9577277E-01
          2   -1    0    0  501    0  0.00000000000E+00  0.00000000000E+00  0.91030522160E+03  0.91030522161E+03  0.25500000000E-02 0. -1.
         -2   -1    0    0    0  501 -0.00000000000E+00 -0.00000000000E+00 -0.11047546007E+04  0.11047546007E+04  0.25500000000E-02 0.  1.
    8880023    1    1    2    0    0 -0.84782147779E+02 -0.56092557963E+03 -0.79277035555E+03  0.11764865326E+04  0.65864270000E+03 0.  1.
    8880022    1    1    2    0    0  0.84782147779E+02  0.56092557963E+03  0.59832097641E+03  0.83857328976E+03  0.15294330000E+03 0.  0.
<mgrwt>
<rscale>  0 0.78818602E+03</rscale>
<asrwt>0</asrwt>
<pdfrwt beam="1">  1        2 0.14004696E+00 0.86927310E+03</pdfrwt>
<pdfrwt beam="2">  1       -2 0.16996225E+00 0.86927310E+03</pdfrwt>
<totfact> 0.61829792E+00</totfact>
</mgrwt>
</event>
<event>
 4    1  0.9654646E-007  0.9595843E+03  0.7818608E-02  0.9436456E-01
          2   -1    0    0  501    0  0.00000000000E+00  0.00000000000E+00  0.19995822121E+04  0.19995822121E+04  0.25500000000E-02 0. -1.
         -2   -1    0    0    0  501 -0.00000000000E+00 -0.00000000000E+00 -0.36092802746E+03  0.36092802747E+03  0.25500000000E-02 0.  1.
    8880023    1    1    2    0    0 -0.15236487855E+03  0.68101162174E+03  0.73592651613E+03  0.12092931525E+04  0.65864270000E+03 0.  0.
    8880022    1    1    2    0    0  0.15236487855E+03 -0.68101162174E+03  0.90272766848E+03  0.11512170871E+04  0.15294330000E+03 0.  0.
<mgrwt>
<rscale>  0 0.89135241E+03</rscale>
<asrwt>0</asrwt>
<pdfrwt beam="1">  1        2 0.30762803E+00 0.95958433E+03</pdfrwt>
<pdfrwt beam="2">  1       -2 0.55527389E-01 0.95958433E+03</pdfrwt>
<totfact> 0.20538567E+01</totfact>
</mgrwt>
</event>
<event>
 4    1  0.1967260E-006  0.8726389E+03  0.7818608E-02  0.9571465E-01
         -2   -1    0    0    0  501 -0.00000000000E+00  0.00000000000E+00  0.10542710978E+04  0.10542710978E+04  0.25500000000E-02 0.  1.
          2   -1    0    0  501    0  0.00000000000E+00 -0.00000000000E+00 -0.26871515516E+04  0.26871515516E+04  0.25500000000E-02 0. -1.
    8880023    1    1    2    0    0 -0.56497928664E+03  0.92123733788E+02  0.83237395882E+03  0.12059622673E+04  0.65864270000E+03 0.  1.
    8880022    1    1    2    0    0  0.56497928664E+03 -0.92123733788E+02 -0.24652544127E+04  0.25354603820E+04  0.15294330000E+03 0.  0.
<mgrwt>
<rscale>  0 0.79213951E+03</rscale>
<asrwt>0</asrwt>
<pdfrwt beam="1">  1        2 0.41340793E+00 0.87263886E+03</pdfrwt>
<pdfrwt beam="2">  1       -2 0.16219555E+00 0.87263886E+03</pdfrwt>
<totfact> 0.67734544E-01</totfact>
</mgrwt>
</event>
<event>
 4    1  0.9654646E-007  0.6992304E+03  0.7818608E-02  0.1000041E+00
         -2   -1    0    0    0  501 -0.00000000000E+00  0.00000000000E+00  0.38618272417E+03  0.38618272418E+03  0.25500000000E-02 0.  1.
          2   -1    0    0  501    0  0.00000000000E+00 -0.00000000000E+00 -0.18218756535E+04  0.18218756535E+04  0.25500000000E-02 0. -1.
    8880023    1    1    2    0    0 -0.83982505690E+02 -0.21922574455E+03  0.45393684402E+02  0.70070234849E+03  0.65864270000E+03 0.  1.
    8880022    1    1    2    0    0  0.83982505690E+02  0.21922574455E+03 -0.14810866137E+04  0.15073560292E+04  0.15294330000E+03 0.  0.
<mgrwt>
<rscale>  0 0.55632318E+03</rscale>
<asrwt>0</asrwt>
<pdfrwt beam="1">  1        2 0.28028856E+00 0.69923043E+03</pdfrwt>
<pdfrwt beam="2">  1       -2 0.59412728E-01 0.69923043E+03</pdfrwt>
<totfact> 0.23008857E+01</totfact>
</mgrwt>
</event>
<event>
 4    1  0.9654646E-007  0.8397174E+03  0.7818608E-02  0.9630713E-01
          2   -1    0    0  501    0  0.00000000000E+00  0.00000000000E+00  0.17971443237E+04  0.17971443237E+04  0.25500000000E-02 0. -1.
         -2   -1    0    0    0  501 -0.00000000000E+00 -0.00000000000E+00 -0.61004985788E+03  0.61004985789E+03  0.25500000000E-02 0.  1.
    8880023    1    1    2    0    0 -0.47909667059E+03  0.20440520031E+03 -0.24576494929E+03  0.87494326802E+03  0.65864270000E+03 0.  0.
    8880022    1    1    2    0    0  0.47909667059E+03 -0.20440520031E+03  0.14328594151E+04  0.15322509136E+04  0.15294330000E+03 0.  0.
<mgrwt>
<rscale>  0 0.75296298E+03</rscale>
<asrwt>0</asrwt>
<pdfrwt beam="1">  1        2 0.27648374E+00 0.83971740E+03</pdfrwt>
<pdfrwt beam="2">  1       -2 0.93853824E-01 0.83971740E+03</pdfrwt>
<totfact> 0.84530421E+00</totfact>
</mgrwt>
</event>
<event>
 4    1  0.9654646E-007  0.6690985E+03  0.7818608E-02  0.1016318E+00
          2   -1    0    0  501    0  0.00000000000E+00  0.00000000000E+00  0.43783618700E+03  0.43783618701E+03  0.25500000000E-02 0. -1.
         -2   -1    0    0    0  501 -0.00000000000E+00 -0.00000000000E+00 -0.42695448543E+03  0.42695448544E+03  0.25500000000E-02 0.  1.
    8880023    1    1    2    0    0 -0.77683849960E+01  0.11756788932E+03  0.36174647899E+02  0.67007564336E+03  0.65864270000E+03 0.  0.
    8880022    1    1    2    0    0  0.77683849960E+01 -0.11756788932E+03 -0.25292946327E+02  0.19471502909E+03  0.15294330000E+03 0.  1.
<mgrwt>
<rscale>  0 0.49039223E+03</rscale>
<asrwt>0</asrwt>
<pdfrwt beam="1">  1        2 0.67359413E-01 0.66909847E+03</pdfrwt>
<pdfrwt beam="2">  1       -2 0.65685305E-01 0.66909847E+03</pdfrwt>
<totfact> 0.15526289E+02</totfact>
</mgrwt>
</event>
<event>
 4    1  0.9654646E-007  0.1609550E+04  0.7818608E-02  0.8835917E-01
         -2   -1    0    0    0  501 -0.00000000000E+00  0.00000000000E+00  0.12298931245E+04  0.12298931245E+04  0.25500000000E-02 0.  1.
          2   -1    0    0  501    0  0.00000000000E+00 -0.00000000000E+00 -0.31330279040E+04  0.31330279040E+04  0.25500000000E-02 0. -1.
    8880023    1    1    2    0    0 -0.10553056519E+04 -0.10213578580E+04  0.37074002770E+03  0.16516961789E+04  0.65864270000E+03 0.  0.
    8880022    1    1    2    0    0  0.10553056519E+04  0.10213578580E+04 -0.22738748073E+04  0.27112248496E+04  0.15294330000E+03 0.  0.
<mgrwt>
<rscale>  0 0.15752203E+04</rscale>
<asrwt>0</asrwt>
<pdfrwt beam="1">  1        2 0.48200429E+00 0.16095503E+04</pdfrwt>
<pdfrwt beam="2">  1       -2 0.18921433E+00 0.16095503E+04</pdfrwt>
<totfact> 0.20961509E-01</totfact>
</mgrwt>
</event>
<event>
 4    1  0.9654646E-007  0.9031409E+03  0.7818608E-02  0.9521008E-01
          2   -1    0    0  501    0  0.00000000000E+00  0.00000000000E+00  0.24130625035E+04  0.24130625035E+04  0.25500000000E-02 0. -1.
         -2   -1    0    0    0  501 -0.00000000000E+00 -0.00000000000E+00 -0.50170754964E+03  0.50170754965E+03  0.25500000000E-02 0.  1.
    8880023    1    1    2    0    0  0.36909595393E+03 -0.49560215122E+03  0.31135625954E+01  0.90314628717E+03  0.65864270000E+03 0.  1.
    8880022    1    1    2    0    0 -0.36909595393E+03  0.49560215122E+03  0.19082413913E+04  0.20116237660E+04  0.15294330000E+03 0.  0.
<mgrwt>
<rscale>  0 0.82752542E+03</rscale>
<asrwt>0</asrwt>
<pdfrwt beam="1">  1        2 0.37124038E+00 0.90314092E+03</pdfrwt>
<pdfrwt beam="2">  1       -2 0.77185777E-01 0.90314092E+03</pdfrwt>
<totfact> 0.59825301E+00</totfact>
</mgrwt>
</event>
<event>
 4    1  0.9654646E-007  0.7130487E+03  0.7818608E-02  0.9946850E-01
          2   -1    0    0  501    0  0.00000000000E+00  0.00000000000E+00  0.15815459173E+04  0.15815459173E+04  0.25500000000E-02 0. -1.
         -2   -1    0    0    0  501 -0.00000000000E+00 -0.00000000000E+00 -0.19119727127E+03  0.19119727128E+03  0.25500000000E-02 0.  1.
    8880023    1    1    2    0    0 -0.20562730688E+03  0.17984880224E+03  0.63395664133E+03  0.95411708419E+03  0.65864270000E+03 0.  1.
    8880022    1    1    2    0    0  0.20562730688E+03 -0.17984880224E+03  0.75639200472E+03  0.81862610441E+03  0.15294330000E+03 0.  1.
<mgrwt>
<rscale>  0 0.58043504E+03</rscale>
<asrwt>0</asrwt>
<pdfrwt beam="1">  1        2 0.24331475E+00 0.71304866E+03</pdfrwt>
<pdfrwt beam="2">  1       -2 0.29414965E-01 0.71304866E+03</pdfrwt>
<totfact> 0.12407218E+02</totfact>
</mgrwt>
</event>
<event>
 4    1  0.9654646E-007  0.7671599E+03  0.7818608E-02  0.9786912E-01
         -2   -1    0    0    0  501 -0.00000000000E+00  0.00000000000E+00  0.35419124570E+03  0.35419124571E+03  0.25500000000E-02 0.  1.
          2   -1    0    0  501    0  0.00000000000E+00 -0.00000000000E+00 -0.23041718122E+04  0.23041718122E+04  0.25500000000E-02 0. -1.
    8880023    1    1    2    0    0  0.16834217305E+02  0.39298949807E+03 -0.11531113092E+03  0.77577767411E+03  0.65864270000E+03 0.  1.
    8880022    1    1    2    0    0 -0.16834217305E+02 -0.39298949807E+03 -0.18346694356E+04  0.18825853838E+04  0.15294330000E+03 0.  0.
<mgrwt>
<rscale>  0 0.66069684E+03</rscale>
<asrwt>0</asrwt>
<pdfrwt beam="1">  1        2 0.35448796E+00 0.76715992E+03</pdfrwt>
<pdfrwt beam="2">  1       -2 0.54490962E-01 0.76715992E+03</pdfrwt>
<totfact> 0.14855366E+01</totfact>
</mgrwt>
</event>
<event>
 4    1  0.9654646E-007  0.7317360E+03  0.7818608E-02  0.9884708E-01
          2   -1    0    0  501    0  0.00000000000E+00  0.00000000000E+00  0.24213203671E+04  0.24213203671E+04  0.25500000000E-02 0. -1.
         -2   -1    0    0    0  501 -0.00000000000E+00 -0.00000000000E+00 -0.44655034756E+03  0.44655034757E+03  0.25500000000E-02 0.  1.
    8880023    1    1    2    0    0 -0.17337952537E+03 -0.26751984157E+03 -0.12170513193E+03  0.74178815767E+03  0.65864270000E+03 0.  1.
    8880022    1    1    2    0    0  0.17337952537E+03  0.26751984157E+03  0.20964751515E+04  0.21260825570E+04  0.15294330000E+03 0.  0.
<mgrwt>
<rscale>  0 0.61008142E+03</rscale>
<asrwt>0</asrwt>
<pdfrwt beam="1">  1        2 0.37251084E+00 0.73173597E+03</pdfrwt>
<pdfrwt beam="2">  1       -2 0.68700051E-01 0.73173597E+03</pdfrwt>
<totfact> 0.78598634E+00</totfact>
</mgrwt>
</event>
<event>
 4    1  0.9654646E-007  0.6935937E+03  0.7818608E-02  0.1002489E+00
         -2   -1    0    0    0  501 -0.00000000000E+00  0.00000000000E+00  0.23549374454E+03  0.23549374456E+03  0.25500000000E-02 0.  1.
          2   -1    0    0  501    0  0.00000000000E+00 -0.00000000000E+00 -0.14638202678E+04  0.14638202678E+04  0.25500000000E-02 0. -1.
    8880023    1    1    2    0    0  0.13193760528E+03 -0.17278435650E+03 -0.34072181993E+03  0.77276356693E+03  0.65864270000E+03 0.  1.
    8880022    1    1    2    0    0 -0.13193760528E+03  0.17278435650E+03 -0.88760470334E+03  0.92655044544E+03  0.15294330000E+03 0.  0.
<mgrwt>
<rscale>  0 0.54572097E+03</rscale>
<asrwt>0</asrwt>
<pdfrwt beam="1">  1        2 0.22520311E+00 0.69359366E+03</pdfrwt>
<pdfrwt beam="2">  1       -2 0.36229808E-01 0.69359366E+03</pdfrwt>
<totfact> 0.97625929E+01</totfact>
</mgrwt>
</event>
<event>
 4    1  0.9654646E-007  0.7021280E+03  0.7818608E-02  0.9988485E-01
         -2   -1    0    0    0  501 -0.00000000000E+00  0.00000000000E+00  0.56350796364E+03  0.56350796364E+03  0.25500000000E-02 0.  1.
          2   -1    0    0  501    0  0.00000000000E+00 -0.00000000000E+00 -0.90310227270E+03  0.90310227271E+03  0.25500000000E-02 0. -1.
    8880023    1    1    2    0    0 -0.66230480984E+02 -0.23406646812E+03  0.30145602772E+03  0.76410701542E+03  0.65864270000E+03 0.  1.
    8880022    1    1    2    0    0  0.66230480984E+02  0.23406646812E+03 -0.64105033678E+03  0.70250322093E+03  0.15294330000E+03 0.  0.
<mgrwt>
<rscale>  0 0.56158034E+03</rscale>
<asrwt>0</asrwt>
<pdfrwt beam="1">  1        2 0.13893881E+00 0.70212805E+03</pdfrwt>
<pdfrwt beam="2">  1       -2 0.86693533E-01 0.70212805E+03</pdfrwt>
<totfact> 0.34266506E+01</totfact>
</mgrwt>
</event>
<event>
 4    1  0.9654646E-007  0.7117367E+03  0.7818608E-02  0.9951608E-01
          2   -1    0    0  501    0  0.00000000000E+00  0.00000000000E+00  0.20583162042E+04  0.20583162042E+04  0.25500000000E-02 0. -1.
         -2   -1    0    0    0  501 -0.00000000000E+00 -0.00000000000E+00 -0.55605595096E+03  0.55605595097E+03  0.25500000000E-02 0.  1.
    8880023    1    1    2    0    0 -0.74277208330E+01  0.26963636702E+03 -0.30960843782E+03  0.77616140879E+03  0.65864270000E+03 0.  1.
    8880022    1    1    2    0    0  0.74277208330E+01 -0.26963636702E+03  0.18118686911E+04  0.18382107464E+04  0.15294330000E+03 0.  0.
<mgrwt>
<rscale>  0 0.57824052E+03</rscale>
<asrwt>0</asrwt>
<pdfrwt beam="1">  1        2 0.31666404E+00 0.71173671E+03</pdfrwt>
<pdfrwt beam="2">  1       -2 0.85547067E-01 0.71173671E+03</pdfrwt>
<totfact> 0.76822205E+00</totfact>
</mgrwt>
</event>
<event>
 4    1  0.9654646E-007  0.7793456E+03  0.7818608E-02  0.9757376E-01
         -2   -1    0    0    0  501 -0.00000000000E+00  0.00000000000E+00  0.27643503912E+03  0.27643503913E+03  0.25500000000E-02 0.  1.
          2   -1    0    0  501    0  0.00000000000E+00 -0.00000000000E+00 -0.19781707819E+04  0.19781707819E+04  0.25500000000E-02 0. -1.
    8880023    1    1    2    0    0  0.11326025923E+03  0.40092580144E+03 -0.39332068313E+03  0.87297236533E+03  0.65864270000E+03 0.  1.
    8880022    1    1    2    0    0 -0.11326025923E+03 -0.40092580144E+03 -0.13084150597E+04  0.13816334557E+04  0.15294330000E+03 0.  0.
<mgrwt>
<rscale>  0 0.67701005E+03</rscale>
<asrwt>0</asrwt>
<pdfrwt beam="1">  1        2 0.30433396E+00 0.77934562E+03</pdfrwt>
<pdfrwt beam="2">  1       -2 0.42528469E-01 0.77934562E+03</pdfrwt>
<totfact> 0.36997157E+01</totfact>
</mgrwt>
</event>
<event>
 4    1  0.9654646E-007  0.1211425E+04  0.7818608E-02  0.9146096E-01
          2   -1    0    0  501    0  0.00000000000E+00  0.00000000000E+00  0.81674118652E+03  0.81674118653E+03  0.25500000000E-02 0. -1.
         -2   -1    0    0    0  501 -0.00000000000E+00 -0.00000000000E+00 -0.44687365733E+04  0.44687365733E+04  0.25500000000E-02 0.  1.
    8880023    1    1    2    0    0  0.42333636999E+03 -0.92440572291E+03 -0.40160312672E+04  0.41947654247E+04  0.65864270000E+03 0.  0.
    8880022    1    1    2    0    0 -0.42333636999E+03  0.92440572291E+03  0.36403588045E+03  0.10907123351E+04  0.15294330000E+03 0.  0.
<mgrwt>
<rscale>  0 0.11627556E+04</rscale>
<asrwt>0</asrwt>
<pdfrwt beam="1">  1        2 0.12565249E+00 0.12114247E+04</pdfrwt>
<pdfrwt beam="2">  1       -2 0.68749792E+00 0.12114247E+04</pdfrwt>
<totfact> 0.81696602E-03</totfact>
</mgrwt>
</event>
<event>
 4    1  0.9654646E-007  0.6657442E+03  0.7818608E-02  0.1018917E+00
         -2   -1    0    0    0  501 -0.00000000000E+00  0.00000000000E+00  0.66019838187E+02  0.66019838236E+02  0.25500000000E-02 0.  1.
          2   -1    0    0  501    0  0.00000000000E+00 -0.00000000000E+00 -0.27176185074E+04  0.27176185074E+04  0.25500000000E-02 0. -1.
    8880023    1    1    2    0    0 -0.96668359115E+02 -0.77655388044E+01 -0.21148470690E+04  0.22171588591E+04  0.65864270000E+03 0. -1.
    8880022    1    1    2    0    0  0.96668359115E+02  0.77655388044E+01 -0.53675160021E+03  0.56647948647E+03  0.15294330000E+03 0.  1.
<mgrwt>
<rscale>  0 0.48079433E+03</rscale>
<asrwt>0</asrwt>
<pdfrwt beam="1">  1        2 0.41809507E+00 0.66574416E+03</pdfrwt>
<pdfrwt beam="2">  1       -2 0.10156900E-01 0.66574416E+03</pdfrwt>
<totfact> 0.18301804E+02</totfact>
</mgrwt>
</event>
<event>
 4    1  0.9654646E-007  0.8379158E+03  0.7818608E-02  0.9634123E-01
          2   -1    0    0  501    0  0.00000000000E+00  0.00000000000E+00  0.11931835633E+04  0.11931835633E+04  0.25500000000E-02 0. -1.
         -2   -1    0    0    0  501 -0.00000000000E+00 -0.00000000000E+00 -0.73337561420E+03  0.73337561420E+03  0.25500000000E-02 0.  1.
    8880023    1    1    2    0    0 -0.47564781822E+03  0.20506561713E+03  0.90010142991E+03  0.12297501961E+04  0.65864270000E+03 0.  0.
    8880022    1    1    2    0    0  0.47564781822E+03 -0.20506561713E+03 -0.44029348084E+03  0.69680898142E+03  0.15294330000E+03 0.  0.
<mgrwt>
<rscale>  0 0.75078304E+03</rscale>
<asrwt>0</asrwt>
<pdfrwt beam="1">  1        2 0.18356670E+00 0.83791584E+03</pdfrwt>
<pdfrwt beam="2">  1       -2 0.11282702E+00 0.83791584E+03</pdfrwt>
<totfact> 0.11920285E+01</totfact>
</mgrwt>
</event>
<event>
 4    1  0.9654646E-007  0.9569999E+03  0.7818608E-02  0.9440113E-01
          2   -1    0    0  501    0  0.00000000000E+00  0.00000000000E+00  0.17896778773E+04  0.17896778773E+04  0.25500000000E-02 0. -1.
         -2   -1    0    0    0  501 -0.00000000000E+00 -0.00000000000E+00 -0.44518909742E+03  0.44518909743E+03  0.25500000000E-02 0.  1.
    8880023    1    1    2    0    0  0.28582713924E+03  0.63272537639E+03  0.36428757534E+03  0.10239893551E+04  0.65864270000E+03 0.  1.
    8880022    1    1    2    0    0 -0.28582713924E+03 -0.63272537639E+03  0.98020120457E+03  0.12108776197E+04  0.15294330000E+03 0.  0.
<mgrwt>
<rscale>  0 0.88846753E+03</rscale>
<asrwt>0</asrwt>
<pdfrwt beam="1">  1        2 0.27533506E+00 0.95699988E+03</pdfrwt>
<pdfrwt beam="2">  1       -2 0.68490631E-01 0.95699988E+03</pdfrwt>
<totfact> 0.17129503E+01</totfact>
</mgrwt>
</event>
<event>
 4    1  0.9654646E-007  0.7891837E+03  0.7818608E-02  0.9734690E-01
          2   -1    0    0  501    0  0.00000000000E+00  0.00000000000E+00  0.23915354611E+04  0.23915354611E+04  0.25500000000E-02 0. -1.
         -2   -1    0    0    0  501 -0.00000000000E+00 -0.00000000000E+00 -0.23619559342E+03  0.23619559343E+03  0.25500000000E-02 0.  1.
    8880023    1    1    2    0    0 -0.31457153954E+03 -0.30007579399E+03  0.19854660864E+04  0.21365595059E+04  0.65864270000E+03 0. -1.
    8880022    1    1    2    0    0  0.31457153954E+03  0.30007579399E+03  0.16987378128E+03  0.49117154866E+03  0.15294330000E+03 0.  0.
<mgrwt>
<rscale>  0 0.68988382E+03</rscale>
<asrwt>0</asrwt>
<pdfrwt beam="1">  1        2 0.36792854E+00 0.78918372E+03</pdfrwt>
<pdfrwt beam="2">  1       -2 0.36337783E-01 0.78918372E+03</pdfrwt>
<totfact> 0.29668666E+01</totfact>
</mgrwt>
</event>
<event>
 4    1  0.9654646E-007  0.6610024E+03  0.7818608E-02  0.1023152E+00
          2   -1    0    0  501    0  0.00000000000E+00  0.00000000000E+00  0.20745322913E+04  0.20745322913E+04  0.25500000000E-02 0. -1.
         -2   -1    0    0    0  501 -0.00000000000E+00 -0.00000000000E+00 -0.16289971903E+03  0.16289971905E+03  0.25500000000E-02 0.  1.
    8880023    1    1    2    0    0  0.33693087365E+02  0.44482478999E+02  0.53274058194E+03  0.84896210103E+03  0.65864270000E+03 0.  0.
    8880022    1    1    2    0    0 -0.33693087365E+02 -0.44482478999E+02  0.13788919904E+04  0.13884699094E+04  0.15294330000E+03 0. -1.
<mgrwt>
<rscale>  0 0.46566050E+03</rscale>
<asrwt>0</asrwt>
<pdfrwt beam="1">  1        2 0.31915884E+00 0.66100236E+03</pdfrwt>
<pdfrwt beam="2">  1       -2 0.25061493E-01 0.66100236E+03</pdfrwt>
<totfact> 0.90025669E+01</totfact>
</mgrwt>
</event>
<event>
 4    1  0.9654646E-007  0.9367065E+03  0.7818608E-02  0.9469504E-01
         -2   -1    0    0    0  501 -0.00000000000E+00  0.00000000000E+00  0.26850555502E+03  0.26850555503E+03  0.25500000000E-02 0.  1.
          2   -1    0    0  501    0  0.00000000000E+00 -0.00000000000E+00 -0.41467545788E+04  0.41467545788E+04  0.25500000000E-02 0. -1.
    8880023    1    1    2    0    0 -0.36614189198E+03 -0.55637127622E+03 -0.71330580061E+03  0.11773802502E+04  0.65864270000E+03 0.  1.
    8880022    1    1    2    0    0  0.36614189198E+03  0.55637127622E+03 -0.31649432231E+04  0.32378798836E+04  0.15294330000E+03 0. -1.
<mgrwt>
<rscale>  0 0.86569982E+03</rscale>
<asrwt>0</asrwt>
<pdfrwt beam="1">  1        2 0.63796219E+00 0.93670651E+03</pdfrwt>
<pdfrwt beam="2">  1       -2 0.41308550E-01 0.93670651E+03</pdfrwt>
<totfact> 0.15396536E+00</totfact>
</mgrwt>
</event>
<event>
 4    1  0.9654646E-007  0.9106715E+03  0.7818608E-02  0.9509113E-01
         -2   -1    0    0    0  501 -0.00000000000E+00  0.00000000000E+00  0.16615916366E+03  0.16615916368E+03  0.25500000000E-02 0.  1.
          2   -1    0    0  501    0  0.00000000000E+00 -0.00000000000E+00 -0.45146752485E+04  0.45146752485E+04  0.25500000000E-02 0. -1.
    8880023    1    1    2    0    0  0.47213528528E+03 -0.41545228555E+03 -0.14603046584E+04  0.17209916417E+04  0.65864270000E+03 0.  0.
    8880022    1    1    2    0    0 -0.47213528528E+03  0.41545228555E+03 -0.28882114264E+04  0.29598427705E+04  0.15294330000E+03 0.  1.
<mgrwt>
<rscale>  0 0.83615273E+03</rscale>
<asrwt>0</asrwt>
<pdfrwt beam="1">  1        2 0.69456533E+00 0.91067148E+03</pdfrwt>
<pdfrwt beam="2">  1       -2 0.25562952E-01 0.91067148E+03</pdfrwt>
<totfact> 0.17950987E+00</totfact>
</mgrwt>
</event>
<event>
 4    1  0.9654646E-007  0.8534523E+03  0.7818608E-02  0.9605318E-01
          2   -1    0    0  501    0  0.00000000000E+00  0.00000000000E+00  0.25500579416E+04  0.25500579416E+04  0.25500000000E-02 0. -1.
         -2   -1    0    0    0  501 -0.00000000000E+00 -0.00000000000E+00 -0.22308259646E+03  0.22308259647E+03  0.25500000000E-02 0.  1.
    8880023    1    1    2    0    0  0.54271828325E+03  0.52431879595E+01  0.18391716988E+04  0.20275436789E+04  0.65864270000E+03 0.  0.
    8880022    1    1    2    0    0 -0.54271828325E+03 -0.52431879595E+01  0.48780364636E+03  0.74559685917E+03  0.15294330000E+03 0. -1.
<mgrwt>
<rscale>  0 0.76945175E+03</rscale>
<asrwt>0</asrwt>
<pdfrwt beam="1">  1        2 0.39231664E+00 0.85345230E+03</pdfrwt>
<pdfrwt beam="2">  1       -2 0.34320397E-01 0.85345230E+03</pdfrwt>
<totfact> 0.26677738E+01</totfact>
</mgrwt>
</event>
<event>
 4    1  0.9654646E-007  0.1041816E+04  0.7818608E-02  0.9328784E-01
          2   -1    0    0  501    0  0.00000000000E+00  0.00000000000E+00  0.18580825036E+04  0.18580825036E+04  0.25500000000E-02 0. -1.
         -2   -1    0    0    0  501 -0.00000000000E+00 -0.00000000000E+00 -0.88330961606E+03  0.88330961606E+03  0.25500000000E-02 0.  1.
    8880023    1    1    2    0    0 -0.26551911837E+03 -0.76228009964E+03 -0.41947440354E+03  0.11230940896E+04  0.65864270000E+03 0.  0.
    8880022    1    1    2    0    0  0.26551911837E+03  0.76228009964E+03  0.13942472911E+04  0.16182980301E+04  0.15294330000E+03 0.  0.
<mgrwt>
<rscale>  0 0.98175565E+03</rscale>
<asrwt>0</asrwt>
<pdfrwt beam="1">  1        2 0.28585885E+00 0.10418165E+04</pdfrwt>
<pdfrwt beam="2">  1       -2 0.13589379E+00 0.10418165E+04</pdfrwt>
<totfact> 0.30804913E+00</totfact>
</mgrwt>
</event>
<event>
 4    1  0.9654646E-007  0.1312972E+04  0.7818608E-02  0.9054438E-01
         -2   -1    0    0    0  501 -0.00000000000E+00  0.00000000000E+00  0.28127150336E+04  0.28127150336E+04  0.25500000000E-02 0.  1.
          2   -1    0    0  501    0  0.00000000000E+00 -0.00000000000E+00 -0.80362658838E+03  0.80362658838E+03  0.25500000000E-02 0. -1.
    8880023    1    1    2    0    0 -0.37099243233E+03  0.10735217344E+04  0.20891520689E+04  0.24674786468E+04  0.65864270000E+03 0.  1.
    8880022    1    1    2    0    0  0.37099243233E+03 -0.10735217344E+04 -0.80063623639E+02  0.11488629752E+04  0.15294330000E+03 0. -1.
<mgrwt>
<rscale>  0 0.12690954E+04</rscale>
<asrwt>0</asrwt>
<pdfrwt beam="1">  1        2 0.12363486E+00 0.13129716E+04</pdfrwt>
<pdfrwt beam="2">  1       -2 0.43272539E+00 0.13129716E+04</pdfrwt>
<totfact> 0.15063214E-01</totfact>
</mgrwt>
</event>
<event>
 4    1  0.9654646E-007  0.7685582E+03  0.7818608E-02  0.9783435E-01
          2   -1    0    0  501    0  0.00000000000E+00  0.00000000000E+00  0.15619459403E+04  0.15619459403E+04  0.25500000000E-02 0. -1.
         -2   -1    0    0    0  501 -0.00000000000E+00 -0.00000000000E+00 -0.34783040170E+03  0.34783040171E+03  0.25500000000E-02 0.  1.
    8880023    1    1    2    0    0 -0.38146996937E+03 -0.10654657459E+03  0.17636856345E+03  0.78853508896E+03  0.65864270000E+03 0.  0.
    8880022    1    1    2    0    0  0.38146996937E+03  0.10654657459E+03  0.10377469751E+04  0.11212412530E+04  0.15294330000E+03 0.  0.
<mgrwt>
<rscale>  0 0.66259163E+03</rscale>
<asrwt>0</asrwt>
<pdfrwt beam="1">  1        2 0.24029938E+00 0.76855821E+03</pdfrwt>
<pdfrwt beam="2">  1       -2 0.53512370E-01 0.76855821E+03</pdfrwt>
<totfact> 0.39377163E+01</totfact>
</mgrwt>
</event>
<event>
 4    1  0.9654646E-007  0.7794825E+03  0.7818608E-02  0.9757054E-01
          2   -1    0    0  501    0  0.00000000000E+00  0.00000000000E+00  0.64740573863E+03  0.64740573863E+03  0.25500000000E-02 0. -1.
         -2   -1    0    0    0  501 -0.00000000000E+00 -0.00000000000E+00 -0.10932498145E+04  0.10932498146E+04  0.25500000000E-02 0.  1.
    8880023    1    1    2    0    0  0.28662622141E+02  0.41588614156E+03 -0.84068988338E+03  0.11464521425E+04  0.65864270000E+03 0.  1.
    8880022    1    1    2    0    0 -0.28662622141E+02 -0.41588614156E+03  0.39484580746E+03  0.59420341074E+03  0.15294330000E+03 0.  0.
<mgrwt>
<rscale>  0 0.67719093E+03</rscale>
<asrwt>0</asrwt>
<pdfrwt beam="1">  1        2 0.99600883E-01 0.77948254E+03</pdfrwt>
<pdfrwt beam="2">  1       -2 0.16819228E+00 0.77948254E+03</pdfrwt>
<totfact> 0.10052358E+01</totfact>
</mgrwt>
</event>
<event>
 4    1  0.9654646E-007  0.6967296E+03  0.7818608E-02  0.1001105E+00
         -2   -1    0    0    0  501 -0.00000000000E+00  0.00000000000E+00  0.47877612847E+03  0.47877612848E+03  0.25500000000E-02 0.  1.
          2   -1    0    0  501    0  0.00000000000E+00 -0.00000000000E+00 -0.17534811731E+04  0.17534811731E+04  0.25500000000E-02 0. -1.
    8880023    1    1    2    0    0 -0.19280358356E+03  0.12020279605E+03  0.20591283782E+03  0.72652063774E+03  0.65864270000E+03 0.  0.
    8880022    1    1    2    0    0  0.19280358356E+03 -0.12020279605E+03 -0.14806178824E+04  0.15057366638E+04  0.15294330000E+03 0.  0.
<mgrwt>
<rscale>  0 0.55168438E+03</rscale>
<asrwt>0</asrwt>
<pdfrwt beam="1">  1        2 0.26976633E+00 0.69672960E+03</pdfrwt>
<pdfrwt beam="2">  1       -2 0.73657867E-01 0.69672960E+03</pdfrwt>
<totfact> 0.15782528E+01</totfact>
</mgrwt>
</event>
<event>
 4    1  0.9654646E-007  0.9501173E+03  0.7818608E-02  0.9449945E-01
         -2   -1    0    0    0  501 -0.00000000000E+00  0.00000000000E+00  0.19425524238E+04  0.19425524238E+04  0.25500000000E-02 0.  1.
          2   -1    0    0  501    0  0.00000000000E+00 -0.00000000000E+00 -0.97068074237E+03  0.97068074237E+03  0.25500000000E-02 0. -1.
    8880023    1    1    2    0    0 -0.13986436822E+03  0.67033616744E+03  0.16713219253E+04  0.19225087264E+04  0.65864270000E+03 0.  1.
    8880022    1    1    2    0    0  0.13986436822E+03 -0.67033616744E+03 -0.69945024387E+03  0.99072443976E+03  0.15294330000E+03 0.  0.
<mgrwt>
<rscale>  0 0.88076918E+03</rscale>
<asrwt>0</asrwt>
<pdfrwt beam="1">  1        2 0.14933550E+00 0.95011727E+03</pdfrwt>
<pdfrwt beam="2">  1       -2 0.29885421E+00 0.95011727E+03</pdfrwt>
<totfact> 0.85940837E-01</totfact>
</mgrwt>
</event>
<event>
 4    1  0.9654646E-007  0.7546955E+03  0.7818608E-02  0.9819039E-01
         -2   -1    0    0    0  501 -0.00000000000E+00  0.00000000000E+00  0.60621278218E+03  0.60621278219E+03  0.25500000000E-02 0.  1.
          2   -1    0    0  501    0  0.00000000000E+00 -0.00000000000E+00 -0.72301862379E+03  0.72301862379E+03  0.25500000000E-02 0. -1.
    8880023    1    1    2    0    0 -0.33985195107E+03  0.14232243754E+03  0.24213664191E+03  0.79258777715E+03  0.65864270000E+03 0.  0.
    8880022    1    1    2    0    0  0.33985195107E+03 -0.14232243754E+03 -0.35894248352E+03  0.53664362883E+03  0.15294330000E+03 0.  0.
<mgrwt>
<rscale>  0 0.64350733E+03</rscale>
<asrwt>0</asrwt>
<pdfrwt beam="1">  1        2 0.11123363E+00 0.75469546E+03</pdfrwt>
<pdfrwt beam="2">  1       -2 0.93263505E-01 0.75469546E+03</pdfrwt>
<totfact> 0.38750765E+01</totfact>
</mgrwt>
</event>
<event>
 4    1  0.1023144E-006  0.8205898E+03  0.7818608E-02  0.9667927E-01
          2   -1    0    0  501    0  0.00000000000E+00  0.00000000000E+00  0.11048622587E+04  0.11048622587E+04  0.25500000000E-02 0. -1.
         -2   -1    0    0    0  501 -0.00000000000E+00 -0.00000000000E+00 -0.21531001191E+04  0.21531001191E+04  0.25500000000E-02 0.  1.
    8880023    1    1    2    0    0 -0.48749682449E+03  0.43638055688E+02 -0.20083327721E+04  0.21695087378E+04  0.65864270000E+03 0.  1.
    8880022    1    1    2    0    0  0.48749682449E+03 -0.43638055688E+02  0.96009491174E+03  0.10884536400E+04  0.15294330000E+03 0.  0.
<mgrwt>
<rscale>  0 0.72958946E+03</rscale>
<asrwt>0</asrwt>
<pdfrwt beam="1">  1        2 0.16997881E+00 0.82058981E+03</pdfrwt>
<pdfrwt beam="2">  1       -2 0.33124617E+00 0.82058981E+03</pdfrwt>
<totfact> 0.45919607E-01</totfact>
</mgrwt>
</event>
<event>
 4    1  0.9654646E-007  0.7854877E+03  0.7818608E-02  0.9743101E-01
          2   -1    0    0  501    0  0.00000000000E+00  0.00000000000E+00  0.76697616922E+03  0.76697616923E+03  0.25500000000E-02 0. -1.
         -2   -1    0    0    0  501 -0.00000000000E+00 -0.00000000000E+00 -0.76202902552E+03  0.76202902553E+03  0.25500000000E-02 0.  1.
    8880023    1    1    2    0    0  0.42799524620E+03 -0.85813590285E+00 -0.43377430274E+03  0.89730207798E+03  0.65864270000E+03 0.  0.
    8880022    1    1    2    0    0 -0.42799524620E+03  0.85813590285E+00  0.43872144644E+03  0.63170311678E+03  0.15294330000E+03 0.  0.
<mgrwt>
<rscale>  0 0.68507567E+03</rscale>
<asrwt>0</asrwt>
<pdfrwt beam="1">  1        2 0.11799633E+00 0.78548767E+03</pdfrwt>
<pdfrwt beam="2">  1       -2 0.11723524E+00 0.78548767E+03</pdfrwt>
<totfact> 0.20710342E+01</totfact>
</mgrwt>
</event>
<event>
 4    1  0.9654646E-007  0.9314418E+03  0.7818608E-02  0.9477334E-01
         -2   -1    0    0    0  501 -0.00000000000E+00  0.00000000000E+00  0.73099993043E+03  0.73099993044E+03  0.25500000000E-02 0.  1.
          2   -1    0    0  501    0  0.00000000000E+00 -0.00000000000E+00 -0.13217516238E+04  0.13217516238E+04  0.25500000000E-02 0. -1.
    8880023    1    1    2    0    0  0.47160921201E+03 -0.45973725177E+03  0.25903929750E+03  0.96679116330E+03  0.65864270000E+03 0.  1.
    8880022    1    1    2    0    0 -0.47160921201E+03  0.45973725177E+03 -0.84979099084E+03  0.10859603909E+04  0.15294330000E+03 0.  0.
<mgrwt>
<rscale>  0 0.85975743E+03</rscale>
<asrwt>0</asrwt>
<pdfrwt beam="1">  1        2 0.20334640E+00 0.93144178E+03</pdfrwt>
<pdfrwt beam="2">  1       -2 0.11246153E+00 0.93144178E+03</pdfrwt>
<totfact> 0.10001215E+01</totfact>
</mgrwt>
</event>
<event>
 4    1  0.9654646E-007  0.6691869E+03  0.7818608E-02  0.1016253E+00
         -2   -1    0    0    0  501 -0.00000000000E+00  0.00000000000E+00  0.89836732339E+02  0.89836732375E+02  0.25500000000E-02 0.  1.
          2   -1    0    0  501    0  0.00000000000E+00 -0.00000000000E+00 -0.25146777900E+04  0.25146777900E+04  0.25500000000E-02 0. -1.
    8880023    1    1    2    0    0 -0.11240531198E+03 -0.36959120825E+02 -0.12892367820E+04  0.14525641525E+04  0.65864270000E+03 0.  1.
    8880022    1    1    2    0    0  0.11240531198E+03  0.36959120825E+02 -0.11356042756E+04  0.11519503699E+04  0.15294330000E+03 0.  0.
<mgrwt>
<rscale>  0 0.49063527E+03</rscale>
<asrwt>0</asrwt>
<pdfrwt beam="1">  1        2 0.38687345E+00 0.66918692E+03</pdfrwt>
<pdfrwt beam="2">  1       -2 0.13821038E-01 0.66918692E+03</pdfrwt>
<totfact> 0.14388754E+02</totfact>
</mgrwt>
</event>
<event>
 4    1  0.9654646E-007  0.1095367E+04  0.7818608E-02  0.9266232E-01
          2   -1    0    0  501    0  0.00000000000E+00  0.00000000000E+00  0.26930417110E+04  0.26930417110E+04  0.25500000000E-02 0. -1.
         -2   -1    0    0    0  501 -0.00000000000E+00 -0.00000000000E+00 -0.65163401627E+03  0.65163401627E+03  0.25500000000E-02 0.  1.
    8880023    1    1    2    0    0 -0.81595947495E+03  0.31658916152E+03 -0.24682558357E+02  0.10956450141E+04  0.65864270000E+03 0.  0.
    8880022    1    1    2    0    0  0.81595947495E+03 -0.31658916152E+03  0.20660902531E+04  0.22490307132E+04  0.15294330000E+03 0.  0.
<mgrwt>
<rscale>  0 0.10395193E+04</rscale>
<asrwt>0</asrwt>
<pdfrwt beam="1">  1        2 0.41431412E+00 0.10953670E+04</pdfrwt>
<pdfrwt beam="2">  1       -2 0.10025139E+00 0.10953670E+04</pdfrwt>
<totfact> 0.21991887E+00</totfact>
</mgrwt>
</event>
<event>
 4    1  0.9654646E-007  0.6999482E+03  0.7818608E-02  0.9997416E-01
         -2   -1    0    0    0  501 -0.00000000000E+00  0.00000000000E+00  0.17342714360E+04  0.17342714360E+04  0.25500000000E-02 0.  1.
          2   -1    0    0  501    0  0.00000000000E+00 -0.00000000000E+00 -0.48766593748E+03  0.48766593748E+03  0.25500000000E-02 0. -1.
    8880023    1    1    2    0    0 -0.25222858715E+02 -0.23554409943E+03  0.16137485601E+04  0.17590087654E+04  0.65864270000E+03 0.  1.
    8880022    1    1    2    0    0  0.25222858715E+02  0.23554409943E+03 -0.36714306164E+03  0.46292860800E+03  0.15294330000E+03 0.  0.
<mgrwt>
<rscale>  0 0.55763670E+03</rscale>
<asrwt>0</asrwt>
<pdfrwt beam="1">  1        2 0.75025527E-01 0.69994816E+03</pdfrwt>
<pdfrwt beam="2">  1       -2 0.26681100E+00 0.69994816E+03</pdfrwt>
<totfact> 0.33439692E+00</totfact>
</mgrwt>
</event>
<event>
 4    1  0.9654646E-007  0.7394644E+03  0.7818608E-02  0.9861510E-01
         -2   -1    0    0    0  501 -0.00000000000E+00  0.00000000000E+00  0.44835272413E+03  0.44835272414E+03  0.25500000000E-02 0.  1.
          2   -1    0    0  501    0  0.00000000000E+00 -0.00000000000E+00 -0.16249085657E+04  0.16249085657E+04  0.25500000000E-02 0. -1.
    8880023    1    1    2    0    0  0.33587610410E+03  0.13587148606E+02  0.98319696831E+02  0.74597207519E+03  0.65864270000E+03 0.  1.
    8880022    1    1    2    0    0 -0.33587610410E+03 -0.13587148606E+02 -0.12748755384E+04  0.13272892146E+04  0.15294330000E+03 0.  0.
<mgrwt>
<rscale>  0 0.62163488E+03</rscale>
<asrwt>0</asrwt>
<pdfrwt beam="1">  1        2 0.24998593E+00 0.73946438E+03</pdfrwt>
<pdfrwt beam="2">  1       -2 0.68977343E-01 0.73946438E+03</pdfrwt>
<totfact> 0.21302293E+01</totfact>
</mgrwt>
</event>
<event>
 4    1  0.9654646E-007  0.7865090E+03  0.7818608E-02  0.9740763E-01
         -2   -1    0    0    0  501 -0.00000000000E+00  0.00000000000E+00  0.17279414731E+03  0.17279414732E+03  0.25500000000E-02 0.  1.
          2   -1    0    0  501    0  0.00000000000E+00 -0.00000000000E+00 -0.37721876916E+04  0.37721876916E+04  0.25500000000E-02 0. -1.
    8880023    1    1    2    0    0 -0.42499544863E+03  0.64537703250E+02 -0.85027981337E+03  0.11582625841E+04  0.65864270000E+03 0.  0.
    8880022    1    1    2    0    0  0.42499544863E+03 -0.64537703250E+02 -0.27491137310E+04  0.27867192548E+04  0.15294330000E+03 0.  0.
<mgrwt>
<rscale>  0 0.68640765E+03</rscale>
<asrwt>0</asrwt>
<pdfrwt beam="1">  1        2 0.58033651E+00 0.78650903E+03</pdfrwt>
<pdfrwt beam="2">  1       -2 0.26583718E-01 0.78650903E+03</pdfrwt>
<totfact> 0.71661369E+00</totfact>
</mgrwt>
</event>
<event>
 4    1  0.9654646E-007  0.8366921E+03  0.7818608E-02  0.9636449E-01
          2   -1    0    0  501    0  0.00000000000E+00  0.00000000000E+00  0.16503057420E+04  0.16503057420E+04  0.25500000000E-02 0. -1.
         -2   -1    0    0    0  501 -0.00000000000E+00 -0.00000000000E+00 -0.45322507622E+03  0.45322507623E+03  0.25500000000E-02 0.  1.
    8880023    1    1    2    0    0  0.51002155865E+03 -0.78239477760E+02  0.52024353808E+02  0.83830790633E+03  0.65864270000E+03 0.  1.
    8880022    1    1    2    0    0 -0.51002155865E+03  0.78239477760E+02  0.11450563119E+04  0.12652229119E+04  0.15294330000E+03 0.  0.
<mgrwt>
<rscale>  0 0.74929982E+03</rscale>
<asrwt>0</asrwt>
<pdfrwt beam="1">  1        2 0.25389318E+00 0.83669207E+03</pdfrwt>
<pdfrwt beam="2">  1       -2 0.69726937E-01 0.83669207E+03</pdfrwt>
<totfact> 0.19913457E+01</totfact>
</mgrwt>
</event>
<event>
 4    1  0.9654646E-007  0.8661440E+03  0.7818608E-02  0.9582726E-01
          2   -1    0    0  501    0  0.00000000000E+00  0.00000000000E+00  0.32504538056E+04  0.32504538056E+04  0.25500000000E-02 0. -1.
         -2   -1    0    0    0  501 -0.00000000000E+00 -0.00000000000E+00 -0.31889097656E+03  0.31889097657E+03  0.25500000000E-02 0.  1.
    8880023    1    1    2    0    0 -0.27582227147E+03  0.49022176958E+03  0.36925827557E+03  0.94157165906E+03  0.65864270000E+03 0.  1.
    8880022    1    1    2    0    0  0.27582227147E+03 -0.49022176958E+03  0.25623045535E+04  0.26277731231E+04  0.15294330000E+03 0.  0.
<mgrwt>
<rscale>  0 0.78450088E+03</rscale>
<asrwt>0</asrwt>
<pdfrwt beam="1">  1        2 0.50006978E+00 0.86614405E+03</pdfrwt>
<pdfrwt beam="2">  1       -2 0.49060154E-01 0.86614405E+03</pdfrwt>
<totfact> 0.49709481E+00</totfact>
</mgrwt>
</event>
<event>
 4    1  0.9654646E-007  0.7228373E+03  0.7818608E-02  0.9913100E-01
         -2   -1    0    0    0  501 -0.00000000000E+00  0.00000000000E+00  0.20986249492E+03  0.20986249493E+03  0.25500000000E-02 0.  1.
          2   -1    0    0  501    0  0.00000000000E+00 -0.00000000000E+00 -0.13870805609E+04  0.13870805609E+04  0.25500000000E-02 0. -1.
    8880023    1    1    2    0    0  0.28522947184E+03 -0.85602232110E+02 -0.64825425973E+03  0.97094149425E+03  0.65864270000E+03 0.  1.
    8880022    1    1    2    0    0 -0.28522947184E+03  0.85602232110E+02 -0.52896380622E+03  0.62600156154E+03  0.15294330000E+03 0.  0.
<mgrwt>
<rscale>  0 0.59630595E+03</rscale>
<asrwt>0</asrwt>
<pdfrwt beam="1">  1        2 0.21339700E+00 0.72283733E+03</pdfrwt>
<pdfrwt beam="2">  1       -2 0.32286538E-01 0.72283733E+03</pdfrwt>
<totfact> 0.13377726E+02</totfact>
</mgrwt>
</event>
<event>
 4    1  0.9654646E-007  0.7594830E+03  0.7818608E-02  0.9806448E-01
          2   -1    0    0  501    0  0.00000000000E+00  0.00000000000E+00  0.83469492142E+03  0.83469492142E+03  0.25500000000E-02 0. -1.
         -2   -1    0    0    0  501 -0.00000000000E+00 -0.00000000000E+00 -0.46768455576E+03  0.46768455576E+03  0.25500000000E-02 0.  1.
    8880023    1    1    2    0    0 -0.19726250466E+03  0.32263245971E+03  0.88415906555E+01  0.75953444938E+03  0.65864270000E+03 0.  1.
    8880022    1    1    2    0    0  0.19726250466E+03 -0.32263245971E+03  0.35816877500E+03  0.54284502780E+03  0.15294330000E+03 0.  0.
<mgrwt>
<rscale>  0 0.65017662E+03</rscale>
<asrwt>0</asrwt>
<pdfrwt beam="1">  1        2 0.12841460E+00 0.75948299E+03</pdfrwt>
<pdfrwt beam="2">  1       -2 0.71951471E-01 0.75948299E+03</pdfrwt>
<totfact> 0.57679653E+01</totfact>
</mgrwt>
</event>
<event>
 4    1  0.9654646E-007  0.7614698E+03  0.7818608E-02  0.9801317E-01
          2   -1    0    0  501    0  0.00000000000E+00  0.00000000000E+00  0.77708472437E+03  0.77708472437E+03  0.25500000000E-02 0. -1.
         -2   -1    0    0    0  501 -0.00000000000E+00 -0.00000000000E+00 -0.62832849336E+03  0.62832849337E+03  0.25500000000E-02 0.  1.
    8880023    1    1    2    0    0 -0.38210282809E+03  0.48531061635E+01 -0.27976315054E+03  0.81123594011E+03  0.65864270000E+03 0.  1.
    8880022    1    1    2    0    0  0.38210282809E+03 -0.48531061635E+01  0.42851938154E+03  0.59417727762E+03  0.15294330000E+03 0.  0.
<mgrwt>
<rscale>  0 0.65291915E+03</rscale>
<asrwt>0</asrwt>
<pdfrwt beam="1">  1        2 0.11955150E+00 0.76146985E+03</pdfrwt>
<pdfrwt beam="2">  1       -2 0.96665922E-01 0.76146985E+03</pdfrwt>
<totfact> 0.32445971E+01</totfact>
</mgrwt>
</event>
<event>
 4    1  0.9654646E-007  0.1115871E+04  0.7818608E-02  0.9243588E-01
         -2   -1    0    0    0  501 -0.00000000000E+00  0.00000000000E+00  0.64669682651E+03  0.64669682651E+03  0.25500000000E-02 0.  1.
          2   -1    0    0  501    0  0.00000000000E+00 -0.00000000000E+00 -0.17424166081E+04  0.17424166081E+04  0.25500000000E-02 0. -1.
    8880023    1    1    2    0    0  0.50906924878E+03 -0.74310594286E+03 -0.94677939132E+03  0.14634067666E+04  0.65864270000E+03 0. -1.
    8880022    1    1    2    0    0 -0.50906924878E+03  0.74310594286E+03 -0.14894039026E+03  0.92570666802E+03  0.15294330000E+03 0.  0.
<mgrwt>
<rscale>  0 0.10614634E+04</rscale>
<asrwt>0</asrwt>
<pdfrwt beam="1">  1        2 0.26806409E+00 0.11158710E+04</pdfrwt>
<pdfrwt beam="2">  1       -2 0.99491820E-01 0.11158710E+04</pdfrwt>
<totfact> 0.76541191E+00</totfact>
</mgrwt>
</event>
<event>
 4    1  0.9654646E-007  0.7963097E+03  0.7818608E-02  0.9718833E-01
          2   -1    0    0  501    0  0.00000000000E+00  0.00000000000E+00  0.11065715519E+04  0.11065715519E+04  0.25500000000E-02 0. -1.
         -2   -1    0    0    0  501 -0.00000000000E+00 -0.00000000000E+00 -0.95935905514E+03  0.95935905514E+03  0.25500000000E-02 0.  1.
    8880023    1    1    2    0    0 -0.44363271726E+03  0.59067736604E+02 -0.72295616196E+03  0.10755346595E+04  0.65864270000E+03 0.  1.
    8880022    1    1    2    0    0  0.44363271726E+03 -0.59067736604E+02  0.87016865869E+03  0.99039594754E+03  0.15294330000E+03 0.  0.
<mgrwt>
<rscale>  0 0.69906490E+03</rscale>
<asrwt>0</asrwt>
<pdfrwt beam="1">  1        2 0.17024178E+00 0.79630973E+03</pdfrwt>
<pdfrwt beam="2">  1       -2 0.14759370E+00 0.79630973E+03</pdfrwt>
<totfact> 0.68424598E+00</totfact>
</mgrwt>
</event>
<event>
 4    1  0.9654646E-007  0.7537780E+03  0.7818608E-02  0.9821490E-01
          2   -1    0    0  501    0  0.00000000000E+00  0.00000000000E+00  0.22437698978E+04  0.22437698979E+04  0.25500000000E-02 0. -1.
         -2   -1    0    0    0  501 -0.00000000000E+00 -0.00000000000E+00 -0.17485176071E+03  0.17485176072E+03  0.25500000000E-02 0.  1.
    8880023    1    1    2    0    0 -0.33852460219E+03  0.14061364407E+03  0.84734268563E+03  0.11340947652E+04  0.65864270000E+03 0.  1.
    8880022    1    1    2    0    0  0.33852460219E+03 -0.14061364407E+03  0.12215754515E+04  0.12845268934E+04  0.15294330000E+03 0.  0.
<mgrwt>
<rscale>  0 0.64221902E+03</rscale>
<asrwt>0</asrwt>
<pdfrwt beam="1">  1        2 0.34519536E+00 0.75377802E+03</pdfrwt>
<pdfrwt beam="2">  1       -2 0.26900271E-01 0.75377802E+03</pdfrwt>
<totfact> 0.63212519E+01</totfact>
</mgrwt>
</event>
<event>
 4    1  0.9654646E-007  0.6720216E+03  0.7818608E-02  0.1014253E+00
         -2   -1    0    0    0  501 -0.00000000000E+00  0.00000000000E+00  0.26728677435E+03  0.26728677436E+03  0.25500000000E-02 0.  1.
          2   -1    0    0  501    0  0.00000000000E+00 -0.00000000000E+00 -0.21871161721E+04  0.21871161721E+04  0.25500000000E-02 0. -1.
    8880023    1    1    2    0    0  0.12347609855E+03  0.50561309182E+02 -0.17046613021E+03  0.69330491179E+03  0.65864270000E+03 0.  1.
    8880022    1    1    2    0    0 -0.12347609855E+03 -0.50561309182E+02 -0.17493632675E+04  0.17610980347E+04  0.15294330000E+03 0.  0.
<mgrwt>
<rscale>  0 0.49818683E+03</rscale>
<asrwt>0</asrwt>
<pdfrwt beam="1">  1        2 0.33647940E+00 0.67202158E+03</pdfrwt>
<pdfrwt beam="2">  1       -2 0.41121044E-01 0.67202158E+03</pdfrwt>
<totfact> 0.30823536E+01</totfact>
</mgrwt>
</event>
<event>
 4    1  0.9654646E-007  0.7270879E+03  0.7818608E-02  0.9899294E-01
         -2   -1    0    0    0  501 -0.00000000000E+00  0.00000000000E+00  0.38604116259E+03  0.38604116260E+03  0.25500000000E-02 0.  1.
          2   -1    0    0  501    0  0.00000000000E+00 -0.00000000000E+00 -0.12316253891E+04  0.12316253891E+04  0.25500000000E-02 0. -1.
    8880023    1    1    2    0    0  0.73280206789E+02 -0.29912650899E+03 -0.24514021007E+02  0.72750106569E+03  0.65864270000E+03 0.  0.
    8880022    1    1    2    0    0 -0.73280206789E+02  0.29912650899E+03 -0.82107020546E+03  0.89016548596E+03  0.15294330000E+03 0. -1.
<mgrwt>
<rscale>  0 0.60295511E+03</rscale>
<asrwt>0</asrwt>
<pdfrwt beam="1">  1        2 0.18948083E+00 0.72708793E+03</pdfrwt>
<pdfrwt beam="2">  1       -2 0.59390949E-01 0.72708793E+03</pdfrwt>
<totfact> 0.48976970E+01</totfact>
</mgrwt>
</event>
<event>
 4    1  0.9654646E-007  0.9505384E+03  0.7818608E-02  0.9449340E-01
         -2   -1    0    0    0  501 -0.00000000000E+00  0.00000000000E+00  0.49760680438E+03  0.49760680439E+03  0.25500000000E-02 0.  1.
          2   -1    0    0  501    0  0.00000000000E+00 -0.00000000000E+00 -0.17089061679E+04  0.17089061679E+04  0.25500000000E-02 0. -1.
    8880023    1    1    2    0    0  0.40761788957E+03 -0.55096346827E+03 -0.19359046319E+03  0.97005183417E+03  0.65864270000E+03 0.  0.
    8880022    1    1    2    0    0 -0.40761788957E+03  0.55096346827E+03 -0.10177089003E+04  0.12364611381E+04  0.15294330000E+03 0.  0.
<mgrwt>
<rscale>  0 0.88124092E+03</rscale>
<asrwt>0</asrwt>
<pdfrwt beam="1">  1        2 0.26290864E+00 0.95053842E+03</pdfrwt>
<pdfrwt beam="2">  1       -2 0.76554894E-01 0.95053842E+03</pdfrwt>
<totfact> 0.14853222E+01</totfact>
</mgrwt>
</event>
<event>
 4    1  0.9654646E-007  0.7269427E+03  0.7818608E-02  0.9899758E-01
          2   -1    0    0  501    0  0.00000000000E+00  0.00000000000E+00  0.19205309701E+04  0.19205309701E+04  0.25500000000E-02 0. -1.
         -2   -1    0    0    0  501 -0.00000000000E+00 -0.00000000000E+00 -0.49703106573E+03  0.49703106574E+03  0.25500000000E-02 0.  1.
    8880023    1    1    2    0    0 -0.24864787738E+03 -0.18113454385E+03 -0.20333724972E+03  0.75484550292E+03  0.65864270000E+03 0.  1.
    8880022    1    1    2    0    0  0.24864787738E+03  0.18113454385E+03  0.16268371541E+04  0.16627165329E+04  0.15294330000E+03 0.  0.
<mgrwt>
<rscale>  0 0.60273009E+03</rscale>
<asrwt>0</asrwt>
<pdfrwt beam="1">  1        2 0.29546630E+00 0.72694270E+03</pdfrwt>
<pdfrwt beam="2">  1       -2 0.76466319E-01 0.72694270E+03</pdfrwt>
<totfact> 0.11730006E+01</totfact>
</mgrwt>
</event>
<event>
 4    1  0.9654646E-007  0.1002863E+04  0.7818608E-02  0.9377822E-01
         -2   -1    0    0    0  501 -0.00000000000E+00  0.00000000000E+00  0.91589740404E+03  0.91589740405E+03  0.25500000000E-02 0.  1.
          2   -1    0    0  501    0  0.00000000000E+00 -0.00000000000E+00 -0.98920197851E+03  0.98920197851E+03  0.25500000000E-02 0. -1.
    8880023    1    1    2    0    0 -0.75027219766E+03  0.94950545858E+02  0.30165292129E+03  0.10472481406E+04  0.65864270000E+03 0.  0.
    8880022    1    1    2    0    0  0.75027219766E+03 -0.94950545858E+02 -0.37495749576E+03  0.85785124199E+03  0.15294330000E+03 0.  0.
<mgrwt>
<rscale>  0 0.93923575E+03</rscale>
<asrwt>0</asrwt>
<pdfrwt beam="1">  1        2 0.15218492E+00 0.10028630E+04</pdfrwt>
<pdfrwt beam="2">  1       -2 0.14090729E+00 0.10028630E+04</pdfrwt>
<totfact> 0.89611811E+00</totfact>
</mgrwt>
</event>
<event>
 4    1  0.9654646E-007  0.9232401E+03  0.7818608E-02  0.9489709E-01
         -2   -1    0    0    0  501 -0.00000000000E+00  0.00000000000E+00  0.66976822365E+03  0.66976822366E+03  0.25500000000E-02 0.  1.
          2   -1    0    0  501    0  0.00000000000E+00 -0.00000000000E+00 -0.13026017306E+04  0.13026017306E+04  0.25500000000E-02 0. -1.
    8880023    1    1    2    0    0 -0.55028467200E+03 -0.34021887949E+03 -0.86800512594E+03  0.12672036976E+04  0.65864270000E+03 0. -1.
    8880022    1    1    2    0    0  0.55028467200E+03  0.34021887949E+03  0.23517161898E+03  0.70516625670E+03  0.15294330000E+03 0.  0.
<mgrwt>
<rscale>  0 0.85046825E+03</rscale>
<asrwt>0</asrwt>
<pdfrwt beam="1">  1        2 0.20040027E+00 0.92324012E+03</pdfrwt>
<pdfrwt beam="2">  1       -2 0.10304127E+00 0.92324012E+03</pdfrwt>
<totfact> 0.12688907E+01</totfact>
</mgrwt>
</event>
<event>
 4    1  0.9654646E-007  0.7065585E+03  0.7818608E-02  0.9971010E-01
          2   -1    0    0  501    0  0.00000000000E+00  0.00000000000E+00  0.19732467407E+04  0.19732467407E+04  0.25500000000E-02 0. -1.
         -2   -1    0    0    0  501 -0.00000000000E+00 -0.00000000000E+00 -0.34326505992E+03  0.34326505993E+03  0.25500000000E-02 0.  1.
    8880023    1    1    2    0    0 -0.25513869196E+03 -0.17857955999E+02  0.49619961895E+02  0.70829866978E+03  0.65864270000E+03 0.  1.
    8880022    1    1    2    0    0  0.25513869196E+03  0.17857955999E+02  0.15803617188E+04  0.16082131308E+04  0.15294330000E+03 0.  0.
<mgrwt>
<rscale>  0 0.56939881E+03</rscale>
<asrwt>0</asrwt>
<pdfrwt beam="1">  1        2 0.30357643E+00 0.70655847E+03</pdfrwt>
<pdfrwt beam="2">  1       -2 0.52810008E-01 0.70655847E+03</pdfrwt>
<totfact> 0.24298160E+01</totfact>
</mgrwt>
</event>
<event>
 4    1  0.9654646E-007  0.7427485E+03  0.7818608E-02  0.9852012E-01
          2   -1    0    0  501    0  0.00000000000E+00  0.00000000000E+00  0.14299911301E+04  0.14299911301E+04  0.25500000000E-02 0. -1.
         -2   -1    0    0    0  501 -0.00000000000E+00 -0.00000000000E+00 -0.28637518001E+03  0.28637518002E+03  0.25500000000E-02 0.  1.
    8880023    1    1    2    0    0  0.29715171075E+03  0.17194777620E+03  0.31555097063E+03  0.80699925543E+03  0.65864270000E+03 0.  0.
    8880022    1    1    2    0    0 -0.29715171075E+03 -0.17194777620E+03  0.82806497942E+03  0.90936705465E+03  0.15294330000E+03 0.  0.
<mgrwt>
<rscale>  0 0.62644440E+03</rscale>
<asrwt>0</asrwt>
<pdfrwt beam="1">  1        2 0.21999863E+00 0.74274853E+03</pdfrwt>
<pdfrwt beam="2">  1       -2 0.44057721E-01 0.74274853E+03</pdfrwt>
<totfact> 0.69323620E+01</totfact>
</mgrwt>
</event>
<event>
 4    1  0.9654646E-007  0.7629266E+03  0.7818608E-02  0.9797589E-01
         -2   -1    0    0    0  501 -0.00000000000E+00  0.00000000000E+00  0.27527528688E+03  0.27527528690E+03  0.25500000000E-02 0.  1.
          2   -1    0    0  501    0  0.00000000000E+00 -0.00000000000E+00 -0.18408664631E+04  0.18408664631E+04  0.25500000000E-02 0. -1.
    8880023    1    1    2    0    0 -0.28376402197E+03  0.26023997210E+03 -0.36434606545E+03  0.84546148636E+03  0.65864270000E+03 0.  1.
    8880022    1    1    2    0    0  0.28376402197E+03 -0.26023997210E+03 -0.12012451108E+04  0.12706802636E+04  0.15294330000E+03 0.  0.
<mgrwt>
<rscale>  0 0.65492102E+03</rscale>
<asrwt>0</asrwt>
<pdfrwt beam="1">  1        2 0.28321022E+00 0.76292665E+03</pdfrwt>
<pdfrwt beam="2">  1       -2 0.42350045E-01 0.76292665E+03</pdfrwt>
<totfact> 0.44413711E+01</totfact>
</mgrwt>
</event>
<event>
 4    1  0.9654646E-007  0.8924008E+03  0.7818608E-02  0.9538343E-01
          2   -1    0    0  501    0  0.00000000000E+00  0.00000000000E+00  0.12912912150E+04  0.12912912150E+04  0.25500000000E-02 0. -1.
         -2   -1    0    0    0  501 -0.00000000000E+00 -0.00000000000E+00 -0.44870638905E+03  0.44870638906E+03  0.25500000000E-02 0.  1.
    8880023    1    1    2    0    0 -0.16446624987E+03 -0.57924075120E+03  0.40438699846E+03  0.97974897091E+03  0.65864270000E+03 0.  0.
    8880022    1    1    2    0    0  0.16446624987E+03  0.57924075120E+03  0.43819782751E+03  0.76024863318E+03  0.15294330000E+03 0.  1.
<mgrwt>
<rscale>  0 0.81515058E+03</rscale>
<asrwt>0</asrwt>
<pdfrwt beam="1">  1        2 0.19866018E+00 0.89240081E+03</pdfrwt>
<pdfrwt beam="2">  1       -2 0.69031753E-01 0.89240081E+03</pdfrwt>
<totfact> 0.32242153E+01</totfact>
</mgrwt>
</event>
<event>
 4    1  0.9654646E-007  0.7540428E+03  0.7818608E-02  0.9820781E-01
         -2   -1    0    0    0  501 -0.00000000000E+00  0.00000000000E+00  0.39099264561E+03  0.39099264562E+03  0.25500000000E-02 0.  1.
          2   -1    0    0  501    0  0.00000000000E+00 -0.00000000000E+00 -0.14796529188E+04  0.14796529188E+04  0.25500000000E-02 0. -1.
    8880023    1    1    2    0    0  0.13541254003E+03 -0.34122402081E+03 -0.46836671269E+02  0.75549604130E+03  0.65864270000E+03 0.  1.
    8880022    1    1    2    0    0 -0.13541254003E+03  0.34122402081E+03 -0.10418236019E+04  0.11151495231E+04  0.15294330000E+03 0.  0.
<mgrwt>
<rscale>  0 0.64259123E+03</rscale>
<asrwt>0</asrwt>
<pdfrwt beam="1">  1        2 0.22763891E+00 0.75404283E+03</pdfrwt>
<pdfrwt beam="2">  1       -2 0.60152716E-01 0.75404283E+03</pdfrwt>
<totfact> 0.34322268E+01</totfact>
</mgrwt>
</event>
<event>
 4    1  0.9654646E-007  0.7673218E+03  0.7818608E-02  0.9786508E-01
          2   -1    0    0  501    0  0.00000000000E+00  0.00000000000E+00  0.78863374966E+03  0.78863374966E+03  0.25500000000E-02 0. -1.
         -2   -1    0    0    0  501 -0.00000000000E+00 -0.00000000000E+00 -0.92941108139E+03  0.92941108139E+03  0.25500000000E-02 0.  1.
    8880023    1    1    2    0    0  0.36569214829E+03  0.14574585210E+03 -0.68539779431E+03  0.10288600213E+04  0.65864270000E+03 0.  1.
    8880022    1    1    2    0    0 -0.36569214829E+03 -0.14574585210E+03  0.54462046258E+03  0.68918480975E+03  0.15294330000E+03 0.  0.
<mgrwt>
<rscale>  0 0.66091658E+03</rscale>
<asrwt>0</asrwt>
<pdfrwt beam="1">  1        2 0.12132827E+00 0.76732184E+03</pdfrwt>
<pdfrwt beam="2">  1       -2 0.14298632E+00 0.76732184E+03</pdfrwt>
<totfact> 0.12097484E+01</totfact>
</mgrwt>
</event>
<event>
 4    1  0.9654646E-007  0.8047596E+03  0.7818608E-02  0.9700598E-01
         -2   -1    0    0    0  501 -0.00000000000E+00  0.00000000000E+00  0.58461978151E+03  0.58461978151E+03  0.25500000000E-02 0.  1.
          2   -1    0    0  501    0  0.00000000000E+00 -0.00000000000E+00 -0.14073349138E+04  0.14073349138E+04  0.25500000000E-02 0. -1.
    8880023    1    1    2    0    0 -0.45248119103E+03  0.95334281705E+02  0.22580159714E+03  0.83583755661E+03  0.65864270000E+03 0.  0.
    8880022    1    1    2    0    0  0.45248119103E+03 -0.95334281705E+02 -0.10485167295E+04  0.11561171387E+04  0.15294330000E+03 0.  0.
<mgrwt>
<rscale>  0 0.70981216E+03</rscale>
<asrwt>0</asrwt>
<pdfrwt beam="1">  1        2 0.21651306E+00 0.80475963E+03</pdfrwt>
<pdfrwt beam="2">  1       -2 0.89941505E-01 0.80475963E+03</pdfrwt>
<totfact> 0.15410226E+01</totfact>
</mgrwt>
</event>
<event>
 4    1  0.9654646E-007  0.6707701E+03  0.7818608E-02  0.1015117E+00
         -2   -1    0    0    0  501 -0.00000000000E+00  0.00000000000E+00  0.14991086820E+03  0.14991086822E+03  0.25500000000E-02 0.  1.
          2   -1    0    0  501    0  0.00000000000E+00 -0.00000000000E+00 -0.15264747116E+04  0.15264747116E+04  0.25500000000E-02 0. -1.
    8880023    1    1    2    0    0 -0.17400984949E+02 -0.12577553533E+03 -0.69280895834E+03  0.96432190610E+03  0.65864270000E+03 0.  0.
    8880022    1    1    2    0    0  0.17400984949E+02  0.12577553533E+03 -0.68375488504E+03  0.71206367370E+03  0.15294330000E+03 0.  0.
<mgrwt>
<rscale>  0 0.49490750E+03</rscale>
<asrwt>0</asrwt>
<pdfrwt beam="1">  1        2 0.23484225E+00 0.67077007E+03</pdfrwt>
<pdfrwt beam="2">  1       -2 0.23063212E-01 0.67077007E+03</pdfrwt>
<totfact> 0.20763653E+02</totfact>
</mgrwt>
</event>
<event>
 4    1  0.9654646E-007  0.9091346E+03  0.7818608E-02  0.9511524E-01
         -2   -1    0    0    0  501 -0.00000000000E+00  0.00000000000E+00  0.32563753781E+03  0.32563753782E+03  0.25500000000E-02 0.  1.
          2   -1    0    0  501    0  0.00000000000E+00 -0.00000000000E+00 -0.18784870996E+04  0.18784870996E+04  0.25500000000E-02 0. -1.
    8880023    1    1    2    0    0  0.62662149554E+03 -0.78161777157E+01 -0.78381963104E+03  0.12003745297E+04  0.65864270000E+03 0. -1.
    8880022    1    1    2    0    0 -0.62662149554E+03  0.78161777157E+01 -0.76902993074E+03  0.10037501077E+04  0.15294330000E+03 0.  0.
<mgrwt>
<rscale>  0 0.83439523E+03</rscale>
<asrwt>0</asrwt>
<pdfrwt beam="1">  1        2 0.28899801E+00 0.90913464E+03</pdfrwt>
<pdfrwt beam="2">  1       -2 0.50098084E-01 0.90913464E+03</pdfrwt>
<totfact> 0.29757779E+01</totfact>
</mgrwt>
</event>
<event>
 4    1  0.9654646E-007  0.7202430E+03  0.7818608E-02  0.9921765E-01
         -2   -1    0    0    0  501 -0.00000000000E+00  0.00000000000E+00  0.48626015000E+03  0.48626015001E+03  0.25500000000E-02 0.  1.
          2   -1    0    0  501    0  0.00000000000E+00 -0.00000000000E+00 -0.68312064388E+03  0.68312064388E+03  0.25500000000E-02 0. -1.
    8880023    1    1    2    0    0  0.57361360092E+01  0.29138783850E+03  0.98750676609E+02  0.72698120889E+03  0.65864270000E+03 0.  1.
    8880022    1    1    2    0    0 -0.57361360092E+01 -0.29138783850E+03 -0.29561117048E+03  0.44239958500E+03  0.15294330000E+03 0.  0.
<mgrwt>
<rscale>  0 0.59217981E+03</rscale>
<asrwt>0</asrwt>
<pdfrwt beam="1">  1        2 0.10509548E+00 0.72024300E+03</pdfrwt>
<pdfrwt beam="2">  1       -2 0.74809254E-01 0.72024300E+03</pdfrwt>
<totfact> 0.68844971E+01</totfact>
</mgrwt>
</event>
<event>
 4    1  0.9654646E-007  0.8353833E+03  0.7818608E-02  0.9638948E-01
         -2   -1    0    0    0  501 -0.00000000000E+00  0.00000000000E+00  0.44660086656E+03  0.44660086656E+03  0.25500000000E-02 0.  1.
          2   -1    0    0  501    0  0.00000000000E+00 -0.00000000000E+00 -0.21340938144E+04  0.21340938144E+04  0.25500000000E-02 0. -1.
    8880023    1    1    2    0    0 -0.38661598722E+03  0.33850123723E+03 -0.27029316068E+02  0.83582043488E+03  0.65864270000E+03 0.  1.
    8880022    1    1    2    0    0  0.38661598722E+03 -0.33850123723E+03 -0.16604636318E+04  0.17448742461E+04  0.15294330000E+03 0.  0.
<mgrwt>
<rscale>  0 0.74771138E+03</rscale>
<asrwt>0</asrwt>
<pdfrwt beam="1">  1        2 0.32832212E+00 0.83538327E+03</pdfrwt>
<pdfrwt beam="2">  1       -2 0.68707827E-01 0.83538327E+03</pdfrwt>
<totfact> 0.11167257E+01</totfact>
</mgrwt>
</event>
<event>
 4    1  0.9654646E-007  0.8798399E+03  0.7818608E-02  0.9559202E-01
         -2   -1    0    0    0  501 -0.00000000000E+00  0.00000000000E+00  0.53645474141E+03  0.53645474141E+03  0.25500000000E-02 0.  1.
          2   -1    0    0  501    0  0.00000000000E+00 -0.00000000000E+00 -0.11389754202E+04  0.11389754202E+04  0.25500000000E-02 0. -1.
    8880023    1    1    2    0    0 -0.21281104980E+03  0.54315702282E+03 -0.61289115009E+03  0.10722657611E+04  0.65864270000E+03 0.  0.
    8880022    1    1    2    0    0  0.21281104980E+03 -0.54315702282E+03  0.10370471267E+02  0.60316440052E+03  0.15294330000E+03 0.  0.
<mgrwt>
<rscale>  0 0.80056320E+03</rscale>
<asrwt>0</asrwt>
<pdfrwt beam="1">  1        2 0.17522699E+00 0.87983993E+03</pdfrwt>
<pdfrwt beam="2">  1       -2 0.82531499E-01 0.87983993E+03</pdfrwt>
<totfact> 0.26707450E+01</totfact>
</mgrwt>
</event>
<event>
 4    1  0.9654646E-007  0.1124949E+04  0.7818608E-02  0.9233774E-01
          2   -1    0    0  501    0  0.00000000000E+00  0.00000000000E+00  0.25835457568E+04  0.25835457568E+04  0.25500000000E-02 0. -1.
         -2   -1    0    0    0  501 -0.00000000000E+00 -0.00000000000E+00 -0.55931666279E+03  0.55931666280E+03  0.25500000000E-02 0.  1.
    8880023    1    1    2    0    0  0.86218993785E+03  0.29720032206E+03  0.26550742190E+03  0.11558563569E+04  0.65864270000E+03 0.  0.
    8880022    1    1    2    0    0 -0.86218993785E+03 -0.29720032206E+03  0.17587216721E+04  0.19870060627E+04  0.15294330000E+03 0.  0.
<mgrwt>
<rscale>  0 0.10711520E+04</rscale>
<asrwt>0</asrwt>
<pdfrwt beam="1">  1        2 0.39746858E+00 0.11249488E+04</pdfrwt>
<pdfrwt beam="2">  1       -2 0.86048717E-01 0.11249488E+04</pdfrwt>
<totfact> 0.36281931E+00</totfact>
</mgrwt>
</event>
<event>
 4    1  0.9654646E-007  0.7300796E+03  0.7818608E-02  0.9889848E-01
         -2   -1    0    0    0  501 -0.00000000000E+00  0.00000000000E+00  0.27840014569E+03  0.27840014570E+03  0.25500000000E-02 0.  1.
          2   -1    0    0  501    0  0.00000000000E+00 -0.00000000000E+00 -0.32455385485E+04  0.32455385485E+04  0.25500000000E-02 0. -1.
    8880023    1    1    2    0    0  0.23919264430E+03 -0.20492154597E+03 -0.23138377906E+03  0.76586854000E+03  0.65864270000E+03 0.  1.
    8880022    1    1    2    0    0 -0.23919264430E+03  0.20492154597E+03 -0.27357546238E+04  0.27580701542E+04  0.15294330000E+03 0.  0.
<mgrwt>
<rscale>  0 0.60755821E+03</rscale>
<asrwt>0</asrwt>
<pdfrwt beam="1">  1        2 0.49931360E+00 0.73007956E+03</pdfrwt>
<pdfrwt beam="2">  1       -2 0.42830794E-01 0.73007956E+03</pdfrwt>
<totfact> 0.67399688E+00</totfact>
</mgrwt>
</event>
<event>
 4    1  0.9654646E-007  0.9012788E+03  0.7818608E-02  0.9523982E-01
          2   -1    0    0  501    0  0.00000000000E+00  0.00000000000E+00  0.10644028159E+04  0.10644028159E+04  0.25500000000E-02 0. -1.
         -2   -1    0    0    0  501 -0.00000000000E+00 -0.00000000000E+00 -0.58435377488E+03  0.58435377489E+03  0.25500000000E-02 0.  1.
    8880023    1    1    2    0    0 -0.15755636157E+03 -0.59470092895E+03  0.93160760931E+02  0.90608075557E+03  0.65864270000E+03 0.  1.
    8880022    1    1    2    0    0  0.15755636157E+03  0.59470092895E+03  0.38688828013E+03  0.74267583526E+03  0.15294330000E+03 0. -1.
<mgrwt>
<rscale>  0 0.82538592E+03</rscale>
<asrwt>0</asrwt>
<pdfrwt beam="1">  1        2 0.16375428E+00 0.90127876E+03</pdfrwt>
<pdfrwt beam="2">  1       -2 0.89900581E-01 0.90127876E+03</pdfrwt>
<totfact> 0.24358225E+01</totfact>
</mgrwt>
</event>
<event>
 4    1  0.9654646E-007  0.6697957E+03  0.7818608E-02  0.1015810E+00
          2   -1    0    0  501    0  0.00000000000E+00  0.00000000000E+00  0.99714410593E+03  0.99714410594E+03  0.25500000000E-02 0. -1.
         -2   -1    0    0    0  501 -0.00000000000E+00 -0.00000000000E+00 -0.18785486603E+03  0.18785486605E+03  0.25500000000E-02 0.  1.
    8880023    1    1    2    0    0  0.11079524768E+03  0.50402700994E+02  0.64022909327E+03  0.92656328295E+03  0.65864270000E+03 0.  0.
    8880022    1    1    2    0    0 -0.11079524768E+03 -0.50402700994E+02  0.16906014663E+03  0.25843568904E+03  0.15294330000E+03 0.  1.
<mgrwt>
<rscale>  0 0.49229516E+03</rscale>
<asrwt>0</asrwt>
<pdfrwt beam="1">  1        2 0.15340679E+00 0.66979566E+03</pdfrwt>
<pdfrwt beam="2">  1       -2 0.28900748E-01 0.66979566E+03</pdfrwt>
<totfact> 0.28148460E+02</totfact>
</mgrwt>
</event>
<event>
 4    1  0.9654646E-007  0.8267729E+03  0.7818608E-02  0.9655644E-01
          2   -1    0    0  501    0  0.00000000000E+00  0.00000000000E+00  0.21527393064E+04  0.21527393064E+04  0.25500000000E-02 0. -1.
         -2   -1    0    0    0  501 -0.00000000000E+00 -0.00000000000E+00 -0.25289883264E+03  0.25289883265E+03  0.25500000000E-02 0.  1.
    8880023    1    1    2    0    0  0.82723834933E+02 -0.49284892791E+03  0.16053844704E+04  0.18057720794E+04  0.65864270000E+03 0.  0.
    8880022    1    1    2    0    0 -0.82723834933E+02  0.49284892791E+03  0.29445600334E+03  0.59986605966E+03  0.15294330000E+03 0.  0.
<mgrwt>
<rscale>  0 0.73720259E+03</rscale>
<asrwt>0</asrwt>
<pdfrwt beam="1">  1        2 0.33119064E+00 0.82677295E+03</pdfrwt>
<pdfrwt beam="2">  1       -2 0.38907515E-01 0.82677295E+03</pdfrwt>
<totfact> 0.35127466E+01</totfact>
</mgrwt>
</event>
<event>
 4    1  0.9654646E-007  0.6615964E+03  0.7818608E-02  0.1022577E+00
          2   -1    0    0  501    0  0.00000000000E+00  0.00000000000E+00  0.24987518835E+04  0.24987518835E+04  0.25500000000E-02 0. -1.
         -2   -1    0    0    0  501 -0.00000000000E+00 -0.00000000000E+00 -0.72225920838E+02  0.72225920883E+02  0.25500000000E-02 0.  1.
    8880023    1    1    2    0    0 -0.20022794122E+02 -0.59149825767E+02  0.16627143768E+04  0.17895052163E+04  0.65864270000E+03 0.  1.
    8880022    1    1    2    0    0  0.20022794122E+02  0.59149825767E+02  0.76381158594E+03  0.78147258814E+03  0.15294330000E+03 0. -1.
<mgrwt>
<rscale>  0 0.46767895E+03</rscale>
<asrwt>0</asrwt>
<pdfrwt beam="1">  1        2 0.38442330E+00 0.66159642E+03</pdfrwt>
<pdfrwt beam="2">  1       -2 0.11111682E-01 0.66159642E+03</pdfrwt>
<totfact> 0.21102850E+02</totfact>
</mgrwt>
</event>
<event>
 4    1  0.9654646E-007  0.9807507E+03  0.7818608E-02  0.9407186E-01
         -2   -1    0    0    0  501 -0.00000000000E+00  0.00000000000E+00  0.65808998785E+03  0.65808998786E+03  0.25500000000E-02 0.  1.
          2   -1    0    0  501    0  0.00000000000E+00 -0.00000000000E+00 -0.15607355213E+04  0.15607355213E+04  0.25500000000E-02 0. -1.
    8880023    1    1    2    0    0  0.58656771444E+03  0.42895237576E+03  0.83554775750E+02  0.98430352590E+03  0.65864270000E+03 0.  0.
    8880022    1    1    2    0    0 -0.58656771444E+03 -0.42895237576E+03 -0.98620030921E+03  0.12345219833E+04  0.15294330000E+03 0.  0.
<mgrwt>
<rscale>  0 0.91486623E+03</rscale>
<asrwt>0</asrwt>
<pdfrwt beam="1">  1        2 0.24011316E+00 0.98075075E+03</pdfrwt>
<pdfrwt beam="2">  1       -2 0.10124461E+00 0.98075075E+03</pdfrwt>
<totfact> 0.93889829E+00</totfact>
</mgrwt>
</event>
<event>
 4    1  0.9654646E-007  0.7039079E+03  0.7818608E-02  0.9981360E-01
          2   -1    0    0  501    0  0.00000000000E+00  0.00000000000E+00  0.74273486765E+03  0.74273486765E+03  0.25500000000E-02 0. -1.
         -2   -1    0    0    0  501 -0.00000000000E+00 -0.00000000000E+00 -0.78476820708E+03  0.78476820709E+03  0.25500000000E-02 0.  1.
    8880023    1    1    2    0    0  0.10255062910E+03 -0.22618452110E+03 -0.58229571983E+03  0.91353958902E+03  0.65864270000E+03 0.  1.
    8880022    1    1    2    0    0 -0.10255062910E+03  0.22618452110E+03  0.54026238040E+03  0.61396348572E+03  0.15294330000E+03 0.  0.
<mgrwt>
<rscale>  0 0.56475159E+03</rscale>
<asrwt>0</asrwt>
<pdfrwt beam="1">  1        2 0.11426690E+00 0.70390786E+03</pdfrwt>
<pdfrwt beam="2">  1       -2 0.12073357E+00 0.70390786E+03</pdfrwt>
<totfact> 0.20234285E+01</totfact>
</mgrwt>
</event>
<event>
 4    1  0.9654646E-007  0.8629212E+03  0.7818608E-02  0.9588388E-01
         -2   -1    0    0    0  501 -0.00000000000E+00  0.00000000000E+00  0.10847869206E+04  0.10847869206E+04  0.25500000000E-02 0.  1.
          2   -1    0    0  501    0  0.00000000000E+00 -0.00000000000E+00 -0.11801420638E+04  0.11801420638E+04  0.25500000000E-02 0. -1.
    8880023    1    1    2    0    0  0.53765546830E+03  0.14747697371E+03  0.81471844136E+03  0.11867599611E+04  0.65864270000E+03 0.  1.
    8880022    1    1    2    0    0 -0.53765546830E+03 -0.14747697371E+03 -0.91007358460E+03  0.10781690233E+04  0.15294330000E+03 0.  0.
<mgrwt>
<rscale>  0 0.78069524E+03</rscale>
<asrwt>0</asrwt>
<pdfrwt beam="1">  1        2 0.18156032E+00 0.86292124E+03</pdfrwt>
<pdfrwt beam="2">  1       -2 0.16689030E+00 0.86292124E+03</pdfrwt>
<totfact> 0.43982656E+00</totfact>
</mgrwt>
</event>
<event>
 4    1  0.9654646E-007  0.6885804E+03  0.7818608E-02  0.1004835E+00
         -2   -1    0    0    0  501 -0.00000000000E+00  0.00000000000E+00  0.15238133444E+04  0.15238133445E+04  0.25500000000E-02 0.  1.
          2   -1    0    0  501    0  0.00000000000E+00 -0.00000000000E+00 -0.78632856478E+03  0.78632856479E+03  0.25500000000E-02 0. -1.
    8880023    1    1    2    0    0  0.19417712620E+03  0.51264061246E+02  0.14223360035E+04  0.15802476620E+04  0.65864270000E+03 0.  1.
    8880022    1    1    2    0    0 -0.19417712620E+03 -0.51264061246E+02 -0.68485122382E+03  0.72989424720E+03  0.15294330000E+03 0.  0.
<mgrwt>
<rscale>  0 0.53580187E+03</rscale>
<asrwt>0</asrwt>
<pdfrwt beam="1">  1        2 0.12097363E+00 0.68858040E+03</pdfrwt>
<pdfrwt beam="2">  1       -2 0.23443282E+00 0.68858040E+03</pdfrwt>
<totfact> 0.29347636E+00</totfact>
</mgrwt>
</event>
<event>
 4    1  0.9654646E-007  0.7054456E+03  0.7818608E-02  0.9975319E-01
          2   -1    0    0  501    0  0.00000000000E+00  0.00000000000E+00  0.23909856681E+04  0.23909856681E+04  0.25500000000E-02 0. -1.
         -2   -1    0    0    0  501 -0.00000000000E+00 -0.00000000000E+00 -0.13847512109E+03  0.13847512111E+03  0.25500000000E-02 0.  1.
    8880023    1    1    2    0    0 -0.24671810722E+03  0.54529016083E+02  0.89190379975E+03  0.11371657013E+04  0.65864270000E+03 0.  1.
    8880022    1    1    2    0    0  0.24671810722E+03 -0.54529016083E+02  0.13606067472E+04  0.13922950879E+04  0.15294330000E+03 0.  0.
<mgrwt>
<rscale>  0 0.56745824E+03</rscale>
<asrwt>0</asrwt>
<pdfrwt beam="1">  1        2 0.36784394E+00 0.70544556E+03</pdfrwt>
<pdfrwt beam="2">  1       -2 0.21303865E-01 0.70544556E+03</pdfrwt>
<totfact> 0.80011508E+01</totfact>
</mgrwt>
</event>
<event>
 4    1  0.9654646E-007  0.7273357E+03  0.7818608E-02  0.9898504E-01
         -2   -1    0    0    0  501 -0.00000000000E+00  0.00000000000E+00  0.21481763590E+03  0.21481763592E+03  0.25500000000E-02 0.  1.
          2   -1    0    0  501    0  0.00000000000E+00 -0.00000000000E+00 -0.18447346365E+04  0.18447346365E+04  0.25500000000E-02 0. -1.
    8880023    1    1    2    0    0 -0.30843093981E+03 -0.87962558616E+01 -0.51115770690E+03  0.88898786625E+03  0.65864270000E+03 0.  1.
    8880022    1    1    2    0    0  0.30843093981E+03  0.87962558616E+01 -0.11187592937E+04  0.11705644062E+04  0.15294330000E+03 0.  0.
<mgrwt>
<rscale>  0 0.60333867E+03</rscale>
<asrwt>0</asrwt>
<pdfrwt beam="1">  1        2 0.28380532E+00 0.72733570E+03</pdfrwt>
<pdfrwt beam="2">  1       -2 0.33048868E-01 0.72733570E+03</pdfrwt>
<totfact> 0.71565147E+01</totfact>
</mgrwt>
</event>
<event>
 4    1  0.9654646E-007  0.6834353E+03  0.7818608E-02  0.1007444E+00
         -2   -1    0    0    0  501 -0.00000000000E+00  0.00000000000E+00  0.66675153027E+03  0.66675153028E+03  0.25500000000E-02 0.  1.
          2   -1    0    0  501    0  0.00000000000E+00 -0.00000000000E+00 -0.17412988958E+04  0.17412988958E+04  0.25500000000E-02 0. -1.
    8880023    1    1    2    0    0 -0.13200162134E+03 -0.12589367808E+03  0.48014585983E+03  0.83523882763E+03  0.65864270000E+03 0.  1.
    8880022    1    1    2    0    0  0.13200162134E+03  0.12589367808E+03 -0.15546932254E+04  0.15728115984E+04  0.15294330000E+03 0.  0.
<mgrwt>
<rscale>  0 0.52503435E+03</rscale>
<asrwt>0</asrwt>
<pdfrwt beam="1">  1        2 0.26789214E+00 0.68343533E+03</pdfrwt>
<pdfrwt beam="2">  1       -2 0.10257716E+00 0.68343533E+03</pdfrwt>
<totfact> 0.75244041E+00</totfact>
</mgrwt>
</event>
<event>
 4    1  0.9654646E-007  0.6789419E+03  0.7818608E-02  0.1009929E+00
         -2   -1    0    0    0  501 -0.00000000000E+00  0.00000000000E+00  0.11243460121E+04  0.11243460121E+04  0.25500000000E-02 0.  1.
          2   -1    0    0  501    0  0.00000000000E+00 -0.00000000000E+00 -0.63812869280E+03  0.63812869280E+03  0.25500000000E-02 0. -1.
    8880023    1    1    2    0    0 -0.13255281650E+03 -0.97885548200E+02  0.99595644868E+03  0.12053594002E+04  0.65864270000E+03 0.  1.
    8880022    1    1    2    0    0  0.13255281650E+03  0.97885548200E+02 -0.50973912938E+03  0.55711530471E+03  0.15294330000E+03 0.  0.
<mgrwt>
<rscale>  0 0.51503006E+03</rscale>
<asrwt>0</asrwt>
<pdfrwt beam="1">  1        2 0.98173647E-01 0.67894185E+03</pdfrwt>
<pdfrwt beam="2">  1       -2 0.17297631E+00 0.67894185E+03</pdfrwt>
<totfact> 0.95748053E+00</totfact>
</mgrwt>
</event>
<event>
 4    1  0.9654646E-007  0.7043002E+03  0.7818608E-02  0.9979809E-01
          2   -1    0    0  501    0  0.00000000000E+00  0.00000000000E+00  0.91877486549E+03  0.91877486549E+03  0.25500000000E-02 0. -1.
         -2   -1    0    0    0  501 -0.00000000000E+00 -0.00000000000E+00 -0.40189046190E+03  0.40189046191E+03  0.25500000000E-02 0.  1.
    8880023    1    1    2    0    0  0.53996152105E+02 -0.24354250407E+03 -0.25089127923E+02  0.70474690942E+03  0.65864270000E+03 0.  1.
    8880022    1    1    2    0    0 -0.53996152105E+02  0.24354250407E+03  0.54197353151E+03  0.61591841798E+03  0.15294330000E+03 0.  0.
<mgrwt>
<rscale>  0 0.56544500E+03</rscale>
<asrwt>0</asrwt>
<pdfrwt beam="1">  1        2 0.14134998E+00 0.70430018E+03</pdfrwt>
<pdfrwt beam="2">  1       -2 0.61829303E-01 0.70430018E+03</pdfrwt>
<totfact> 0.70429468E+01</totfact>
</mgrwt>
</event>
<event>
 4    1  0.1545014E-006  0.9064626E+03  0.7818608E-02  0.9515736E-01
         -2   -1    0    0    0  501 -0.00000000000E+00  0.00000000000E+00  0.16282758793E+04  0.16282758793E+04  0.25500000000E-02 0.  1.
          2   -1    0    0  501    0  0.00000000000E+00 -0.00000000000E+00 -0.15501974825E+04  0.15501974825E+04  0.25500000000E-02 0. -1.
    8880023    1    1    2    0    0 -0.24314780983E+03  0.57336145665E+03  0.14237418609E+04  0.16878137664E+04  0.65864270000E+03 0.  1.
    8880022    1    1    2    0    0  0.24314780983E+03 -0.57336145665E+03 -0.13456634641E+04  0.14906595953E+04  0.15294330000E+03 0.  0.
<mgrwt>
<rscale>  0 0.83133569E+03</rscale>
<asrwt>0</asrwt>
<pdfrwt beam="1">  1        2 0.23849192E+00 0.90646259E+03</pdfrwt>
<pdfrwt beam="2">  1       -2 0.25050398E+00 0.90646259E+03</pdfrwt>
<totfact> 0.76918546E-01</totfact>
</mgrwt>
</event>
<event>
 4    1  0.9654646E-007  0.1177751E+04  0.7818608E-02  0.9179060E-01
          2   -1    0    0  501    0  0.00000000000E+00  0.00000000000E+00  0.16304994141E+04  0.16304994141E+04  0.25500000000E-02 0. -1.
         -2   -1    0    0    0  501 -0.00000000000E+00 -0.00000000000E+00 -0.98243356980E+03  0.98243356980E+03  0.25500000000E-02 0.  1.
    8880023    1    1    2    0    0 -0.14087096468E+03 -0.96614788861E+03 -0.32937845398E+03  0.12229418398E+04  0.65864270000E+03 0.  0.
    8880022    1    1    2    0    0  0.14087096468E+03  0.96614788861E+03  0.97744429824E+03  0.13899911440E+04  0.15294330000E+03 0.  0.
<mgrwt>
<rscale>  0 0.11272207E+04</rscale>
<asrwt>0</asrwt>
<pdfrwt beam="1">  1        2 0.25084606E+00 0.11777506E+04</pdfrwt>
<pdfrwt beam="2">  1       -2 0.15114363E+00 0.11777506E+04</pdfrwt>
<totfact> 0.30671026E+00</totfact>
</mgrwt>
</event>
<event>
 4    1  0.9654646E-007  0.7273483E+03  0.7818608E-02  0.9898464E-01
          2   -1    0    0  501    0  0.00000000000E+00  0.00000000000E+00  0.13274586284E+04  0.13274586284E+04  0.25500000000E-02 0. -1.
         -2   -1    0    0    0  501 -0.00000000000E+00 -0.00000000000E+00 -0.22405786942E+03  0.22405786943E+03  0.25500000000E-02 0.  1.
    8880023    1    1    2    0    0 -0.19982498974E+03 -0.23514940848E+03  0.87694678917E+03  0.11393292536E+04  0.65864270000E+03 0.  0.
    8880022    1    1    2    0    0  0.19982498974E+03  0.23514940848E+03  0.22645396979E+03  0.41218724420E+03  0.15294330000E+03 0.  0.
<mgrwt>
<rscale>  0 0.60335808E+03</rscale>
<asrwt>0</asrwt>
<pdfrwt beam="1">  1        2 0.20422440E+00 0.72734825E+03</pdfrwt>
<pdfrwt beam="2">  1       -2 0.34470441E-01 0.72734825E+03</pdfrwt>
<totfact> 0.12778830E+02</totfact>
</mgrwt>
</event>
<event>
 4    1  0.9654646E-007  0.7702630E+03  0.7818608E-02  0.9779227E-01
         -2   -1    0    0    0  501 -0.00000000000E+00  0.00000000000E+00  0.38559859443E+03  0.38559859444E+03  0.25500000000E-02 0.  1.
          2   -1    0    0  501    0  0.00000000000E+00 -0.00000000000E+00 -0.21476316527E+04  0.21476316527E+04  0.25500000000E-02 0. -1.
    8880023    1    1    2    0    0  0.27836640641E+03 -0.28636856194E+03 -0.53644283098E+02  0.77212869708E+03  0.65864270000E+03 0.  1.
    8880022    1    1    2    0    0 -0.27836640641E+03  0.28636856194E+03 -0.17083887752E+04  0.17611015501E+04  0.15294330000E+03 0.  0.
<mgrwt>
<rscale>  0 0.66489329E+03</rscale>
<asrwt>0</asrwt>
<pdfrwt beam="1">  1        2 0.33040486E+00 0.77026295E+03</pdfrwt>
<pdfrwt beam="2">  1       -2 0.59322862E-01 0.77026295E+03</pdfrwt>
<totfact> 0.15174328E+01</totfact>
</mgrwt>
</event>
<event>
 4    1  0.1418416E-006  0.9962584E+03  0.7818608E-02  0.9386469E-01
          2   -1    0    0  501    0  0.00000000000E+00  0.00000000000E+00  0.22904825204E+04  0.22904825204E+04  0.25500000000E-02 0. -1.
         -2   -1    0    0    0  501 -0.00000000000E+00 -0.00000000000E+00 -0.12690631988E+04  0.12690631988E+04  0.25500000000E-02 0.  1.
    8880023    1    1    2    0    0 -0.70685845994E+03 -0.24304682251E+03 -0.99230551599E+03  0.14061298246E+04  0.65864270000E+03 0.  1.
    8880022    1    1    2    0    0  0.70685845994E+03  0.24304682251E+03  0.20137248376E+04  0.21534158946E+04  0.15294330000E+03 0.  0.
<mgrwt>
<rscale>  0 0.93197626E+03</rscale>
<asrwt>0</asrwt>
<pdfrwt beam="1">  1        2 0.35238192E+00 0.99625842E+03</pdfrwt>
<pdfrwt beam="2">  1       -2 0.19524049E+00 0.99625842E+03</pdfrwt>
<totfact> 0.65855477E-01</totfact>
</mgrwt>
</event>
<event>
 4    1  0.9654646E-007  0.8081864E+03  0.7818608E-02  0.9693367E-01
         -2   -1    0    0    0  501 -0.00000000000E+00  0.00000000000E+00  0.25955358797E+03  0.25955358798E+03  0.25500000000E-02 0.  1.
          2   -1    0    0  501    0  0.00000000000E+00 -0.00000000000E+00 -0.20279215072E+04  0.20279215072E+04  0.25500000000E-02 0. -1.
    8880023    1    1    2    0    0 -0.34291090264E+03 -0.31900957216E+03 -0.56202193122E+03  0.98439517051E+03  0.65864270000E+03 0.  0.
    8880022    1    1    2    0    0  0.34291090264E+03  0.31900957216E+03 -0.12063459880E+04  0.13030799246E+04  0.15294330000E+03 0.  0.
<mgrwt>
<rscale>  0 0.71413085E+03</rscale>
<asrwt>0</asrwt>
<pdfrwt beam="1">  1        2 0.31198791E+00 0.80818636E+03</pdfrwt>
<pdfrwt beam="2">  1       -2 0.39931322E-01 0.80818636E+03</pdfrwt>
<totfact> 0.39191578E+01</totfact>
</mgrwt>
</event>
<event>
 4    1  0.9654646E-007  0.8319733E+03  0.7818608E-02  0.9645505E-01
          2   -1    0    0  501    0  0.00000000000E+00  0.00000000000E+00  0.15937819845E+04  0.15937819845E+04  0.25500000000E-02 0. -1.
         -2   -1    0    0    0  501 -0.00000000000E+00 -0.00000000000E+00 -0.30507688841E+03  0.30507688842E+03  0.25500000000E-02 0.  1.
    8880023    1    1    2    0    0  0.44995012982E+03  0.23646199521E+03  0.97720280661E+03  0.12833958571E+04  0.65864270000E+03 0.  0.
    8880022    1    1    2    0    0 -0.44995012982E+03 -0.23646199521E+03  0.31150228950E+03  0.61546301586E+03  0.15294330000E+03 0.  0.
<mgrwt>
<rscale>  0 0.74356197E+03</rscale>
<asrwt>0</asrwt>
<pdfrwt beam="1">  1        2 0.24519723E+00 0.83197332E+03</pdfrwt>
<pdfrwt beam="2">  1       -2 0.46934906E-01 0.83197332E+03</pdfrwt>
<totfact> 0.49080753E+01</totfact>
</mgrwt>
</event>
<event>
 4    1  0.9654646E-007  0.6647906E+03  0.7818608E-02  0.1019710E+00
         -2   -1    0    0    0  501 -0.00000000000E+00  0.00000000000E+00  0.18303527219E+03  0.18303527221E+03  0.25500000000E-02 0.  1.
          2   -1    0    0  501    0  0.00000000000E+00 -0.00000000000E+00 -0.14023738750E+04  0.14023738750E+04  0.25500000000E-02 0. -1.
    8880023    1    1    2    0    0 -0.77333233263E+02 -0.46431485167E+02 -0.46706157799E+03  0.81246109795E+03  0.65864270000E+03 0.  1.
    8880022    1    1    2    0    0  0.77333233263E+02  0.46431485167E+02 -0.75227702485E+03  0.77294804929E+03  0.15294330000E+03 0.  0.
<mgrwt>
<rscale>  0 0.47791497E+03</rscale>
<asrwt>0</asrwt>
<pdfrwt beam="1">  1        2 0.21574982E+00 0.66479058E+03</pdfrwt>
<pdfrwt beam="2">  1       -2 0.28159273E-01 0.66479058E+03</pdfrwt>
<totfact> 0.16986641E+02</totfact>
</mgrwt>
</event>
<event>
 4    1  0.9654646E-007  0.6742521E+03  0.7818608E-02  0.1012782E+00
         -2   -1    0    0    0  501 -0.00000000000E+00  0.00000000000E+00  0.15873825834E+04  0.15873825834E+04  0.25500000000E-02 0.  1.
          2   -1    0    0  501    0  0.00000000000E+00 -0.00000000000E+00 -0.17810255762E+03  0.17810255764E+03  0.25500000000E-02 0. -1.
    8880023    1    1    2    0    0 -0.74048020346E+02 -0.12378433830E+03  0.14013316994E+04  0.15551033437E+04  0.65864270000E+03 0.  1.
    8880022    1    1    2    0    0  0.74048020346E+02  0.12378433830E+03  0.79483263723E+01  0.21038179729E+03  0.15294330000E+03 0. -1.
<mgrwt>
<rscale>  0 0.50383835E+03</rscale>
<asrwt>0</asrwt>
<pdfrwt beam="1">  1        2 0.27400394E-01 0.67425209E+03</pdfrwt>
<pdfrwt beam="2">  1       -2 0.24421270E+00 0.67425209E+03</pdfrwt>
<totfact> 0.14210923E+01</totfact>
</mgrwt>
</event>
<event>
 4    1  0.9654646E-007  0.7189029E+03  0.7818608E-02  0.9926316E-01
          2   -1    0    0  501    0  0.00000000000E+00  0.00000000000E+00  0.24887190613E+04  0.24887190613E+04  0.25500000000E-02 0. -1.
         -2   -1    0    0    0  501 -0.00000000000E+00 -0.00000000000E+00 -0.20664651960E+03  0.20664651961E+03  0.25500000000E-02 0.  1.
    8880023    1    1    2    0    0  0.27976281738E+03  0.68876352368E+02  0.48095966762E+03  0.86495294326E+03  0.65864270000E+03 0.  1.
    8880022    1    1    2    0    0 -0.27976281738E+03 -0.68876352368E+02  0.18011128741E+04  0.18304126376E+04  0.15294330000E+03 0.  0.
<mgrwt>
<rscale>  0 0.59002693E+03</rscale>
<asrwt>0</asrwt>
<pdfrwt beam="1">  1        2 0.38287982E+00 0.71890291E+03</pdfrwt>
<pdfrwt beam="2">  1       -2 0.31791775E-01 0.71890291E+03</pdfrwt>
<totfact> 0.34026884E+01</totfact>
</mgrwt>
</event>
<event>
 4    1  0.9654646E-007  0.6972019E+03  0.7818608E-02  0.1000901E+00
         -2   -1    0    0    0  501 -0.00000000000E+00  0.00000000000E+00  0.24303755946E+03  0.24303755948E+03  0.25500000000E-02 0.  1.
          2   -1    0    0  501    0  0.00000000000E+00 -0.00000000000E+00 -0.24305088919E+04  0.24305088919E+04  0.25500000000E-02 0. -1.
    8880023    1    1    2    0    0  0.15339936008E+03  0.16955486631E+03 -0.28813888345E+03  0.75439673831E+03  0.65864270000E+03 0.  1.
    8880022    1    1    2    0    0 -0.15339936008E+03 -0.16955486631E+03 -0.18993324489E+04  0.19191497130E+04  0.15294330000E+03 0.  0.
<mgrwt>
<rscale>  0 0.55256797E+03</rscale>
<asrwt>0</asrwt>
<pdfrwt beam="1">  1        2 0.37392443E+00 0.69720185E+03</pdfrwt>
<pdfrwt beam="2">  1       -2 0.37390395E-01 0.69720185E+03</pdfrwt>
<totfact> 0.27061984E+01</totfact>
</mgrwt>
</event>
<event>
 4    1  0.9654646E-007  0.7679010E+03  0.7818608E-02  0.9785066E-01
          2   -1    0    0  501    0  0.00000000000E+00  0.00000000000E+00  0.69987998062E+03  0.69987998063E+03  0.25500000000E-02 0. -1.
         -2   -1    0    0    0  501 -0.00000000000E+00 -0.00000000000E+00 -0.89455489538E+03  0.89455489538E+03  0.25500000000E-02 0.  1.
    8880023    1    1    2    0    0  0.31708966480E+03 -0.23519319864E+03 -0.62548537245E+03  0.99040590346E+03  0.65864270000E+03 0.  1.
    8880022    1    1    2    0    0 -0.31708966480E+03  0.23519319864E+03  0.43081045769E+03  0.60402897255E+03  0.15294330000E+03 0.  0.
<mgrwt>
<rscale>  0 0.66170181E+03</rscale>
<asrwt>0</asrwt>
<pdfrwt beam="1">  1        2 0.10767384E+00 0.76790097E+03</pdfrwt>
<pdfrwt beam="2">  1       -2 0.13762383E+00 0.76790097E+03</pdfrwt>
<totfact> 0.15582872E+01</totfact>
</mgrwt>
</event>
<event>
 4    1  0.9654646E-007  0.7428770E+03  0.7818608E-02  0.9851644E-01
          2   -1    0    0  501    0  0.00000000000E+00  0.00000000000E+00  0.22091849084E+04  0.22091849084E+04  0.25500000000E-02 0. -1.
         -2   -1    0    0    0  501 -0.00000000000E+00 -0.00000000000E+00 -0.20904806906E+03  0.20904806908E+03  0.25500000000E-02 0.  1.
    8880023    1    1    2    0    0  0.18575187413E+03  0.28905419421E+03  0.56138999330E+03  0.93114178124E+03  0.65864270000E+03 0.  1.
    8880022    1    1    2    0    0 -0.18575187413E+03 -0.28905419421E+03  0.14387468461E+04  0.14870911963E+04  0.15294330000E+03 0.  0.
<mgrwt>
<rscale>  0 0.62663147E+03</rscale>
<asrwt>0</asrwt>
<pdfrwt beam="1">  1        2 0.33987463E+00 0.74287704E+03</pdfrwt>
<pdfrwt beam="2">  1       -2 0.32161239E-01 0.74287704E+03</pdfrwt>
<totfact> 0.47525849E+01</totfact>
</mgrwt>
</event>
<event>
 4    1  0.9654646E-007  0.7492630E+03  0.7818608E-02  0.9833742E-01
         -2   -1    0    0    0  501 -0.00000000000E+00  0.00000000000E+00  0.32676475120E+03  0.32676475121E+03  0.25500000000E-02 0.  1.
          2   -1    0    0  501    0  0.00000000000E+00 -0.00000000000E+00 -0.16735427254E+04  0.16735427254E+04  0.25500000000E-02 0. -1.
    8880023    1    1    2    0    0  0.48193007207E+02  0.35392410886E+03 -0.18006826988E+03  0.77059693021E+03  0.65864270000E+03 0.  0.
    8880022    1    1    2    0    0 -0.48193007207E+02 -0.35392410886E+03 -0.11667097043E+04  0.12297105464E+04  0.15294330000E+03 0.  0.
<mgrwt>
<rscale>  0 0.63582761E+03</rscale>
<asrwt>0</asrwt>
<pdfrwt beam="1">  1        2 0.25746811E+00 0.74926300E+03</pdfrwt>
<pdfrwt beam="2">  1       -2 0.50271501E-01 0.74926300E+03</pdfrwt>
<totfact> 0.38938187E+01</totfact>
</mgrwt>
</event>
<event>
 4    1  0.9654646E-007  0.6913696E+03  0.7818608E-02  0.1003508E+00
          2   -1    0    0  501    0  0.00000000000E+00  0.00000000000E+00  0.21534559717E+04  0.21534559717E+04  0.25500000000E-02 0. -1.
         -2   -1    0    0    0  501 -0.00000000000E+00 -0.00000000000E+00 -0.43331445265E+03  0.43331445266E+03  0.25500000000E-02 0.  1.
    8880023    1    1    2    0    0 -0.20948651851E+03 -0.17237527971E+02 -0.14264664565E+03  0.70593201201E+03  0.65864270000E+03 0.  1.
    8880022    1    1    2    0    0  0.20948651851E+03  0.17237527971E+02  0.18627881646E+04  0.18808384123E+04  0.15294330000E+03 0.  0.
<mgrwt>
<rscale>  0 0.54138308E+03</rscale>
<asrwt>0</asrwt>
<pdfrwt beam="1">  1        2 0.33130092E+00 0.69136961E+03</pdfrwt>
<pdfrwt beam="2">  1       -2 0.66663761E-01 0.69136961E+03</pdfrwt>
<totfact> 0.11889922E+01</totfact>
</mgrwt>
</event>
<event>
 4    1  0.9654646E-007  0.7405883E+03  0.7818608E-02  0.9858237E-01
          2   -1    0    0  501    0  0.00000000000E+00  0.00000000000E+00  0.73545454931E+03  0.73545454931E+03  0.25500000000E-02 0. -1.
         -2   -1    0    0    0  501 -0.00000000000E+00 -0.00000000000E+00 -0.42847013054E+03  0.42847013055E+03  0.25500000000E-02 0.  1.
    8880023    1    1    2    0    0  0.16306910072E+03 -0.29676472778E+03  0.27870881779E+03  0.79129618137E+03  0.65864270000E+03 0. -1.
    8880022    1    1    2    0    0 -0.16306910072E+03  0.29676472778E+03  0.28275600974E+02  0.37262849849E+03  0.15294330000E+03 0. -1.
<mgrwt>
<rscale>  0 0.62328714E+03</rscale>
<asrwt>0</asrwt>
<pdfrwt beam="1">  1        2 0.11314685E+00 0.74058831E+03</pdfrwt>
<pdfrwt beam="2">  1       -2 0.65918482E-01 0.74058831E+03</pdfrwt>
<totfact> 0.82535507E+01</totfact>
</mgrwt>
</event>
<event>
 4    1  0.9654646E-007  0.7351003E+03  0.7818608E-02  0.9874456E-01
         -2   -1    0    0    0  501 -0.00000000000E+00  0.00000000000E+00  0.46992081110E+03  0.46992081110E+03  0.25500000000E-02 0.  1.
          2   -1    0    0  501    0  0.00000000000E+00 -0.00000000000E+00 -0.71968058439E+03  0.71968058439E+03  0.25500000000E-02 0. -1.
    8880023    1    1    2    0    0 -0.17859437059E+03  0.27325145854E+03  0.26267397703E+02  0.73556950130E+03  0.65864270000E+03 0. -1.
    8880022    1    1    2    0    0  0.17859437059E+03 -0.27325145854E+03 -0.27602717099E+03  0.45403189419E+03  0.15294330000E+03 0.  0.
<mgrwt>
<rscale>  0 0.61515373E+03</rscale>
<asrwt>0</asrwt>
<pdfrwt beam="1">  1        2 0.11072009E+00 0.73510034E+03</pdfrwt>
<pdfrwt beam="2">  1       -2 0.72295509E-01 0.73510034E+03</pdfrwt>
<totfact> 0.69435108E+01</totfact>
</mgrwt>
</event>
<event>
 4    1  0.9654646E-007  0.1548633E+04  0.7818608E-02  0.8876036E-01
         -2   -1    0    0    0  501 -0.00000000000E+00  0.00000000000E+00  0.14338122293E+04  0.14338122293E+04  0.25500000000E-02 0.  1.
          2   -1    0    0  501    0  0.00000000000E+00 -0.00000000000E+00 -0.29580511475E+04  0.29580511475E+04  0.25500000000E-02 0. -1.
    8880023    1    1    2    0    0  0.36579241376E+03 -0.13530153128E+04  0.74638593424E+03  0.17191150909E+04  0.65864270000E+03 0.  0.
    8880022    1    1    2    0    0 -0.36579241376E+03  0.13530153128E+04 -0.22706248524E+04  0.26727482860E+04  0.15294330000E+03 0.  0.
<mgrwt>
<rscale>  0 0.15127225E+04</rscale>
<asrwt>0</asrwt>
<pdfrwt beam="1">  1        2 0.45508479E+00 0.15486332E+04</pdfrwt>
<pdfrwt beam="2">  1       -2 0.22058650E+00 0.15486332E+04</pdfrwt>
<totfact> 0.16952078E-01</totfact>
</mgrwt>
</event>
<event>
 4    1  0.9654646E-007  0.7886856E+03  0.7818608E-02  0.9735816E-01
         -2   -1    0    0    0  501 -0.00000000000E+00  0.00000000000E+00  0.46204940571E+03  0.46204940572E+03  0.25500000000E-02 0.  1.
          2   -1    0    0  501    0  0.00000000000E+00 -0.00000000000E+00 -0.14857517489E+04  0.14857517489E+04  0.25500000000E-02 0. -1.
    8880023    1    1    2    0    0  0.10824635403E+03 -0.42011612296E+03  0.39166473816E+02  0.78965755164E+03  0.65864270000E+03 0.  1.
    8880022    1    1    2    0    0 -0.10824635403E+03  0.42011612296E+03 -0.10628688170E+04  0.11581436030E+04  0.15294330000E+03 0.  0.
<mgrwt>
<rscale>  0 0.68923777E+03</rscale>
<asrwt>0</asrwt>
<pdfrwt beam="1">  1        2 0.22857719E+00 0.78868564E+03</pdfrwt>
<pdfrwt beam="2">  1       -2 0.71084525E-01 0.78868564E+03</pdfrwt>
<totfact> 0.23682533E+01</totfact>
</mgrwt>
</event>
<event>
 4    1  0.9654646E-007  0.6730554E+03  0.7818608E-02  0.1013561E+00
         -2   -1    0    0    0  501 -0.00000000000E+00  0.00000000000E+00  0.85407513056E+03  0.85407513056E+03  0.25500000000E-02 0.  1.
          2   -1    0    0  501    0  0.00000000000E+00 -0.00000000000E+00 -0.38260099124E+03  0.38260099125E+03  0.25500000000E-02 0. -1.
    8880023    1    1    2    0    0  0.48178657344E+01  0.13845638857E+03  0.67045588062E+03  0.95000772496E+03  0.65864270000E+03 0.  1.
    8880022    1    1    2    0    0 -0.48178657344E+01 -0.13845638857E+03 -0.19898174130E+03  0.28666839685E+03  0.15294330000E+03 0.  0.
<mgrwt>
<rscale>  0 0.50083566E+03</rscale>
<asrwt>0</asrwt>
<pdfrwt beam="1">  1        2 0.58861692E-01 0.67305541E+03</pdfrwt>
<pdfrwt beam="2">  1       -2 0.13139617E+00 0.67305541E+03</pdfrwt>
<totfact> 0.35953041E+01</totfact>
</mgrwt>
</event>
<event>
 4    1  0.9654646E-007  0.6598086E+03  0.7818608E-02  0.1024353E+00
         -2   -1    0    0    0  501 -0.00000000000E+00  0.00000000000E+00  0.14201522931E+03  0.14201522934E+03  0.25500000000E-02 0.  1.
          2   -1    0    0  501    0  0.00000000000E+00 -0.00000000000E+00 -0.13461886188E+04  0.13461886188E+04  0.25500000000E-02 0. -1.
    8880023    1    1    2    0    0 -0.28754116781E+02 -0.26653565789E+02 -0.70923054766E+03  0.96868745620E+03  0.65864270000E+03 0.  1.
    8880022    1    1    2    0    0  0.28754116781E+02  0.26653565789E+02 -0.49494284182E+03  0.51951639193E+03  0.15294330000E+03 0.  0.
<mgrwt>
<rscale>  0 0.46147832E+03</rscale>
<asrwt>0</asrwt>
<pdfrwt beam="1">  1        2 0.20710593E+00 0.65980862E+03</pdfrwt>
<pdfrwt beam="2">  1       -2 0.21848498E-01 0.65980862E+03</pdfrwt>
<totfact> 0.28860996E+02</totfact>
</mgrwt>
</event>
<event>
 4    1  0.9654646E-007  0.6742391E+03  0.7818608E-02  0.1012790E+00
          2   -1    0    0  501    0  0.00000000000E+00  0.00000000000E+00  0.11868873876E+04  0.11868873876E+04  0.25500000000E-02 0. -1.
         -2   -1    0    0    0  501 -0.00000000000E+00 -0.00000000000E+00 -0.19225462837E+03  0.19225462839E+03  0.25500000000E-02 0.  1.
    8880023    1    1    2    0    0 -0.52299357898E+02  0.13436123458E+03  0.49299957943E+03  0.83525262991E+03  0.65864270000E+03 0.  1.
    8880022    1    1    2    0    0  0.52299357898E+02 -0.13436123458E+03  0.50163317981E+03  0.54388938608E+03  0.15294330000E+03 0.  0.
<mgrwt>
<rscale>  0 0.50380612E+03</rscale>
<asrwt>0</asrwt>
<pdfrwt beam="1">  1        2 0.18259806E+00 0.67423910E+03</pdfrwt>
<pdfrwt beam="2">  1       -2 0.29577635E-01 0.67423910E+03</pdfrwt>
<totfact> 0.20633949E+02</totfact>
</mgrwt>
</event>
<event>
 4    1  0.9654646E-007  0.6823449E+03  0.7818608E-02  0.1008027E+00
         -2   -1    0    0    0  501 -0.00000000000E+00  0.00000000000E+00  0.22220515793E+03  0.22220515794E+03  0.25500000000E-02 0.  1.
          2   -1    0    0  501    0  0.00000000000E+00 -0.00000000000E+00 -0.11813582620E+04  0.11813582620E+04  0.25500000000E-02 0. -1.
    8880023    1    1    2    0    0 -0.17178341015E+03  0.47695097193E+02 -0.38557139605E+03  0.78374732536E+03  0.65864270000E+03 0.  1.
    8880022    1    1    2    0    0  0.17178341015E+03 -0.47695097193E+02 -0.57358170801E+03  0.61981609456E+03  0.15294330000E+03 0.  0.
<mgrwt>
<rscale>  0 0.52266300E+03</rscale>
<asrwt>0</asrwt>
<pdfrwt beam="1">  1        2 0.18174742E+00 0.68234490E+03</pdfrwt>
<pdfrwt beam="2">  1       -2 0.34185410E-01 0.68234490E+03</pdfrwt>
<totfact> 0.15847242E+02</totfact>
</mgrwt>
</event>
<event>
 4    1  0.9654646E-007  0.9060740E+03  0.7818608E-02  0.9516350E-01
         -2   -1    0    0    0  501 -0.00000000000E+00  0.00000000000E+00  0.62798603083E+03  0.62798603083E+03  0.25500000000E-02 0.  1.
          2   -1    0    0  501    0  0.00000000000E+00 -0.00000000000E+00 -0.16743988804E+04  0.16743988804E+04  0.25500000000E-02 0. -1.
    8880023    1    1    2    0    0  0.31834961879E+03  0.53461516080E+03 -0.13237911799E+04  0.16041798977E+04  0.65864270000E+03 0. -1.
    8880022    1    1    2    0    0 -0.31834961879E+03 -0.53461516080E+03  0.27737833024E+03  0.69820501362E+03  0.15294330000E+03 0.  1.
<mgrwt>
<rscale>  0 0.83089032E+03</rscale>
<asrwt>0</asrwt>
<pdfrwt beam="1">  1        2 0.25759983E+00 0.90607398E+03</pdfrwt>
<pdfrwt beam="2">  1       -2 0.96613236E-01 0.90607398E+03</pdfrwt>
<totfact> 0.91488051E+00</totfact>
</mgrwt>
</event>
<event>
 4    1  0.9654646E-007  0.6658272E+03  0.7818608E-02  0.1018849E+00
         -2   -1    0    0    0  501 -0.00000000000E+00  0.00000000000E+00  0.57314032549E+03  0.57314032550E+03  0.25500000000E-02 0.  1.
          2   -1    0    0  501    0  0.00000000000E+00 -0.00000000000E+00 -0.14142747567E+04  0.14142747567E+04  0.25500000000E-02 0. -1.
    8880023    1    1    2    0    0  0.88720918567E+02 -0.40549546436E+02  0.37070849776E+03  0.76206998608E+03  0.65864270000E+03 0.  1.
    8880022    1    1    2    0    0 -0.88720918567E+02  0.40549546436E+02 -0.12118429289E+04  0.12253450961E+04  0.15294330000E+03 0.  0.
<mgrwt>
<rscale>  0 0.48104169E+03</rscale>
<asrwt>0</asrwt>
<pdfrwt beam="1">  1        2 0.21758073E+00 0.66582721E+03</pdfrwt>
<pdfrwt beam="2">  1       -2 0.88175435E-01 0.66582721E+03</pdfrwt>
<totfact> 0.16269041E+01</totfact>
</mgrwt>
</event>
<event>
 4    1  0.9654646E-007  0.7243883E+03  0.7818608E-02  0.9908008E-01
          2   -1    0    0  501    0  0.00000000000E+00  0.00000000000E+00  0.23608415383E+04  0.23608415383E+04  0.25500000000E-02 0. -1.
         -2   -1    0    0    0  501 -0.00000000000E+00 -0.00000000000E+00 -0.86701438613E+03  0.86701438613E+03  0.25500000000E-02 0.  1.
    8880023    1    1    2    0    0  0.23341204843E+03 -0.19091117524E+03 -0.70046603346E+03  0.10076661806E+04  0.65864270000E+03 0.  1.
    8880022    1    1    2    0    0 -0.23341204843E+03  0.19091117524E+03  0.21942931856E+04  0.22201897439E+04  0.15294330000E+03 0.  0.
<mgrwt>
<rscale>  0 0.59874765E+03</rscale>
<asrwt>0</asrwt>
<pdfrwt beam="1">  1        2 0.36320638E+00 0.72438834E+03</pdfrwt>
<pdfrwt beam="2">  1       -2 0.13338683E+00 0.72438834E+03</pdfrwt>
<totfact> 0.17921736E+00</totfact>
</mgrwt>
</event>
<event>
 4    1  0.9654646E-007  0.7147480E+03  0.7818608E-02  0.9940775E-01
          2   -1    0    0  501    0  0.00000000000E+00  0.00000000000E+00  0.36856758278E+03  0.36856758279E+03  0.25500000000E-02 0. -1.
         -2   -1    0    0    0  501 -0.00000000000E+00 -0.00000000000E+00 -0.11886838858E+04  0.11886838858E+04  0.25500000000E-02 0.  1.
    8880023    1    1    2    0    0  0.85885435597E+02  0.26396637261E+03 -0.97143572508E+03  0.12060481450E+04  0.65864270000E+03 0.  1.
    8880022    1    1    2    0    0 -0.85885435597E+02 -0.26396637261E+03  0.15131942211E+03  0.35120332351E+03  0.15294330000E+03 0. -1.
<mgrwt>
<rscale>  0 0.58325225E+03</rscale>
<asrwt>0</asrwt>
<pdfrwt beam="1">  1        2 0.56702705E-01 0.71474804E+03</pdfrwt>
<pdfrwt beam="2">  1       -2 0.18287444E+00 0.71474804E+03</pdfrwt>
<totfact> 0.15396475E+01</totfact>
</mgrwt>
</event>
<event>
 4    1  0.9654646E-007  0.9797790E+03  0.7818608E-02  0.9408504E-01
          2   -1    0    0  501    0  0.00000000000E+00  0.00000000000E+00  0.10693188174E+04  0.10693188174E+04  0.25500000000E-02 0. -1.
         -2   -1    0    0    0  501 -0.00000000000E+00 -0.00000000000E+00 -0.13538370249E+04  0.13538370249E+04  0.25500000000E-02 0.  1.
    8880023    1    1    2    0    0  0.72481212701E+03  0.28357512410E+02 -0.99494846542E+03  0.13963844109E+04  0.65864270000E+03 0.  1.
    8880022    1    1    2    0    0 -0.72481212701E+03 -0.28357512410E+02  0.71043025795E+03  0.10267714314E+04  0.15294330000E+03 0.  0.
<mgrwt>
<rscale>  0 0.91379096E+03</rscale>
<asrwt>0</asrwt>
<pdfrwt beam="1">  1        2 0.16451059E+00 0.97977904E+03</pdfrwt>
<pdfrwt beam="2">  1       -2 0.20828262E+00 0.97977904E+03</pdfrwt>
<totfact> 0.26606986E+00</totfact>
</mgrwt>
</event>
<event>
 4    1  0.9654646E-007  0.7131934E+03  0.7818608E-02  0.9946328E-01
         -2   -1    0    0    0  501 -0.00000000000E+00  0.00000000000E+00  0.15792472067E+03  0.15792472069E+03  0.25500000000E-02 0.  1.
          2   -1    0    0  501    0  0.00000000000E+00 -0.00000000000E+00 -0.34258733688E+04  0.34258733688E+04  0.25500000000E-02 0. -1.
    8880023    1    1    2    0    0  0.42428563427E+02 -0.27024876141E+03 -0.70871755368E+03  0.10054478371E+04  0.65864270000E+03 0.  1.
    8880022    1    1    2    0    0 -0.42428563427E+02  0.27024876141E+03 -0.25592310945E+04  0.25783502524E+04  0.15294330000E+03 0.  0.
<mgrwt>
<rscale>  0 0.58067604E+03</rscale>
<asrwt>0</asrwt>
<pdfrwt beam="1">  1        2 0.52705739E+00 0.71319337E+03</pdfrwt>
<pdfrwt beam="2">  1       -2 0.24296113E-01 0.71319337E+03</pdfrwt>
<totfact> 0.14952866E+01</totfact>
</mgrwt>
</event>
<event>
 4    1  0.9654646E-007  0.6685214E+03  0.7818608E-02  0.1016746E+00
          2   -1    0    0  501    0  0.00000000000E+00  0.00000000000E+00  0.64614665124E+03  0.64614665125E+03  0.25500000000E-02 0. -1.
         -2   -1    0    0    0  501 -0.00000000000E+00 -0.00000000000E+00 -0.61443691621E+03  0.61443691621E+03  0.25500000000E-02 0.  1.
    8880023    1    1    2    0    0  0.80594141948E+02  0.81334185276E+02 -0.40658829777E+03  0.78245441756E+03  0.65864270000E+03 0.  1.
    8880022    1    1    2    0    0 -0.80594141948E+02 -0.81334185276E+02  0.43829803280E+03  0.47812914990E+03  0.15294330000E+03 0.  0.
<mgrwt>
<rscale>  0 0.48879476E+03</rscale>
<asrwt>0</asrwt>
<pdfrwt beam="1">  1        2 0.99407177E-01 0.66852141E+03</pdfrwt>
<pdfrwt beam="2">  1       -2 0.94528756E-01 0.66852141E+03</pdfrwt>
<totfact> 0.43534357E+01</totfact>
</mgrwt>
</event>
<event>
 4    1  0.9654646E-007  0.9801960E+03  0.7818608E-02  0.9407938E-01
         -2   -1    0    0    0  501 -0.00000000000E+00  0.00000000000E+00  0.20545910166E+03  0.20545910167E+03  0.25500000000E-02 0.  1.
          2   -1    0    0  501    0  0.00000000000E+00 -0.00000000000E+00 -0.43529042509E+04  0.43529042509E+04  0.25500000000E-02 0. -1.
    8880023    1    1    2    0    0  0.72592719750E+03  0.19412200757E+01 -0.13765437169E+04  0.16898688929E+04  0.65864270000E+03 0.  0.
    8880022    1    1    2    0    0 -0.72592719750E+03 -0.19412200757E+01 -0.27709014324E+04  0.28684944597E+04  0.15294330000E+03 0.  0.
<mgrwt>
<rscale>  0 0.91425244E+03</rscale>
<asrwt>0</asrwt>
<pdfrwt beam="1">  1        2 0.66967751E+00 0.98019604E+03</pdfrwt>
<pdfrwt beam="2">  1       -2 0.31609096E-01 0.98019604E+03</pdfrwt>
<totfact> 0.16930212E+00</totfact>
</mgrwt>
</event>
<event>
 4    1  0.9654646E-007  0.6747577E+03  0.7818608E-02  0.1012459E+00
         -2   -1    0    0    0  501 -0.00000000000E+00  0.00000000000E+00  0.22019913292E+03  0.22019913294E+03  0.25500000000E-02 0.  1.
          2   -1    0    0  501    0  0.00000000000E+00 -0.00000000000E+00 -0.10179756015E+04  0.10179756015E+04  0.25500000000E-02 0. -1.
    8880023    1    1    2    0    0  0.14254463797E+03  0.34186608357E+02 -0.39182849905E+03  0.78027397556E+03  0.65864270000E+03 0.  1.
    8880022    1    1    2    0    0 -0.14254463797E+03 -0.34186608357E+02 -0.40594796951E+03  0.45790075886E+03  0.15294330000E+03 0.  0.
<mgrwt>
<rscale>  0 0.50508758E+03</rscale>
<asrwt>0</asrwt>
<pdfrwt beam="1">  1        2 0.15661163E+00 0.67475766E+03</pdfrwt>
<pdfrwt beam="2">  1       -2 0.33876790E-01 0.67475766E+03</pdfrwt>
<totfact> 0.20295332E+02</totfact>
</mgrwt>
</event>
<event>
 4    1  0.9654646E-007  0.6798327E+03  0.7818608E-02  0.1009418E+00
          2   -1    0    0  501    0  0.00000000000E+00  0.00000000000E+00  0.11672440349E+04  0.11672440349E+04  0.25500000000E-02 0. -1.
         -2   -1    0    0    0  501 -0.00000000000E+00 -0.00000000000E+00 -0.29534986775E+03  0.29534986776E+03  0.25500000000E-02 0.  1.
    8880023    1    1    2    0    0  0.56480932731E+02 -0.15865731473E+03  0.13727202180E+03  0.69355320885E+03  0.65864270000E+03 0.  1.
    8880022    1    1    2    0    0 -0.56480932731E+02  0.15865731473E+03  0.73462214535E+03  0.76904069381E+03  0.15294330000E+03 0.  0.
<mgrwt>
<rscale>  0 0.51706411E+03</rscale>
<asrwt>0</asrwt>
<pdfrwt beam="1">  1        2 0.17957601E+00 0.67983266E+03</pdfrwt>
<pdfrwt beam="2">  1       -2 0.45438440E-01 0.67983266E+03</pdfrwt>
<totfact> 0.92969412E+01</totfact>
</mgrwt>
</event>
<event>
 4    1  0.9654646E-007  0.7119968E+03  0.7818608E-02  0.9950659E-01
          2   -1    0    0  501    0  0.00000000000E+00  0.00000000000E+00  0.72063525740E+03  0.72063525740E+03  0.25500000000E-02 0. -1.
         -2   -1    0    0    0  501 -0.00000000000E+00 -0.00000000000E+00 -0.63748224973E+03  0.63748224973E+03  0.25500000000E-02 0.  1.
    8880023    1    1    2    0    0 -0.25003883195E+03  0.10300431143E+03 -0.37488154429E+03  0.80465873771E+03  0.65864270000E+03 0.  0.
    8880022    1    1    2    0    0  0.25003883195E+03 -0.10300431143E+03  0.45803455196E+03  0.55345876943E+03  0.15294330000E+03 0.  0.
<mgrwt>
<rscale>  0 0.57867705E+03</rscale>
<asrwt>0</asrwt>
<pdfrwt beam="1">  1        2 0.11086696E+00 0.71199685E+03</pdfrwt>
<pdfrwt beam="2">  1       -2 0.98074192E-01 0.71199685E+03</pdfrwt>
<totfact> 0.34717430E+01</totfact>
</mgrwt>
</event>
<event>
 4    1  0.9654646E-007  0.7410985E+03  0.7818608E-02  0.9856759E-01
         -2   -1    0    0    0  501 -0.00000000000E+00  0.00000000000E+00  0.83122173094E+03  0.83122173094E+03  0.25500000000E-02 0.  1.
          2   -1    0    0  501    0  0.00000000000E+00 -0.00000000000E+00 -0.65845234466E+03  0.65845234466E+03  0.25500000000E-02 0. -1.
    8880023    1    1    2    0    0  0.29771959508E+03 -0.16364526993E+03  0.57752257994E+03  0.93955269585E+03  0.65864270000E+03 0.  1.
    8880022    1    1    2    0    0 -0.29771959508E+03  0.16364526993E+03 -0.40475319367E+03  0.55012137975E+03  0.15294330000E+03 0.  0.
<mgrwt>
<rscale>  0 0.62403493E+03</rscale>
<asrwt>0</asrwt>
<pdfrwt beam="1">  1        2 0.10130036E+00 0.74109847E+03</pdfrwt>
<pdfrwt beam="2">  1       -2 0.12788027E+00 0.74109847E+03</pdfrwt>
<totfact> 0.20323435E+01</totfact>
</mgrwt>
</event>
<event>
 4    1  0.9654646E-007  0.6837360E+03  0.7818608E-02  0.1007285E+00
          2   -1    0    0  501    0  0.00000000000E+00  0.00000000000E+00  0.37525372285E+03  0.37525372286E+03  0.25500000000E-02 0. -1.
         -2   -1    0    0    0  501 -0.00000000000E+00 -0.00000000000E+00 -0.87724245680E+03  0.87724245681E+03  0.25500000000E-02 0.  1.
    8880023    1    1    2    0    0 -0.18171339702E+03  0.25787548901E+02 -0.67245750470E+03  0.95900680822E+03  0.65864270000E+03 0.  0.
    8880022    1    1    2    0    0  0.18171339702E+03 -0.25787548901E+02  0.17046877074E+03  0.29348937144E+03  0.15294330000E+03 0.  0.
<mgrwt>
<rscale>  0 0.52568239E+03</rscale>
<asrwt>0</asrwt>
<pdfrwt beam="1">  1        2 0.57731342E-01 0.68373603E+03</pdfrwt>
<pdfrwt beam="2">  1       -2 0.13496038E+00 0.68373603E+03</pdfrwt>
<totfact> 0.34299413E+01</totfact>
</mgrwt>
</event>
<event>
 4    1  0.9654646E-007  0.7579148E+03  0.7818608E-02  0.9810536E-01
          2   -1    0    0  501    0  0.00000000000E+00  0.00000000000E+00  0.14527222951E+03  0.14527222954E+03  0.25500000000E-02 0. -1.
         -2   -1    0    0    0  501 -0.00000000000E+00 -0.00000000000E+00 -0.26133669463E+04  0.26133669463E+04  0.25500000000E-02 0.  1.
    8880023    1    1    2    0    0 -0.37402508622E+03 -0.27016342109E+02 -0.20048272102E+04  0.21433074900E+04  0.65864270000E+03 0.  1.
    8880022    1    1    2    0    0  0.37402508622E+03  0.27016342109E+02 -0.46326750657E+03  0.61533168578E+03  0.15294330000E+03 0. -1.
<mgrwt>
<rscale>  0 0.64800174E+03</rscale>
<asrwt>0</asrwt>
<pdfrwt beam="1">  1        2 0.22349576E-01 0.75791481E+03</pdfrwt>
<pdfrwt beam="2">  1       -2 0.40205642E+00 0.75791481E+03</pdfrwt>
<totfact> 0.19029157E+00</totfact>
</mgrwt>
</event>
<event>
 4    1  0.9654646E-007  0.7459935E+03  0.7818608E-02  0.9842820E-01
         -2   -1    0    0    0  501 -0.00000000000E+00  0.00000000000E+00  0.64133058518E+03  0.64133058518E+03  0.25500000000E-02 0.  1.
          2   -1    0    0  501    0  0.00000000000E+00 -0.00000000000E+00 -0.13936964738E+04  0.13936964738E+04  0.25500000000E-02 0. -1.
    8880023    1    1    2    0    0  0.24314566333E+03  0.25214328106E+03  0.38192085155E+03  0.83807505087E+03  0.65864270000E+03 0.  1.
    8880022    1    1    2    0    0 -0.24314566333E+03 -0.25214328106E+03 -0.11342867402E+04  0.11969520081E+04  0.15294330000E+03 0.  0.
<mgrwt>
<rscale>  0 0.63114330E+03</rscale>
<asrwt>0</asrwt>
<pdfrwt beam="1">  1        2 0.21441484E+00 0.74599347E+03</pdfrwt>
<pdfrwt beam="2">  1       -2 0.98666244E-01 0.74599347E+03</pdfrwt>
<totfact> 0.12728875E+01</totfact>
</mgrwt>
</event>
<event>
 4    1  0.1247202E-006  0.7816549E+03  0.7818608E-02  0.9751964E-01
          2   -1    0    0  501    0  0.00000000000E+00  0.00000000000E+00  0.13521154236E+04  0.13521154236E+04  0.25500000000E-02 0. -1.
         -2   -1    0    0    0  501 -0.00000000000E+00 -0.00000000000E+00 -0.16529949275E+04  0.16529949275E+04  0.25500000000E-02 0.  1.
    8880023    1    1    2    0    0  0.28300360287E+03 -0.31158163440E+03 -0.15184287180E+04  0.17078085759E+04  0.65864270000E+03 0.  1.
    8880022    1    1    2    0    0 -0.28300360287E+03  0.31158163440E+03  0.12175492141E+04  0.12973017752E+04  0.15294330000E+03 0.  0.
<mgrwt>
<rscale>  0 0.68005400E+03</rscale>
<asrwt>0</asrwt>
<pdfrwt beam="1">  1        2 0.20801776E+00 0.78165489E+03</pdfrwt>
<pdfrwt beam="2">  1       -2 0.25430691E+00 0.78165489E+03</pdfrwt>
<totfact> 0.96416184E-01</totfact>
</mgrwt>
</event>
<event>
 4    1  0.9654646E-007  0.8183491E+03  0.7818608E-02  0.9672442E-01
          2   -1    0    0  501    0  0.00000000000E+00  0.00000000000E+00  0.26783189636E+04  0.26783189636E+04  0.25500000000E-02 0. -1.
         -2   -1    0    0    0  501 -0.00000000000E+00 -0.00000000000E+00 -0.31317591642E+03  0.31317591643E+03  0.25500000000E-02 0.  1.
    8880023    1    1    2    0    0  0.59001723562E+02 -0.48208273946E+03  0.31143891911E+03  0.87560800457E+03  0.65864270000E+03 0.  0.
    8880022    1    1    2    0    0 -0.59001723562E+02  0.48208273946E+03  0.20537041281E+04  0.21158868755E+04  0.15294330000E+03 0.  0.
<mgrwt>
<rscale>  0 0.72681580E+03</rscale>
<asrwt>0</asrwt>
<pdfrwt beam="1">  1        2 0.41204907E+00 0.81834906E+03</pdfrwt>
<pdfrwt beam="2">  1       -2 0.48180910E-01 0.81834906E+03</pdfrwt>
<totfact> 0.11627074E+01</totfact>
</mgrwt>
</event>
<event>
 4    1  0.9654646E-007  0.1607997E+04  0.7818608E-02  0.8836915E-01
         -2   -1    0    0    0  501 -0.00000000000E+00  0.00000000000E+00  0.23150339313E+04  0.23150339313E+04  0.25500000000E-02 0.  1.
          2   -1    0    0  501    0  0.00000000000E+00 -0.00000000000E+00 -0.14147775335E+04  0.14147775335E+04  0.25500000000E-02 0. -1.
    8880023    1    1    2    0    0 -0.11917238156E+04  0.85535816129E+03  0.14407448592E+04  0.21590273718E+04  0.65864270000E+03 0.  1.
    8880022    1    1    2    0    0  0.11917238156E+04 -0.85535816129E+03 -0.54048846136E+03  0.15707840929E+04  0.15294330000E+03 0. -1.
<mgrwt>
<rscale>  0 0.15736282E+04</rscale>
<asrwt>0</asrwt>
<pdfrwt beam="1">  1        2 0.21765808E+00 0.16079967E+04</pdfrwt>
<pdfrwt beam="2">  1       -2 0.35615907E+00 0.16079967E+04</pdfrwt>
<totfact> 0.18812943E-01</totfact>
</mgrwt>
</event>
<event>
 4    1  0.9654646E-007  0.8606036E+03  0.7818608E-02  0.9592491E-01
          2   -1    0    0  501    0  0.00000000000E+00  0.00000000000E+00  0.98905376551E+03  0.98905376552E+03  0.25500000000E-02 0. -1.
         -2   -1    0    0    0  501 -0.00000000000E+00 -0.00000000000E+00 -0.63753085132E+03  0.63753085132E+03  0.25500000000E-02 0.  1.
    8880023    1    1    2    0    0 -0.11983121815E+03 -0.54080389158E+03  0.54684855752E+03  0.10196479398E+04  0.65864270000E+03 0.  0.
    8880022    1    1    2    0    0  0.11983121815E+03  0.54080389158E+03 -0.19532564332E+03  0.60693667705E+03  0.15294330000E+03 0. -1.
<mgrwt>
<rscale>  0 0.77795199E+03</rscale>
<asrwt>0</asrwt>
<pdfrwt beam="1">  1        2 0.15216212E+00 0.86060361E+03</pdfrwt>
<pdfrwt beam="2">  1       -2 0.98081670E-01 0.86060361E+03</pdfrwt>
<totfact> 0.22262673E+01</totfact>
</mgrwt>
</event>
<event>
 4    1  0.9654646E-007  0.7604527E+03  0.7818608E-02  0.9803937E-01
         -2   -1    0    0    0  501 -0.00000000000E+00  0.00000000000E+00  0.22631611272E+03  0.22631611274E+03  0.25500000000E-02 0.  1.
          2   -1    0    0  501    0  0.00000000000E+00 -0.00000000000E+00 -0.18362288643E+04  0.18362288643E+04  0.25500000000E-02 0. -1.
    8880023    1    1    2    0    0 -0.27564684290E+03  0.26171909452E+03 -0.58708271598E+03  0.96070515149E+03  0.65864270000E+03 0.  1.
    8880022    1    1    2    0    0  0.27564684290E+03 -0.26171909452E+03 -0.10228300356E+04  0.11018398256E+04  0.15294330000E+03 0.  0.
<mgrwt>
<rscale>  0 0.65151691E+03</rscale>
<asrwt>0</asrwt>
<pdfrwt beam="1">  1        2 0.28249674E+00 0.76045268E+03</pdfrwt>
<pdfrwt beam="2">  1       -2 0.34817865E-01 0.76045268E+03</pdfrwt>
<totfact> 0.65294930E+01</totfact>
</mgrwt>
</event>
<event>
 4    1  0.9654646E-007  0.7884423E+03  0.7818608E-02  0.9736367E-01
          2   -1    0    0  501    0  0.00000000000E+00  0.00000000000E+00  0.28094124933E+04  0.28094124933E+04  0.25500000000E-02 0. -1.
         -2   -1    0    0    0  501 -0.00000000000E+00 -0.00000000000E+00 -0.19366156393E+03  0.19366156395E+03  0.25500000000E-02 0.  1.
    8880023    1    1    2    0    0 -0.12411415541E+03  0.41524299198E+03  0.77405414423E+03  0.11048986788E+04  0.65864270000E+03 0.  1.
    8880022    1    1    2    0    0  0.12411415541E+03 -0.41524299198E+03  0.18416967852E+04  0.18981753785E+04  0.15294330000E+03 0.  0.
<mgrwt>
<rscale>  0 0.68892194E+03</rscale>
<asrwt>0</asrwt>
<pdfrwt beam="1">  1        2 0.43221728E+00 0.78844231E+03</pdfrwt>
<pdfrwt beam="2">  1       -2 0.29794089E-01 0.78844231E+03</pdfrwt>
<totfact> 0.24799562E+01</totfact>
</mgrwt>
</event>
<event>
 4    1  0.9654646E-007  0.9386298E+03  0.7818608E-02  0.9466666E-01
          2   -1    0    0  501    0  0.00000000000E+00  0.00000000000E+00  0.16872000615E+04  0.16872000615E+04  0.25500000000E-02 0. -1.
         -2   -1    0    0    0  501 -0.00000000000E+00 -0.00000000000E+00 -0.80452191948E+03  0.80452191948E+03  0.25500000000E-02 0.  1.
    8880023    1    1    2    0    0 -0.66022329804E+03 -0.10639994294E+03 -0.41313165845E+03  0.10255260721E+04  0.65864270000E+03 0.  0.
    8880022    1    1    2    0    0  0.66022329804E+03  0.10639994294E+03  0.12958098005E+04  0.14661959089E+04  0.15294330000E+03 0.  0.
<mgrwt>
<rscale>  0 0.86786687E+03</rscale>
<asrwt>0</asrwt>
<pdfrwt beam="1">  1        2 0.25956924E+00 0.93862983E+03</pdfrwt>
<pdfrwt beam="2">  1       -2 0.12377260E+00 0.93862983E+03</pdfrwt>
<totfact> 0.49126774E+00</totfact>
</mgrwt>
</event>
<event>
 4    1  0.9654646E-007  0.1040392E+04  0.7818608E-02  0.9330522E-01
          2   -1    0    0  501    0  0.00000000000E+00  0.00000000000E+00  0.26989288668E+04  0.26989288668E+04  0.25500000000E-02 0. -1.
         -2   -1    0    0    0  501 -0.00000000000E+00 -0.00000000000E+00 -0.36097395397E+03  0.36097395398E+03  0.25500000000E-02 0.  1.
    8880023    1    1    2    0    0 -0.69452068813E+03 -0.40773325817E+03  0.18011163886E+04  0.20800086172E+04  0.65864270000E+03 0.  0.
    8880022    1    1    2    0    0  0.69452068813E+03  0.40773325817E+03  0.53683852419E+03  0.97989420354E+03  0.15294330000E+03 0.  0.
<mgrwt>
<rscale>  0 0.98020900E+03</rscale>
<asrwt>0</asrwt>
<pdfrwt beam="1">  1        2 0.41521983E+00 0.10403920E+04</pdfrwt>
<pdfrwt beam="2">  1       -2 0.55534453E-01 0.10403920E+04</pdfrwt>
<totfact> 0.81905384E+00</totfact>
</mgrwt>
</event>
<event>
 4    1  0.9654646E-007  0.8580299E+03  0.7818608E-02  0.9597078E-01
         -2   -1    0    0    0  501 -0.00000000000E+00  0.00000000000E+00  0.28839099646E+03  0.28839099647E+03  0.25500000000E-02 0.  1.
          2   -1    0    0  501    0  0.00000000000E+00 -0.00000000000E+00 -0.30921976859E+04  0.30921976859E+04  0.25500000000E-02 0. -1.
    8880023    1    1    2    0    0  0.32558832342E+03  0.44316735331E+03 -0.47066524210E+03  0.97864244531E+03  0.65864270000E+03 0.  1.
    8880022    1    1    2    0    0 -0.32558832342E+03 -0.44316735331E+03 -0.23331414474E+04  0.24019462371E+04  0.15294330000E+03 0.  0.
<mgrwt>
<rscale>  0 0.77489908E+03</rscale>
<asrwt>0</asrwt>
<pdfrwt beam="1">  1        2 0.47572270E+00 0.85802987E+03</pdfrwt>
<pdfrwt beam="2">  1       -2 0.44367848E-01 0.85802987E+03</pdfrwt>
<totfact> 0.76813162E+00</totfact>
</mgrwt>
</event>
<event>
 4    1  0.9654646E-007  0.9223962E+03  0.7818608E-02  0.9490995E-01
          2   -1    0    0  501    0  0.00000000000E+00  0.00000000000E+00  0.16943229787E+04  0.16943229787E+04  0.25500000000E-02 0. -1.
         -2   -1    0    0    0  501 -0.00000000000E+00 -0.00000000000E+00 -0.69441212082E+03  0.69441212083E+03  0.25500000000E-02 0.  1.
    8880023    1    1    2    0    0  0.63558929430E+03 -0.11415284288E+03 -0.26551868208E+03  0.95985155069E+03  0.65864270000E+03 0.  0.
    8880022    1    1    2    0    0 -0.63558929430E+03  0.11415284288E+03  0.12654295400E+04  0.14288835489E+04  0.15294330000E+03 0.  0.
<mgrwt>
<rscale>  0 0.84951020E+03</rscale>
<asrwt>0</asrwt>
<pdfrwt beam="1">  1        2 0.26066507E+00 0.92239624E+03</pdfrwt>
<pdfrwt beam="2">  1       -2 0.10683263E+00 0.92239624E+03</pdfrwt>
<totfact> 0.70033731E+00</totfact>
</mgrwt>
</event>
<event>
 4    1  0.9654646E-007  0.7624309E+03  0.7818608E-02  0.9798854E-01
         -2   -1    0    0    0  501 -0.00000000000E+00  0.00000000000E+00  0.12132424723E+04  0.12132424723E+04  0.25500000000E-02 0.  1.
          2   -1    0    0  501    0  0.00000000000E+00 -0.00000000000E+00 -0.10946877446E+04  0.10946877446E+04  0.25500000000E-02 0. -1.
    8880023    1    1    2    0    0 -0.37538030274E+03  0.81119039838E+02  0.10449259675E+04  0.12935111728E+04  0.65864270000E+03 0.  1.
    8880022    1    1    2    0    0  0.37538030274E+03 -0.81119039838E+02 -0.92637123980E+03  0.10144190442E+04  0.15294330000E+03 0.  0.
<mgrwt>
<rscale>  0 0.65424063E+03</rscale>
<asrwt>0</asrwt>
<pdfrwt beam="1">  1        2 0.16841350E+00 0.76243090E+03</pdfrwt>
<pdfrwt beam="2">  1       -2 0.18665269E+00 0.76243090E+03</pdfrwt>
<totfact> 0.36617777E+00</totfact>
</mgrwt>
</event>
<event>
 4    1  0.9654646E-007  0.7615001E+03  0.7818608E-02  0.9801239E-01
          2   -1    0    0  501    0  0.00000000000E+00  0.00000000000E+00  0.11846218115E+04  0.11846218115E+04  0.25500000000E-02 0. -1.
         -2   -1    0    0    0  501 -0.00000000000E+00 -0.00000000000E+00 -0.76997591296E+03  0.76997591296E+03  0.25500000000E-02 0.  1.
    8880023    1    1    2    0    0 -0.35908288080E+03 -0.13088830872E+03 -0.52755714105E+03  0.92639031082E+03  0.65864270000E+03 0.  1.
    8880022    1    1    2    0    0  0.35908288080E+03  0.13088830872E+03  0.94220303958E+03  0.10282074136E+04  0.15294330000E+03 0.  0.
<mgrwt>
<rscale>  0 0.65296086E+03</rscale>
<asrwt>0</asrwt>
<pdfrwt beam="1">  1        2 0.18224951E+00 0.76150015E+03</pdfrwt>
<pdfrwt beam="2">  1       -2 0.11845783E+00 0.76150015E+03</pdfrwt>
<totfact> 0.10800631E+01</totfact>
</mgrwt>
</event>
<event>
 4    1  0.9654646E-007  0.8101371E+03  0.7818608E-02  0.9689291E-01
          2   -1    0    0  501    0  0.00000000000E+00  0.00000000000E+00  0.53470367315E+03  0.53470367316E+03  0.25500000000E-02 0. -1.
         -2   -1    0    0    0  501 -0.00000000000E+00 -0.00000000000E+00 -0.85267593132E+03  0.85267593133E+03  0.25500000000E-02 0.  1.
    8880023    1    1    2    0    0 -0.47033181393E+03 -0.36055235810E+02 -0.36638645112E+03  0.88913510394E+03  0.65864270000E+03 0.  0.
    8880022    1    1    2    0    0  0.47033181393E+03  0.36055235810E+02  0.48414192953E+02  0.49824450054E+03  0.15294330000E+03 0.  0.
<mgrwt>
<rscale>  0 0.71657975E+03</rscale>
<asrwt>0</asrwt>
<pdfrwt beam="1">  1        2 0.82262103E-01 0.81013715E+03</pdfrwt>
<pdfrwt beam="2">  1       -2 0.13118091E+00 0.81013715E+03</pdfrwt>
<totfact> 0.24352794E+01</totfact>
</mgrwt>
</event>
<event>
 4    1  0.9654646E-007  0.6789791E+03  0.7818608E-02  0.1009907E+00
          2   -1    0    0  501    0  0.00000000000E+00  0.00000000000E+00  0.18082316750E+03  0.18082316752E+03  0.25500000000E-02 0. -1.
         -2   -1    0    0    0  501 -0.00000000000E+00 -0.00000000000E+00 -0.15194124267E+04  0.15194124267E+04  0.25500000000E-02 0.  1.
    8880023    1    1    2    0    0  0.14992209659E+03 -0.68744096786E+02 -0.13073413658E+04  0.14731442696E+04  0.65864270000E+03 0.  1.
    8880022    1    1    2    0    0 -0.14992209659E+03  0.68744096786E+02 -0.31247893392E+02  0.22709132468E+03  0.15294330000E+03 0.  0.
<mgrwt>
<rscale>  0 0.51511561E+03</rscale>
<asrwt>0</asrwt>
<pdfrwt beam="1">  1        2 0.27818950E-01 0.67897908E+03</pdfrwt>
<pdfrwt beam="2">  1       -2 0.23375575E+00 0.67897908E+03</pdfrwt>
<totfact> 0.16168512E+01</totfact>
</mgrwt>
</event>
<event>
 4    1  0.9654646E-007  0.7317312E+03  0.7818608E-02  0.9884723E-01
         -2   -1    0    0    0  501 -0.00000000000E+00  0.00000000000E+00  0.43726418391E+03  0.43726418392E+03  0.25500000000E-02 0.  1.
          2   -1    0    0  501    0  0.00000000000E+00 -0.00000000000E+00 -0.12297954847E+04  0.12297954847E+04  0.25500000000E-02 0. -1.
    8880023    1    1    2    0    0  0.13448453239E+03 -0.28902297861E+03 -0.10135553891E+04  0.12500900387E+04  0.65864270000E+03 0. -1.
    8880022    1    1    2    0    0 -0.13448453239E+03  0.28902297861E+03  0.22102408839E+03  0.41696962993E+03  0.15294330000E+03 0.  0.
<mgrwt>
<rscale>  0 0.61007420E+03</rscale>
<asrwt>0</asrwt>
<pdfrwt beam="1">  1        2 0.18919930E+00 0.73173122E+03</pdfrwt>
<pdfrwt beam="2">  1       -2 0.67271413E-01 0.73173122E+03</pdfrwt>
<totfact> 0.37614822E+01</totfact>
</mgrwt>
</event>
<event>
 4    1  0.9654646E-007  0.1289471E+04  0.7818608E-02  0.9074706E-01
          2   -1    0    0  501    0  0.00000000000E+00  0.00000000000E+00  0.99059389659E+03  0.99059389659E+03  0.25500000000E-02 0. -1.
         -2   -1    0    0    0  501 -0.00000000000E+00 -0.00000000000E+00 -0.17903034119E+04  0.17903034119E+04  0.25500000000E-02 0.  1.
    8880023    1    1    2    0    0 -0.10829105731E+04 -0.23712677355E+03 -0.10153504596E+04  0.16412407435E+04  0.65864270000E+03 0.  0.
    8880022    1    1    2    0    0  0.10829105731E+04  0.23712677355E+03  0.21564094428E+03  0.11396565650E+04  0.15294330000E+03 0.  0.
<mgrwt>
<rscale>  0 0.12445801E+04</rscale>
<asrwt>0</asrwt>
<pdfrwt beam="1">  1        2 0.15239906E+00 0.12894707E+04</pdfrwt>
<pdfrwt beam="2">  1       -2 0.27543129E+00 0.12894707E+04</pdfrwt>
<totfact> 0.11089310E+00</totfact>
</mgrwt>
</event>
<event>
 4    1  0.9654646E-007  0.6675911E+03  0.7818608E-02  0.1017452E+00
         -2   -1    0    0    0  501 -0.00000000000E+00  0.00000000000E+00  0.12448905322E+03  0.12448905325E+03  0.25500000000E-02 0.  1.
          2   -1    0    0  501    0  0.00000000000E+00 -0.00000000000E+00 -0.26775254189E+04  0.26775254189E+04  0.25500000000E-02 0. -1.
    8880023    1    1    2    0    0  0.71250762682E+02  0.82407213349E+02 -0.81343900632E+03  0.10523121416E+04  0.65864270000E+03 0.  1.
    8880022    1    1    2    0    0 -0.71250762682E+02 -0.82407213349E+02 -0.17395973593E+04  0.17497023306E+04  0.15294330000E+03 0.  0.
<mgrwt>
<rscale>  0 0.48617436E+03</rscale>
<asrwt>0</asrwt>
<pdfrwt beam="1">  1        2 0.41192694E+00 0.66759106E+03</pdfrwt>
<pdfrwt beam="2">  1       -2 0.19152164E-01 0.66759106E+03</pdfrwt>
<totfact> 0.66615267E+01</totfact>
</mgrwt>
</event>
<event>
 4    1  0.9654646E-007  0.8297209E+03  0.7818608E-02  0.9649876E-01
          2   -1    0    0  501    0  0.00000000000E+00  0.00000000000E+00  0.88296643333E+03  0.88296643333E+03  0.25500000000E-02 0. -1.
         -2   -1    0    0    0  501 -0.00000000000E+00 -0.00000000000E+00 -0.76415468155E+03  0.76415468155E+03  0.25500000000E-02 0.  1.
    8880023    1    1    2    0    0 -0.49998685791E+03 -0.68115863245E+02  0.52470889673E+03  0.98171088487E+03  0.65864270000E+03 0.  1.
    8880022    1    1    2    0    0  0.49998685791E+03  0.68115863245E+02 -0.40589714495E+03  0.66541023001E+03  0.15294330000E+03 0.  0.
<mgrwt>
<rscale>  0 0.74081234E+03</rscale>
<asrwt>0</asrwt>
<pdfrwt beam="1">  1        2 0.13584099E+00 0.82972094E+03</pdfrwt>
<pdfrwt beam="2">  1       -2 0.11756226E+00 0.82972094E+03</pdfrwt>
<totfact> 0.16951200E+01</totfact>
</mgrwt>
</event>
<event>
 4    1  0.9654646E-007  0.7154877E+03  0.7818608E-02  0.9938161E-01
         -2   -1    0    0    0  501 -0.00000000000E+00  0.00000000000E+00  0.38187738218E+03  0.38187738219E+03  0.25500000000E-02 0.  1.
          2   -1    0    0  501    0  0.00000000000E+00 -0.00000000000E+00 -0.10607695096E+04  0.10607695096E+04  0.25500000000E-02 0. -1.
    8880023    1    1    2    0    0  0.25877200829E+03 -0.10559110118E+03 -0.25759306822E+02  0.71595124211E+03  0.65864270000E+03 0.  1.
    8880022    1    1    2    0    0 -0.25877200829E+03  0.10559110118E+03 -0.65313282059E+03  0.72669564968E+03  0.15294330000E+03 0.  0.
<mgrwt>
<rscale>  0 0.58446979E+03</rscale>
<asrwt>0</asrwt>
<pdfrwt beam="1">  1        2 0.16319531E+00 0.71548769E+03</pdfrwt>
<pdfrwt beam="2">  1       -2 0.58750367E-01 0.71548769E+03</pdfrwt>
<totfact> 0.63562621E+01</totfact>
</mgrwt>
</event>
<event>
 4    1  0.9654646E-007  0.8842429E+03  0.7818608E-02  0.9551815E-01
          2   -1    0    0  501    0  0.00000000000E+00  0.00000000000E+00  0.35116710249E+03  0.35116710250E+03  0.25500000000E-02 0. -1.
         -2   -1    0    0    0  501 -0.00000000000E+00 -0.00000000000E+00 -0.21645798929E+04  0.21645798929E+04  0.25500000000E-02 0.  1.
    8880023    1    1    2    0    0 -0.28682179194E+03 -0.51556630552E+03 -0.38824124334E+03  0.96572088359E+03  0.65864270000E+03 0. -1.
    8880022    1    1    2    0    0  0.28682179194E+03  0.51556630552E+03 -0.14251715471E+04  0.15500261118E+04  0.15294330000E+03 0.  0.
<mgrwt>
<rscale>  0 0.80569140E+03</rscale>
<asrwt>0</asrwt>
<pdfrwt beam="1">  1        2 0.54025710E-01 0.88424293E+03</pdfrwt>
<pdfrwt beam="2">  1       -2 0.33301228E+00 0.88424293E+03</pdfrwt>
<totfact> 0.18826767E+00</totfact>
</mgrwt>
</event>
<event>
 4    1  0.9654646E-007  0.9270658E+03  0.7818608E-02  0.9483909E-01
          2   -1    0    0  501    0  0.00000000000E+00  0.00000000000E+00  0.15382342565E+04  0.15382342565E+04  0.25500000000E-02 0. -1.
         -2   -1    0    0    0  501 -0.00000000000E+00 -0.00000000000E+00 -0.50921728363E+03  0.50921728364E+03  0.25500000000E-02 0.  1.
    8880023    1    1    2    0    0  0.60620465367E+03 -0.24115692034E+03  0.14526875835E+03  0.93837836760E+03  0.65864270000E+03 0.  0.
    8880022    1    1    2    0    0 -0.60620465367E+03  0.24115692034E+03  0.88374821447E+03  0.11090731725E+04  0.15294330000E+03 0.  0.
<mgrwt>
<rscale>  0 0.85480611E+03</rscale>
<asrwt>0</asrwt>
<pdfrwt beam="1">  1        2 0.23665142E+00 0.92706577E+03</pdfrwt>
<pdfrwt beam="2">  1       -2 0.78341121E-01 0.92706577E+03</pdfrwt>
<totfact> 0.17581835E+01</totfact>
</mgrwt>
</event>
<event>
 4    1  0.9654646E-007  0.6957162E+03  0.7818608E-02  0.1001546E+00
          2   -1    0    0  501    0  0.00000000000E+00  0.00000000000E+00  0.12122879414E+04  0.12122879414E+04  0.25500000000E-02 0. -1.
         -2   -1    0    0    0  501 -0.00000000000E+00 -0.00000000000E+00 -0.58152629822E+03  0.58152629823E+03  0.25500000000E-02 0.  1.
    8880023    1    1    2    0    0 -0.16952918716E+03  0.14652855404E+03 -0.34817771207E+03  0.77797730551E+03  0.65864270000E+03 0.  1.
    8880022    1    1    2    0    0  0.16952918716E+03 -0.14652855404E+03  0.97893935525E+03  0.10158369341E+04  0.15294330000E+03 0.  0.
<mgrwt>
<rscale>  0 0.54977574E+03</rscale>
<asrwt>0</asrwt>
<pdfrwt beam="1">  1        2 0.18650584E+00 0.69571616E+03</pdfrwt>
<pdfrwt beam="2">  1       -2 0.89465584E-01 0.69571616E+03</pdfrwt>
<totfact> 0.20467043E+01</totfact>
</mgrwt>
</event>
<event>
 4    1  0.9654646E-007  0.7711639E+03  0.7818608E-02  0.9777018E-01
          2   -1    0    0  501    0  0.00000000000E+00  0.00000000000E+00  0.89133633996E+03  0.89133633996E+03  0.25500000000E-02 0. -1.
         -2   -1    0    0    0  501 -0.00000000000E+00 -0.00000000000E+00 -0.88829337402E+03  0.88829337403E+03  0.25500000000E-02 0.  1.
    8880023    1    1    2    0    0  0.34696110902E+03 -0.20124991768E+03 -0.64293735612E+03  0.10040230031E+04  0.65864270000E+03 0.  0.
    8880022    1    1    2    0    0 -0.34696110902E+03  0.20124991768E+03  0.64598032205E+03  0.77560671092E+03  0.15294330000E+03 0.  0.
<mgrwt>
<rscale>  0 0.66610604E+03</rscale>
<asrwt>0</asrwt>
<pdfrwt beam="1">  1        2 0.13712867E+00 0.77116389E+03</pdfrwt>
<pdfrwt beam="2">  1       -2 0.13666052E+00 0.77116389E+03</pdfrwt>
<totfact> 0.11522325E+01</totfact>
</mgrwt>
</event>
<event>
 4    1  0.9654646E-007  0.7418487E+03  0.7818608E-02  0.9854594E-01
         -2   -1    0    0    0  501 -0.00000000000E+00  0.00000000000E+00  0.42802412764E+03  0.42802412764E+03  0.25500000000E-02 0.  1.
          2   -1    0    0  501    0  0.00000000000E+00 -0.00000000000E+00 -0.97661164149E+03  0.97661164149E+03  0.25500000000E-02 0. -1.
    8880023    1    1    2    0    0  0.33776955430E+03  0.49406531051E+02 -0.14459323772E+01  0.74185010218E+03  0.65864270000E+03 0.  1.
    8880022    1    1    2    0    0 -0.33776955430E+03 -0.49406531051E+02 -0.54714158148E+03  0.66278566696E+03  0.15294330000E+03 0. -1.
<mgrwt>
<rscale>  0 0.62513215E+03</rscale>
<asrwt>0</asrwt>
<pdfrwt beam="1">  1        2 0.15024794E+00 0.74184869E+03</pdfrwt>
<pdfrwt beam="2">  1       -2 0.65849866E-01 0.74184869E+03</pdfrwt>
<totfact> 0.56238455E+01</totfact>
</mgrwt>
</event>
<event>
 4    1  0.9654646E-007  0.7509197E+03  0.7818608E-02  0.9829209E-01
         -2   -1    0    0    0  501 -0.00000000000E+00  0.00000000000E+00  0.14768275747E+03  0.14768275749E+03  0.25500000000E-02 0.  1.
          2   -1    0    0  501    0  0.00000000000E+00 -0.00000000000E+00 -0.38005309692E+04  0.38005309692E+04  0.25500000000E-02 0. -1.
    8880023    1    1    2    0    0  0.46863841779E+02 -0.35759462065E+03 -0.92056361341E+03  0.11879889330E+04  0.65864270000E+03 0.  0.
    8880022    1    1    2    0    0 -0.46863841779E+02  0.35759462065E+03 -0.27322845983E+04  0.27602247937E+04  0.15294330000E+03 0.  0.
<mgrwt>
<rscale>  0 0.63818286E+03</rscale>
<asrwt>0</asrwt>
<pdfrwt beam="1">  1        2 0.58469700E+00 0.75091966E+03</pdfrwt>
<pdfrwt beam="2">  1       -2 0.22720427E-01 0.75091966E+03</pdfrwt>
<totfact> 0.91244197E+00</totfact>
</mgrwt>
</event>
<event>
 4    1  0.9654646E-007  0.1018672E+04  0.7818608E-02  0.9357527E-01
         -2   -1    0    0    0  501 -0.00000000000E+00  0.00000000000E+00  0.80990570507E+03  0.80990570508E+03  0.25500000000E-02 0.  1.
          2   -1    0    0  501    0  0.00000000000E+00 -0.00000000000E+00 -0.12427922527E+04  0.12427922527E+04  0.25500000000E-02 0. -1.
    8880023    1    1    2    0    0 -0.30195476425E+02 -0.77651144341E+03  0.20093502496E+03  0.10382999947E+04  0.65864270000E+03 0.  1.
    8880022    1    1    2    0    0  0.30195476425E+02  0.77651144341E+03 -0.63382157259E+03  0.10143979630E+04  0.15294330000E+03 0.  0.
<mgrwt>
<rscale>  0 0.95655025E+03</rscale>
<asrwt>0</asrwt>
<pdfrwt beam="1">  1        2 0.19119881E+00 0.10186717E+04</pdfrwt>
<pdfrwt beam="2">  1       -2 0.12460088E+00 0.10186717E+04</pdfrwt>
<totfact> 0.85536502E+00</totfact>
</mgrwt>
</event>
<event>
 4    1  0.9654646E-007  0.9285363E+03  0.7818608E-02  0.9481692E-01
         -2   -1    0    0    0  501 -0.00000000000E+00  0.00000000000E+00  0.48320424155E+03  0.48320424156E+03  0.25500000000E-02 0.  1.
          2   -1    0    0  501    0  0.00000000000E+00 -0.00000000000E+00 -0.22835746839E+04  0.22835746839E+04  0.25500000000E-02 0. -1.
    8880023    1    1    2    0    0 -0.40408991321E+03 -0.51485994024E+03 -0.94575606484E+02  0.93334032787E+03  0.65864270000E+03 0.  1.
    8880022    1    1    2    0    0  0.40408991321E+03  0.51485994024E+03 -0.17057948358E+04  0.18334385975E+04  0.15294330000E+03 0.  0.
<mgrwt>
<rscale>  0 0.85647119E+03</rscale>
<asrwt>0</asrwt>
<pdfrwt beam="1">  1        2 0.35131918E+00 0.92853628E+03</pdfrwt>
<pdfrwt beam="2">  1       -2 0.74339115E-01 0.92853628E+03</pdfrwt>
<totfact> 0.76637437E+00</totfact>
</mgrwt>
</event>
<event>
 4    1  0.9654646E-007  0.1108137E+04  0.7818608E-02  0.9252051E-01
          2   -1    0    0  501    0  0.00000000000E+00  0.00000000000E+00  0.20121470572E+04  0.20121470572E+04  0.25500000000E-02 0. -1.
         -2   -1    0    0    0  501 -0.00000000000E+00 -0.00000000000E+00 -0.58543870018E+03  0.58543870018E+03  0.25500000000E-02 0.  1.
    8880023    1    1    2    0    0 -0.87909065045E+03 -0.14613702399E+03  0.29063086621E+03  0.11456146421E+04  0.65864270000E+03 0.  0.
    8880022    1    1    2    0    0  0.87909065045E+03  0.14613702399E+03  0.11360774908E+04  0.14519711153E+04  0.15294330000E+03 0.  0.
<mgrwt>
<rscale>  0 0.10531958E+04</rscale>
<asrwt>0</asrwt>
<pdfrwt beam="1">  1        2 0.30956109E+00 0.11081365E+04</pdfrwt>
<pdfrwt beam="2">  1       -2 0.90067491E-01 0.11081365E+04</pdfrwt>
<totfact> 0.68670851E+00</totfact>
</mgrwt>
</event>
<event>
 4    1  0.9654646E-007  0.1095896E+04  0.7818608E-02  0.9265639E-01
          2   -1    0    0  501    0  0.00000000000E+00  0.00000000000E+00  0.10762249817E+04  0.10762249817E+04  0.25500000000E-02 0. -1.
         -2   -1    0    0    0  501 -0.00000000000E+00 -0.00000000000E+00 -0.10919007175E+04  0.10919007175E+04  0.25500000000E-02 0.  1.
    8880023    1    1    2    0    0  0.86196503994E+03  0.15554616011E+03 -0.44248093041E+03  0.11818535942E+04  0.65864270000E+03 0.  0.
    8880022    1    1    2    0    0 -0.86196503994E+03 -0.15554616011E+03  0.42680519457E+03  0.98627210502E+03  0.15294330000E+03 0.  0.
<mgrwt>
<rscale>  0 0.10400869E+04</rscale>
<asrwt>0</asrwt>
<pdfrwt beam="1">  1        2 0.16557307E+00 0.10958962E+04</pdfrwt>
<pdfrwt beam="2">  1       -2 0.16798473E+00 0.10958962E+04</pdfrwt>
<totfact> 0.48756135E+00</totfact>
</mgrwt>
</event>
<event>
 4    1  0.9654646E-007  0.6893357E+03  0.7818608E-02  0.1004470E+00
         -2   -1    0    0    0  501 -0.00000000000E+00  0.00000000000E+00  0.25892743801E+03  0.25892743803E+03  0.25500000000E-02 0.  1.
          2   -1    0    0  501    0  0.00000000000E+00 -0.00000000000E+00 -0.12972249456E+04  0.12972249456E+04  0.25500000000E-02 0. -1.
    8880023    1    1    2    0    0 -0.14199843186E+03 -0.14563615228E+03 -0.25905410425E+03  0.73640524081E+03  0.65864270000E+03 0.  1.
    8880022    1    1    2    0    0  0.14199843186E+03  0.14563615228E+03 -0.77924340337E+03  0.81974714285E+03  0.15294330000E+03 0.  0.
<mgrwt>
<rscale>  0 0.53732950E+03</rscale>
<asrwt>0</asrwt>
<pdfrwt beam="1">  1        2 0.19957306E+00 0.68933566E+03</pdfrwt>
<pdfrwt beam="2">  1       -2 0.39834991E-01 0.68933566E+03</pdfrwt>
<totfact> 0.10105157E+02</totfact>
</mgrwt>
</event>
<event>
 4    1  0.9654646E-007  0.6586923E+03  0.7818608E-02  0.1025538E+00
         -2   -1    0    0    0  501 -0.00000000000E+00  0.00000000000E+00  0.13771276133E+03  0.13771276135E+03  0.25500000000E-02 0.  1.
          2   -1    0    0  501    0  0.00000000000E+00 -0.00000000000E+00 -0.33301967112E+04  0.33301967112E+04  0.25500000000E-02 0. -1.
    8880023    1    1    2    0    0  0.45146924951E+01 -0.67013099059E+01 -0.66574086334E+03  0.93652890686E+03  0.65864270000E+03 0.  1.
    8880022    1    1    2    0    0 -0.45146924951E+01  0.67013099059E+01 -0.25267430865E+04  0.25313805657E+04  0.15294330000E+03 0.  0.
<mgrwt>
<rscale>  0 0.45739967E+03</rscale>
<asrwt>0</asrwt>
<pdfrwt beam="1">  1        2 0.51233789E+00 0.65869226E+03</pdfrwt>
<pdfrwt beam="2">  1       -2 0.21186581E-01 0.65869226E+03</pdfrwt>
<totfact> 0.22297792E+01</totfact>
</mgrwt>
</event>
<event>
 4    1  0.9654646E-007  0.6925426E+03  0.7818608E-02  0.1002967E+00
         -2   -1    0    0    0  501 -0.00000000000E+00  0.00000000000E+00  0.70668907621E+03  0.70668907621E+03  0.25500000000E-02 0.  1.
          2   -1    0    0  501    0  0.00000000000E+00 -0.00000000000E+00 -0.94091827072E+03  0.94091827072E+03  0.25500000000E-02 0. -1.
    8880023    1    1    2    0    0  0.24885868253E+02  0.21256928607E+03  0.50882116779E+03  0.85936848608E+03  0.65864270000E+03 0.  1.
    8880022    1    1    2    0    0 -0.24885868253E+02 -0.21256928607E+03 -0.74305036230E+03  0.78823886085E+03  0.15294330000E+03 0.  0.
<mgrwt>
<rscale>  0 0.54368268E+03</rscale>
<asrwt>0</asrwt>
<pdfrwt beam="1">  1        2 0.14475666E+00 0.69254257E+03</pdfrwt>
<pdfrwt beam="2">  1       -2 0.10872140E+00 0.69254257E+03</pdfrwt>
<totfact> 0.19019886E+01</totfact>
</mgrwt>
</event>
<event>
 4    1  0.9654646E-007  0.8926417E+03  0.7818608E-02  0.9537949E-01
          2   -1    0    0  501    0  0.00000000000E+00  0.00000000000E+00  0.71851278670E+03  0.71851278671E+03  0.25500000000E-02 0. -1.
         -2   -1    0    0    0  501 -0.00000000000E+00 -0.00000000000E+00 -0.10814580658E+04  0.10814580658E+04  0.25500000000E-02 0.  1.
    8880023    1    1    2    0    0  0.47500426682E+03 -0.37063448856E+03 -0.66087297207E+03  0.11106584844E+04  0.65864270000E+03 0.  0.
    8880022    1    1    2    0    0 -0.47500426682E+03  0.37063448856E+03  0.29792769293E+03  0.68931236811E+03  0.15294330000E+03 0.  0.
<mgrwt>
<rscale>  0 0.81542908E+03</rscale>
<asrwt>0</asrwt>
<pdfrwt beam="1">  1        2 0.11054043E+00 0.89264169E+03</pdfrwt>
<pdfrwt beam="2">  1       -2 0.16637816E+00 0.89264169E+03</pdfrwt>
<totfact> 0.89844688E+00</totfact>
</mgrwt>
</event>
<event>
 4    1  0.9654646E-007  0.8543338E+03  0.7818608E-02  0.9603723E-01
         -2   -1    0    0    0  501 -0.00000000000E+00  0.00000000000E+00  0.73435035567E+03  0.73435035567E+03  0.25500000000E-02 0.  1.
          2   -1    0    0  501    0  0.00000000000E+00 -0.00000000000E+00 -0.83840319239E+03  0.83840319239E+03  0.25500000000E-02 0. -1.
    8880023    1    1    2    0    0 -0.38123161993E+03 -0.38825050950E+03  0.26881698241E+03  0.89562759139E+03  0.65864270000E+03 0. -1.
    8880022    1    1    2    0    0  0.38123161993E+03  0.38825050950E+03 -0.37286981913E+03  0.67712595667E+03  0.15294330000E+03 0.  0.
<mgrwt>
<rscale>  0 0.77050249E+03</rscale>
<asrwt>0</asrwt>
<pdfrwt beam="1">  1        2 0.12898511E+00 0.85433378E+03</pdfrwt>
<pdfrwt beam="2">  1       -2 0.11297698E+00 0.85433378E+03</pdfrwt>
<totfact> 0.20015408E+01</totfact>
</mgrwt>
</event>
<event>
 4    1  0.9654646E-007  0.6899526E+03  0.7818608E-02  0.1004175E+00
          2   -1    0    0  501    0  0.00000000000E+00  0.00000000000E+00  0.92552288999E+03  0.92552288999E+03  0.25500000000E-02 0. -1.
         -2   -1    0    0    0  501 -0.00000000000E+00 -0.00000000000E+00 -0.38341939130E+03  0.38341939131E+03  0.25500000000E-02 0.  1.
    8880023    1    1    2    0    0 -0.20381000648E+03 -0.26188665043E+02 -0.21044010958E+02  0.69027343972E+03  0.65864270000E+03 0.  1.
    8880022    1    1    2    0    0  0.20381000648E+03  0.26188665043E+02  0.56314750964E+03  0.61866884159E+03  0.15294330000E+03 0. -1.
<mgrwt>
<rscale>  0 0.53856815E+03</rscale>
<asrwt>0</asrwt>
<pdfrwt beam="1">  1        2 0.14238814E+00 0.68995259E+03</pdfrwt>
<pdfrwt beam="2">  1       -2 0.58987598E-01 0.68995259E+03</pdfrwt>
<totfact> 0.77083508E+01</totfact>
</mgrwt>
</event>
<event>
 4    1  0.9654646E-007  0.8814750E+03  0.7818608E-02  0.9556450E-01
         -2   -1    0    0    0  501 -0.00000000000E+00  0.00000000000E+00  0.33318842718E+03  0.33318842719E+03  0.25500000000E-02 0.  1.
          2   -1    0    0  501    0  0.00000000000E+00 -0.00000000000E+00 -0.19277243033E+04  0.19277243033E+04  0.25500000000E-02 0. -1.
    8880023    1    1    2    0    0 -0.48643170277E+03  0.32645383735E+03 -0.50882398429E+03  0.10177917089E+04  0.65864270000E+03 0.  1.
    8880022    1    1    2    0    0  0.48643170277E+03 -0.32645383735E+03 -0.10857118919E+04  0.12431210217E+04  0.15294330000E+03 0.  0.
<mgrwt>
<rscale>  0 0.80246947E+03</rscale>
<asrwt>0</asrwt>
<pdfrwt beam="1">  1        2 0.29657296E+00 0.88147497E+03</pdfrwt>
<pdfrwt beam="2">  1       -2 0.51259759E-01 0.88147497E+03</pdfrwt>
<totfact> 0.26761750E+01</totfact>
</mgrwt>
</event>
<event>
 4    1  0.9654646E-007  0.1017405E+04  0.7818608E-02  0.9359133E-01
         -2   -1    0    0    0  501 -0.00000000000E+00  0.00000000000E+00  0.30282656606E+03  0.30282656607E+03  0.25500000000E-02 0.  1.
          2   -1    0    0  501    0  0.00000000000E+00 -0.00000000000E+00 -0.27498663475E+04  0.27498663475E+04  0.25500000000E-02 0. -1.
    8880023    1    1    2    0    0 -0.41680940035E+02  0.77431573688E+03 -0.11662232842E+04  0.15476398534E+04  0.65864270000E+03 0.  0.
    8880022    1    1    2    0    0  0.41680940035E+02 -0.77431573688E+03 -0.12808164973E+04  0.15050530602E+04  0.15294330000E+03 0.  0.
<mgrwt>
<rscale>  0 0.95516569E+03</rscale>
<asrwt>0</asrwt>
<pdfrwt beam="1">  1        2 0.42305634E+00 0.10174047E+04</pdfrwt>
<pdfrwt beam="2">  1       -2 0.46588704E-01 0.10174047E+04</pdfrwt>
<totfact> 0.10992026E+01</totfact>
</mgrwt>
</event>
<event>
 4    1  0.9654646E-007  0.6849475E+03  0.7818608E-02  0.1006653E+00
         -2   -1    0    0    0  501 -0.00000000000E+00  0.00000000000E+00  0.80590622119E+03  0.80590622119E+03  0.25500000000E-02 0.  1.
          2   -1    0    0  501    0  0.00000000000E+00 -0.00000000000E+00 -0.16061594719E+04  0.16061594719E+04  0.25500000000E-02 0. -1.
    8880023    1    1    2    0    0 -0.17306965793E+03  0.73414787720E+02  0.64846397199E+03  0.94321713660E+03  0.65864270000E+03 0.  1.
    8880022    1    1    2    0    0  0.17306965793E+03 -0.73414787720E+02 -0.14487172227E+04  0.14688485565E+04  0.15294330000E+03 0.  0.
<mgrwt>
<rscale>  0 0.52826836E+03</rscale>
<asrwt>0</asrwt>
<pdfrwt beam="1">  1        2 0.24710146E+00 0.68494748E+03</pdfrwt>
<pdfrwt beam="2">  1       -2 0.12398557E+00 0.68494748E+03</pdfrwt>
<totfact> 0.56204481E+00</totfact>
</mgrwt>
</event>
<event>
 4    1  0.9654646E-007  0.7237918E+03  0.7818608E-02  0.9909959E-01
         -2   -1    0    0    0  501 -0.00000000000E+00  0.00000000000E+00  0.19964764910E+03  0.19964764911E+03  0.25500000000E-02 0.  1.
          2   -1    0    0  501    0  0.00000000000E+00 -0.00000000000E+00 -0.20639808013E+04  0.20639808013E+04  0.25500000000E-02 0. -1.
    8880023    1    1    2    0    0  0.49593616060E+02  0.29598109168E+03 -0.17723765993E+04  0.19144694694E+04  0.65864270000E+03 0.  0.
    8880022    1    1    2    0    0 -0.49593616060E+02 -0.29598109168E+03 -0.91956552944E+02  0.34915898102E+03  0.15294330000E+03 0.  0.
<mgrwt>
<rscale>  0 0.59781067E+03</rscale>
<asrwt>0</asrwt>
<pdfrwt beam="1">  1        2 0.31753549E+00 0.72379178E+03</pdfrwt>
<pdfrwt beam="2">  1       -2 0.30715024E-01 0.72379178E+03</pdfrwt>
<totfact> 0.62372386E+01</totfact>
</mgrwt>
</event>
<event>
 4    1  0.9654646E-007  0.6939674E+03  0.7818608E-02  0.1002321E+00
         -2   -1    0    0    0  501 -0.00000000000E+00  0.00000000000E+00  0.29000212888E+03  0.29000212890E+03  0.25500000000E-02 0.  1.
          2   -1    0    0  501    0  0.00000000000E+00 -0.00000000000E+00 -0.28460486226E+04  0.28460486226E+04  0.25500000000E-02 0. -1.
    8880023    1    1    2    0    0 -0.77145049362E+02  0.20452193954E+03 -0.14331063355E+03  0.70861041930E+03  0.65864270000E+03 0.  1.
    8880022    1    1    2    0    0  0.77145049362E+02 -0.20452193954E+03 -0.24127358601E+04  0.24274403322E+04  0.15294330000E+03 0.  0.
<mgrwt>
<rscale>  0 0.54644083E+03</rscale>
<asrwt>0</asrwt>
<pdfrwt beam="1">  1        2 0.43785361E+00 0.69396743E+03</pdfrwt>
<pdfrwt beam="2">  1       -2 0.44615714E-01 0.69396743E+03</pdfrwt>
<totfact> 0.11041314E+01</totfact>
</mgrwt>
</event>
<event>
 4    1  0.9654646E-007  0.6937753E+03  0.7818608E-02  0.1002407E+00
          2   -1    0    0  501    0  0.00000000000E+00  0.00000000000E+00  0.26087779929E+04  0.26087779929E+04  0.25500000000E-02 0. -1.
         -2   -1    0    0    0  501 -0.00000000000E+00 -0.00000000000E+00 -0.44497527188E+03  0.44497527188E+03  0.25500000000E-02 0.  1.
    8880023    1    1    2    0    0 -0.63636422752E+01 -0.21788403317E+03 -0.16226103437E+03  0.71249757711E+03  0.65864270000E+03 0.  0.
    8880022    1    1    2    0    0  0.63636422752E+01  0.21788403317E+03  0.23260637554E+04  0.23412556877E+04  0.15294330000E+03 0.  0.
<mgrwt>
<rscale>  0 0.54607110E+03</rscale>
<asrwt>0</asrwt>
<pdfrwt beam="1">  1        2 0.40135046E+00 0.69377529E+03</pdfrwt>
<pdfrwt beam="2">  1       -2 0.68457735E-01 0.69377529E+03</pdfrwt>
<totfact> 0.62438447E+00</totfact>
</mgrwt>
</event>
<event>
 4    1  0.9654646E-007  0.6908634E+03  0.7818608E-02  0.1003745E+00
         -2   -1    0    0    0  501 -0.00000000000E+00  0.00000000000E+00  0.17809704024E+03  0.17809704025E+03  0.25500000000E-02 0.  1.
          2   -1    0    0  501    0  0.00000000000E+00 -0.00000000000E+00 -0.17828227163E+04  0.17828227163E+04  0.25500000000E-02 0. -1.
    8880023    1    1    2    0    0 -0.15753432678E+03 -0.13661964087E+03 -0.57386016683E+03  0.89811340471E+03  0.65864270000E+03 0.  1.
    8880022    1    1    2    0    0  0.15753432678E+03  0.13661964087E+03 -0.10308655092E+04  0.10628063518E+04  0.15294330000E+03 0.  0.
<mgrwt>
<rscale>  0 0.54038215E+03</rscale>
<asrwt>0</asrwt>
<pdfrwt beam="1">  1        2 0.27428041E+00 0.69086337E+03</pdfrwt>
<pdfrwt beam="2">  1       -2 0.27399546E-01 0.69086337E+03</pdfrwt>
<totfact> 0.10995119E+02</totfact>
</mgrwt>
</event>
<event>
 4    1  0.9654646E-007  0.7453800E+03  0.7818608E-02  0.9844544E-01
         -2   -1    0    0    0  501 -0.00000000000E+00  0.00000000000E+00  0.38446394718E+03  0.38446394719E+03  0.25500000000E-02 0.  1.
          2   -1    0    0  501    0  0.00000000000E+00 -0.00000000000E+00 -0.27989075557E+04  0.27989075557E+04  0.25500000000E-02 0. -1.
    8880023    1    1    2    0    0 -0.23735185521E+03 -0.25582268431E+03 -0.64373389893E+01  0.74540780421E+03  0.65864270000E+03 0.  1.
    8880022    1    1    2    0    0  0.23735185521E+03  0.25582268431E+03 -0.24080062695E+04  0.24379636986E+04  0.15294330000E+03 0.  0.
<mgrwt>
<rscale>  0 0.63025886E+03</rscale>
<asrwt>0</asrwt>
<pdfrwt beam="1">  1        2 0.43060115E+00 0.74538001E+03</pdfrwt>
<pdfrwt beam="2">  1       -2 0.59148301E-01 0.74538001E+03</pdfrwt>
<totfact> 0.65502517E+00</totfact>
</mgrwt>
</event>
<event>
 4    1  0.9654646E-007  0.1159968E+04  0.7818608E-02  0.9197054E-01
          2   -1    0    0  501    0  0.00000000000E+00  0.00000000000E+00  0.17233298511E+04  0.17233298511E+04  0.25500000000E-02 0. -1.
         -2   -1    0    0    0  501 -0.00000000000E+00 -0.00000000000E+00 -0.88326515433E+03  0.88326515433E+03  0.25500000000E-02 0.  1.
    8880023    1    1    2    0    0  0.94460958784E+03 -0.13938782856E+03  0.11069923846E+04  0.16034209011E+04  0.65864270000E+03 0. -1.
    8880022    1    1    2    0    0 -0.94460958784E+03  0.13938782856E+03 -0.26692768780E+03  0.10031741044E+04  0.15294330000E+03 0.  0.
<mgrwt>
<rscale>  0 0.11083892E+04</rscale>
<asrwt>0</asrwt>
<pdfrwt beam="1">  1        2 0.26512766E+00 0.11599683E+04</pdfrwt>
<pdfrwt beam="2">  1       -2 0.13588695E+00 0.11599683E+04</pdfrwt>
<totfact> 0.36091925E+00</totfact>
</mgrwt>
</event>
<event>
 4    1  0.9654646E-007  0.6596765E+03  0.7818608E-02  0.1024490E+00
         -2   -1    0    0    0  501 -0.00000000000E+00  0.00000000000E+00  0.49159327905E+03  0.49159327906E+03  0.25500000000E-02 0.  1.
          2   -1    0    0  501    0  0.00000000000E+00 -0.00000000000E+00 -0.67816538561E+03  0.67816538562E+03  0.25500000000E-02 0. -1.
    8880023    1    1    2    0    0 -0.33755350368E+02  0.14948104514E+02  0.25018628642E+03  0.70552551597E+03  0.65864270000E+03 0.  1.
    8880022    1    1    2    0    0  0.33755350368E+02 -0.14948104514E+02 -0.43675839298E+03  0.46423314871E+03  0.15294330000E+03 0.  0.
<mgrwt>
<rscale>  0 0.46100441E+03</rscale>
<asrwt>0</asrwt>
<pdfrwt beam="1">  1        2 0.10433314E+00 0.65967649E+03</pdfrwt>
<pdfrwt beam="2">  1       -2 0.75629736E-01 0.65967649E+03</pdfrwt>
<totfact> 0.68119791E+01</totfact>
</mgrwt>
</event>
<event>
 4    1  0.9654646E-007  0.7493129E+03  0.7818608E-02  0.9833605E-01
          2   -1    0    0  501    0  0.00000000000E+00  0.00000000000E+00  0.65229503034E+03  0.65229503034E+03  0.25500000000E-02 0. -1.
         -2   -1    0    0    0  501 -0.00000000000E+00 -0.00000000000E+00 -0.66031193104E+03  0.66031193105E+03  0.25500000000E-02 0.  1.
    8880023    1    1    2    0    0  0.27733613186E+03  0.22526503049E+03 -0.31945262417E+03  0.81456727736E+03  0.65864270000E+03 0.  1.
    8880022    1    1    2    0    0 -0.27733613186E+03 -0.22526503049E+03  0.31143572347E+03  0.49803968403E+03  0.15294330000E+03 0.  0.
<mgrwt>
<rscale>  0 0.63589877E+03</rscale>
<asrwt>0</asrwt>
<pdfrwt beam="1">  1        2 0.10035308E+00 0.74931293E+03</pdfrwt>
<pdfrwt beam="2">  1       -2 0.10158645E+00 0.74931293E+03</pdfrwt>
<totfact> 0.36078888E+01</totfact>
</mgrwt>
</event>
<event>
 4    1  0.9654646E-007  0.8120761E+03  0.7818608E-02  0.9685269E-01
          2   -1    0    0  501    0  0.00000000000E+00  0.00000000000E+00  0.29132703633E+04  0.29132703633E+04  0.25500000000E-02 0. -1.
         -2   -1    0    0    0  501 -0.00000000000E+00 -0.00000000000E+00 -0.25125800720E+03  0.25125800722E+03  0.25500000000E-02 0.  1.
    8880023    1    1    2    0    0 -0.27960711939E+02  0.47421042432E+03  0.25171163765E+04  0.26448709585E+04  0.65864270000E+03 0.  0.
    8880022    1    1    2    0    0  0.27960711939E+02 -0.47421042432E+03  0.14489597959E+03  0.51965741202E+03  0.15294330000E+03 0.  0.
<mgrwt>
<rscale>  0 0.71900702E+03</rscale>
<asrwt>0</asrwt>
<pdfrwt beam="1">  1        2 0.44819541E+00 0.81207606E+03</pdfrwt>
<pdfrwt beam="2">  1       -2 0.38655080E-01 0.81207606E+03</pdfrwt>
<totfact> 0.13069230E+01</totfact>
</mgrwt>
</event>
<event>
 4    1  0.9654646E-007  0.9310609E+03  0.7818608E-02  0.9477904E-01
          2   -1    0    0  501    0  0.00000000000E+00  0.00000000000E+00  0.45665431395E+04  0.45665431395E+04  0.25500000000E-02 0. -1.
         -2   -1    0    0    0  501 -0.00000000000E+00 -0.00000000000E+00 -0.32922211509E+03  0.32922211510E+03  0.25500000000E-02 0.  1.
    8880023    1    1    2    0    0  0.60248315338E+03  0.26472280456E+03  0.42400487853E+03  0.10230613162E+04  0.65864270000E+03 0.  0.
    8880022    1    1    2    0    0 -0.60248315338E+03 -0.26472280456E+03  0.38133161458E+04  0.38727039384E+04  0.15294330000E+03 0.  0.
<mgrwt>
<rscale>  0 0.85932686E+03</rscale>
<asrwt>0</asrwt>
<pdfrwt beam="1">  1        2 0.70254500E+00 0.93106086E+03</pdfrwt>
<pdfrwt beam="2">  1       -2 0.50649563E-01 0.93106086E+03</pdfrwt>
<totfact> 0.42691409E-01</totfact>
</mgrwt>
</event>
<event>
 4    1  0.9654646E-007  0.8589667E+03  0.7818608E-02  0.9595404E-01
          2   -1    0    0  501    0  0.00000000000E+00  0.00000000000E+00  0.76899726547E+03  0.76899726548E+03  0.25500000000E-02 0. -1.
         -2   -1    0    0    0  501 -0.00000000000E+00 -0.00000000000E+00 -0.14127256048E+04  0.14127256048E+04  0.25500000000E-02 0.  1.
    8880023    1    1    2    0    0 -0.14163164689E+03 -0.53287343567E+03 -0.11378768593E+04  0.14256884565E+04  0.65864270000E+03 0.  0.
    8880022    1    1    2    0    0  0.14163164689E+03  0.53287343567E+03  0.49414852003E+03  0.75603441371E+03  0.15294330000E+03 0.  0.
<mgrwt>
<rscale>  0 0.77601115E+03</rscale>
<asrwt>0</asrwt>
<pdfrwt beam="1">  1        2 0.11830727E+00 0.85896672E+03</pdfrwt>
<pdfrwt beam="2">  1       -2 0.21734240E+00 0.85896672E+03</pdfrwt>
<totfact> 0.37671629E+00</totfact>
</mgrwt>
</event>
<event>
 4    1  0.9654646E-007  0.6925818E+03  0.7818608E-02  0.1002949E+00
          2   -1    0    0  501    0  0.00000000000E+00  0.00000000000E+00  0.29277046775E+04  0.29277046775E+04  0.25500000000E-02 0. -1.
         -2   -1    0    0    0  501 -0.00000000000E+00 -0.00000000000E+00 -0.17393602949E+03  0.17393602951E+03  0.25500000000E-02 0.  1.
    8880023    1    1    2    0    0 -0.17562483970E+03  0.12253662141E+03  0.55592898351E+03  0.88810278059E+03  0.65864270000E+03 0.  1.
    8880022    1    1    2    0    0  0.17562483970E+03 -0.12253662141E+03  0.21978396645E+04  0.22135379264E+04  0.15294330000E+03 0.  0.
<mgrwt>
<rscale>  0 0.54375908E+03</rscale>
<asrwt>0</asrwt>
<pdfrwt beam="1">  1        2 0.45041608E+00 0.69258177E+03</pdfrwt>
<pdfrwt beam="2">  1       -2 0.26759391E-01 0.69258177E+03</pdfrwt>
<totfact> 0.26068891E+01</totfact>
</mgrwt>
</event>
<event>
 4    1  0.9654646E-007  0.9262532E+03  0.7818608E-02  0.9485137E-01
          2   -1    0    0  501    0  0.00000000000E+00  0.00000000000E+00  0.12558016703E+04  0.12558016703E+04  0.25500000000E-02 0. -1.
         -2   -1    0    0    0  501 -0.00000000000E+00 -0.00000000000E+00 -0.10188838489E+04  0.10188838489E+04  0.25500000000E-02 0.  1.
    8880023    1    1    2    0    0 -0.64255531776E+03 -0.10610112152E+03 -0.67327363336E+03  0.11450949201E+04  0.65864270000E+03 0.  0.
    8880022    1    1    2    0    0  0.64255531776E+03  0.10610112152E+03  0.91019145473E+03  0.11295905991E+04  0.15294330000E+03 0.  0.
<mgrwt>
<rscale>  0 0.85388548E+03</rscale>
<asrwt>0</asrwt>
<pdfrwt beam="1">  1        2 0.19320026E+00 0.92625320E+03</pdfrwt>
<pdfrwt beam="2">  1       -2 0.15675136E+00 0.92625320E+03</pdfrwt>
<totfact> 0.46718776E+00</totfact>
</mgrwt>
</event>
<event>
 4    1  0.9654646E-007  0.6637140E+03  0.7818608E-02  0.1020638E+00
          2   -1    0    0  501    0  0.00000000000E+00  0.00000000000E+00  0.17998956321E+04  0.17998956321E+04  0.25500000000E-02 0. -1.
         -2   -1    0    0    0  501 -0.00000000000E+00 -0.00000000000E+00 -0.35158683530E+03  0.35158683531E+03  0.25500000000E-02 0.  1.
    8880023    1    1    2    0    0 -0.80532859687E+02 -0.14850450302E+02 -0.28686100034E+02  0.66433363302E+03  0.65864270000E+03 0.  1.
    8880022    1    1    2    0    0  0.80532859687E+02  0.14850450302E+02  0.14769948969E+04  0.14871488344E+04  0.15294330000E+03 0.  0.
<mgrwt>
<rscale>  0 0.47457238E+03</rscale>
<asrwt>0</asrwt>
<pdfrwt beam="1">  1        2 0.27690702E+00 0.66371401E+03</pdfrwt>
<pdfrwt beam="2">  1       -2 0.54090283E-01 0.66371401E+03</pdfrwt>
<totfact> 0.28907176E+01</totfact>
</mgrwt>
</event>
<event>
 4    1  0.9654646E-007  0.6603398E+03  0.7818608E-02  0.1023811E+00
         -2   -1    0    0    0  501 -0.00000000000E+00  0.00000000000E+00  0.19640767756E+03  0.19640767757E+03  0.25500000000E-02 0.  1.
          2   -1    0    0  501    0  0.00000000000E+00 -0.00000000000E+00 -0.19470608399E+04  0.19470608399E+04  0.25500000000E-02 0. -1.
    8880023    1    1    2    0    0  0.13374676661E+02 -0.45382071556E+02 -0.37672319720E+03  0.76024271648E+03  0.65864270000E+03 0.  1.
    8880022    1    1    2    0    0 -0.13374676661E+02  0.45382071556E+02 -0.13739299651E+04  0.13832258010E+04  0.15294330000E+03 0.  0.
<mgrwt>
<rscale>  0 0.46336082E+03</rscale>
<asrwt>0</asrwt>
<pdfrwt beam="1">  1        2 0.29954781E+00 0.66033978E+03</pdfrwt>
<pdfrwt beam="2">  1       -2 0.30216567E-01 0.66033978E+03</pdfrwt>
<totfact> 0.75037508E+01</totfact>
</mgrwt>
</event>
<event>
 4    1  0.9654646E-007  0.7765308E+03  0.7818608E-02  0.9764050E-01
          2   -1    0    0  501    0  0.00000000000E+00  0.00000000000E+00  0.21020603062E+04  0.21020603062E+04  0.25500000000E-02 0. -1.
         -2   -1    0    0    0  501 -0.00000000000E+00 -0.00000000000E+00 -0.18933403943E+03  0.18933403944E+03  0.25500000000E-02 0.  1.
    8880023    1    1    2    0    0  0.40537800691E+03 -0.69703626033E+02  0.90643318132E+03  0.11935749840E+04  0.65864270000E+03 0.  1.
    8880022    1    1    2    0    0 -0.40537800691E+03  0.69703626033E+02  0.10062930855E+04  0.10978193617E+04  0.15294330000E+03 0. -1.
<mgrwt>
<rscale>  0 0.67328024E+03</rscale>
<asrwt>0</asrwt>
<pdfrwt beam="1">  1        2 0.32339390E+00 0.77653083E+03</pdfrwt>
<pdfrwt beam="2">  1       -2 0.29128313E-01 0.77653083E+03</pdfrwt>
<totfact> 0.65195896E+01</totfact>
</mgrwt>
</event>
<event>
 4    1  0.9654646E-007  0.7830037E+03  0.7818608E-02  0.9748828E-01
          2   -1    0    0  501    0  0.00000000000E+00  0.00000000000E+00  0.24519821648E+03  0.24519821649E+03  0.25500000000E-02 0. -1.
         -2   -1    0    0    0  501 -0.00000000000E+00 -0.00000000000E+00 -0.16015409432E+04  0.16015409432E+04  0.25500000000E-02 0.  1.
    8880023    1    1    2    0    0  0.26033474796E+03 -0.33393179598E+03 -0.10141913647E+04  0.12812802019E+04  0.65864270000E+03 0.  0.
    8880022    1    1    2    0    0 -0.26033474796E+03  0.33393179598E+03 -0.34215136201E+03  0.56545895775E+03  0.15294330000E+03 0.  0.
<mgrwt>
<rscale>  0 0.68182549E+03</rscale>
<asrwt>0</asrwt>
<pdfrwt beam="1">  1        2 0.37722804E-01 0.78300372E+03</pdfrwt>
<pdfrwt beam="2">  1       -2 0.24639091E+00 0.78300372E+03</pdfrwt>
<totfact> 0.95096378E+00</totfact>
</mgrwt>
</event>
<event>
 4    1  0.9654646E-007  0.1078596E+04  0.7818608E-02  0.9285269E-01
         -2   -1    0    0    0  501 -0.00000000000E+00  0.00000000000E+00  0.11350007650E+04  0.11350007650E+04  0.25500000000E-02 0.  1.
          2   -1    0    0  501    0  0.00000000000E+00 -0.00000000000E+00 -0.10489868345E+04  0.10489868345E+04  0.25500000000E-02 0. -1.
    8880023    1    1    2    0    0  0.82362595307E+03  0.22627439221E+03  0.53829977355E+03  0.12054611830E+04  0.65864270000E+03 0.  0.
    8880022    1    1    2    0    0 -0.82362595307E+03 -0.22627439221E+03 -0.45228584303E+03  0.97852641659E+03  0.15294330000E+03 0.  0.
<mgrwt>
<rscale>  0 0.10215040E+04</rscale>
<asrwt>0</asrwt>
<pdfrwt beam="1">  1        2 0.16138259E+00 0.10785963E+04</pdfrwt>
<pdfrwt beam="2">  1       -2 0.17461550E+00 0.10785963E+04</pdfrwt>
<totfact> 0.45580354E+00</totfact>
</mgrwt>
</event>
<event>
 4    1  0.9654646E-007  0.7570207E+03  0.7818608E-02  0.9812883E-01
          2   -1    0    0  501    0  0.00000000000E+00  0.00000000000E+00  0.83944667678E+03  0.83944667679E+03  0.25500000000E-02 0. -1.
         -2   -1    0    0    0  501 -0.00000000000E+00 -0.00000000000E+00 -0.42249440473E+03  0.42249440473E+03  0.25500000000E-02 0.  1.
    8880023    1    1    2    0    0 -0.16242448040E+03  0.33598864705E+03  0.13279919205E+03  0.76858045412E+03  0.65864270000E+03 0.  0.
    8880022    1    1    2    0    0  0.16242448040E+03 -0.33598864705E+03  0.28415308000E+03  0.49336062740E+03  0.15294330000E+03 0.  0.
<mgrwt>
<rscale>  0 0.64675751E+03</rscale>
<asrwt>0</asrwt>
<pdfrwt beam="1">  1        2 0.12914564E+00 0.75702067E+03</pdfrwt>
<pdfrwt beam="2">  1       -2 0.64999140E-01 0.75702067E+03</pdfrwt>
<totfact> 0.71390943E+01</totfact>
</mgrwt>
</event>
<event>
 4    1  0.9654646E-007  0.1436884E+04  0.7818608E-02  0.8955540E-01
          2   -1    0    0  501    0  0.00000000000E+00  0.00000000000E+00  0.26333247256E+04  0.26333247256E+04  0.25500000000E-02 0. -1.
         -2   -1    0    0    0  501 -0.00000000000E+00 -0.00000000000E+00 -0.16605069221E+04  0.16605069221E+04  0.25500000000E-02 0.  1.
    8880023    1    1    2    0    0 -0.11233804824E+04 -0.60732281329E+03 -0.11305972142E+04  0.18283558118E+04  0.65864270000E+03 0.  1.
    8880022    1    1    2    0    0  0.11233804824E+04  0.60732281329E+03  0.21034150177E+04  0.24654758359E+04  0.15294330000E+03 0.  0.
<mgrwt>
<rscale>  0 0.13976237E+04</rscale>
<asrwt>0</asrwt>
<pdfrwt beam="1">  1        2 0.40512688E+00 0.14368838E+04</pdfrwt>
<pdfrwt beam="2">  1       -2 0.25546260E+00 0.14368838E+04</pdfrwt>
<totfact> 0.16369092E-01</totfact>
</mgrwt>
</event>
<event>
 4    1  0.9654646E-007  0.7451134E+03  0.7818608E-02  0.9845295E-01
          2   -1    0    0  501    0  0.00000000000E+00  0.00000000000E+00  0.67097015605E+03  0.67097015605E+03  0.25500000000E-02 0. -1.
         -2   -1    0    0    0  501 -0.00000000000E+00 -0.00000000000E+00 -0.74675101552E+03  0.74675101553E+03  0.25500000000E-02 0.  1.
    8880023    1    1    2    0    0 -0.32455096871E+03 -0.12669042361E+03 -0.46106193542E+03  0.87622606060E+03  0.65864270000E+03 0.  1.
    8880022    1    1    2    0    0  0.32455096871E+03  0.12669042361E+03  0.38528107594E+03  0.54149511098E+03  0.15294330000E+03 0.  0.
<mgrwt>
<rscale>  0 0.62987396E+03</rscale>
<asrwt>0</asrwt>
<pdfrwt beam="1">  1        2 0.10322618E+00 0.74511341E+03</pdfrwt>
<pdfrwt beam="2">  1       -2 0.11488477E+00 0.74511341E+03</pdfrwt>
<totfact> 0.25899210E+01</totfact>
</mgrwt>
</event>
<event>
 4    1  0.9654646E-007  0.6975652E+03  0.7818608E-02  0.1000746E+00
         -2   -1    0    0    0  501 -0.00000000000E+00  0.00000000000E+00  0.24813248915E+03  0.24813248916E+03  0.25500000000E-02 0.  1.
          2   -1    0    0  501    0  0.00000000000E+00 -0.00000000000E+00 -0.15142067916E+04  0.15142067916E+04  0.25500000000E-02 0. -1.
    8880023    1    1    2    0    0 -0.58182354758E+02 -0.22226526283E+03 -0.30306156919E+03  0.76055476755E+03  0.65864270000E+03 0.  1.
    8880022    1    1    2    0    0  0.58182354758E+02  0.22226526283E+03 -0.96301273324E+03  0.10017845132E+04  0.15294330000E+03 0.  0.
<mgrwt>
<rscale>  0 0.55324539E+03</rscale>
<asrwt>0</asrwt>
<pdfrwt beam="1">  1        2 0.23295489E+00 0.69756522E+03</pdfrwt>
<pdfrwt beam="2">  1       -2 0.38174230E-01 0.69756522E+03</pdfrwt>
<totfact> 0.82739552E+01</totfact>
</mgrwt>
</event>
<event>
 4    1  0.9654646E-007  0.1133400E+04  0.7818608E-02  0.9224750E-01
         -2   -1    0    0    0  501 -0.00000000000E+00  0.00000000000E+00  0.15188810315E+04  0.15188810315E+04  0.25500000000E-02 0.  1.
          2   -1    0    0  501    0  0.00000000000E+00 -0.00000000000E+00 -0.24171990274E+04  0.24171990274E+04  0.25500000000E-02 0. -1.
    8880023    1    1    2    0    0  0.73151342907E+03  0.56184845810E+03  0.11928301950E+04  0.16454299338E+04  0.65864270000E+03 0.  0.
    8880022    1    1    2    0    0 -0.73151342907E+03 -0.56184845810E+03 -0.20911481909E+04  0.22906501252E+04  0.15294330000E+03 0.  0.
<mgrwt>
<rscale>  0 0.10801582E+04</rscale>
<asrwt>0</asrwt>
<pdfrwt beam="1">  1        2 0.37187677E+00 0.11334001E+04</pdfrwt>
<pdfrwt beam="2">  1       -2 0.23367401E+00 0.11334001E+04</pdfrwt>
<totfact> 0.31061752E-01</totfact>
</mgrwt>
</event>
<event>
 4    1  0.9654646E-007  0.6846411E+03  0.7818608E-02  0.1006811E+00
         -2   -1    0    0    0  501 -0.00000000000E+00  0.00000000000E+00  0.77468167764E+03  0.77468167764E+03  0.25500000000E-02 0.  1.
          2   -1    0    0  501    0  0.00000000000E+00 -0.00000000000E+00 -0.66453330948E+03  0.66453330948E+03  0.25500000000E-02 0. -1.
    8880023    1    1    2    0    0 -0.18667453499E+03 -0.87124128711E+01  0.58885933000E+03  0.90304418770E+03  0.65864270000E+03 0.  1.
    8880022    1    1    2    0    0  0.18667453499E+03  0.87124128711E+01 -0.47871096184E+03  0.53617079942E+03  0.15294330000E+03 0.  0.
<mgrwt>
<rscale>  0 0.52761815E+03</rscale>
<asrwt>0</asrwt>
<pdfrwt beam="1">  1        2 0.10223589E+00 0.68464114E+03</pdfrwt>
<pdfrwt beam="2">  1       -2 0.11918180E+00 0.68464114E+03</pdfrwt>
<totfact> 0.24088294E+01</totfact>
</mgrwt>
</event>
<event>
 4    1  0.9654646E-007  0.8298389E+03  0.7818608E-02  0.9649646E-01
          2   -1    0    0  501    0  0.00000000000E+00  0.00000000000E+00  0.22957152104E+04  0.22957152104E+04  0.25500000000E-02 0. -1.
         -2   -1    0    0    0  501 -0.00000000000E+00 -0.00000000000E+00 -0.38157001466E+03  0.38157001467E+03  0.25500000000E-02 0.  1.
    8880023    1    1    2    0    0  0.50366571487E+03 -0.33811750142E+02  0.15943910001E+03  0.84501681620E+03  0.65864270000E+03 0.  1.
    8880022    1    1    2    0    0 -0.50366571487E+03  0.33811750142E+02  0.17547060958E+04  0.18322684089E+04  0.15294330000E+03 0.  0.
<mgrwt>
<rscale>  0 0.74095651E+03</rscale>
<asrwt>0</asrwt>
<pdfrwt beam="1">  1        2 0.35318696E+00 0.82983890E+03</pdfrwt>
<pdfrwt beam="2">  1       -2 0.58703078E-01 0.82983890E+03</pdfrwt>
<totfact> 0.12738158E+01</totfact>
</mgrwt>
</event>
<event>
 4    1  0.9654646E-007  0.8174375E+03  0.7818608E-02  0.9674288E-01
         -2   -1    0    0    0  501 -0.00000000000E+00  0.00000000000E+00  0.60637851259E+03  0.60637851259E+03  0.25500000000E-02 0.  1.
          2   -1    0    0  501    0  0.00000000000E+00 -0.00000000000E+00 -0.87332709659E+03  0.87332709659E+03  0.25500000000E-02 0. -1.
    8880023    1    1    2    0    0  0.48260595810E+03  0.38541108265E+02  0.13959646977E+03  0.82927155290E+03  0.65864270000E+03 0.  0.
    8880022    1    1    2    0    0 -0.48260595810E+03 -0.38541108265E+02 -0.40654505376E+03  0.65043405628E+03  0.15294330000E+03 0.  0.
<mgrwt>
<rscale>  0 0.72568519E+03</rscale>
<asrwt>0</asrwt>
<pdfrwt beam="1">  1        2 0.13435802E+00 0.81743754E+03</pdfrwt>
<pdfrwt beam="2">  1       -2 0.93289001E-01 0.81743754E+03</pdfrwt>
<totfact> 0.29996125E+01</totfact>
</mgrwt>
</event>
<event>
 4    1  0.9654646E-007  0.1134081E+04  0.7818608E-02  0.9224027E-01
          2   -1    0    0  501    0  0.00000000000E+00  0.00000000000E+00  0.94160039485E+03  0.94160039485E+03  0.25500000000E-02 0. -1.
         -2   -1    0    0    0  501 -0.00000000000E+00 -0.00000000000E+00 -0.15200032542E+04  0.15200032542E+04  0.25500000000E-02 0.  1.
    8880023    1    1    2    0    0 -0.83379331273E+03  0.39638279844E+03 -0.92520681807E+03  0.14636080328E+04  0.65864270000E+03 0.  1.
    8880022    1    1    2    0    0  0.83379331273E+03 -0.39638279844E+03  0.34680395871E+03  0.99799561624E+03  0.15294330000E+03 0.  0.
<mgrwt>
<rscale>  0 0.10808838E+04</rscale>
<asrwt>0</asrwt>
<pdfrwt beam="1">  1        2 0.14486160E+00 0.11340815E+04</pdfrwt>
<pdfrwt beam="2">  1       -2 0.23384665E+00 0.11340815E+04</pdfrwt>
<totfact> 0.21811061E+00</totfact>
</mgrwt>
</event>
<event>
 4    1  0.9654646E-007  0.7555696E+03  0.7818608E-02  0.9816715E-01
          2   -1    0    0  501    0  0.00000000000E+00  0.00000000000E+00  0.27808740118E+04  0.27808740118E+04  0.25500000000E-02 0. -1.
         -2   -1    0    0    0  501 -0.00000000000E+00 -0.00000000000E+00 -0.19181962327E+03  0.19181962329E+03  0.25500000000E-02 0.  1.
    8880023    1    1    2    0    0  0.25057613119E+03 -0.27255607501E+03  0.66234392795E+03  0.10047810193E+04  0.65864270000E+03 0.  1.
    8880022    1    1    2    0    0 -0.25057613119E+03  0.27255607501E+03  0.19267104605E+04  0.19679126158E+04  0.15294330000E+03 0.  0.
<mgrwt>
<rscale>  0 0.64473170E+03</rscale>
<asrwt>0</asrwt>
<pdfrwt beam="1">  1        2 0.42782674E+00 0.75556960E+03</pdfrwt>
<pdfrwt beam="2">  1       -2 0.29510713E-01 0.75556960E+03</pdfrwt>
<totfact> 0.26371963E+01</totfact>
</mgrwt>
</event>
<event>
 4    1  0.9654646E-007  0.7547089E+03  0.7818608E-02  0.9819003E-01
          2   -1    0    0  501    0  0.00000000000E+00  0.00000000000E+00  0.91453925480E+03  0.91453925481E+03  0.25500000000E-02 0. -1.
         -2   -1    0    0    0  501 -0.00000000000E+00 -0.00000000000E+00 -0.11738196337E+04  0.11738196337E+04  0.25500000000E-02 0.  1.
    8880023    1    1    2    0    0 -0.28712686644E+03  0.23094030518E+03 -0.99654283305E+03  0.12500732324E+04  0.65864270000E+03 0.  0.
    8880022    1    1    2    0    0  0.28712686644E+03 -0.23094030518E+03  0.73726245413E+03  0.83828565613E+03  0.15294330000E+03 0.  0.
<mgrwt>
<rscale>  0 0.64352613E+03</rscale>
<asrwt>0</asrwt>
<pdfrwt beam="1">  1        2 0.14069835E+00 0.75470886E+03</pdfrwt>
<pdfrwt beam="2">  1       -2 0.18058764E+00 0.75470886E+03</pdfrwt>
<totfact> 0.52514301E+00</totfact>
</mgrwt>
</event>
<event>
 4    1  0.9654646E-007  0.6733673E+03  0.7818608E-02  0.1013356E+00
          2   -1    0    0  501    0  0.00000000000E+00  0.00000000000E+00  0.12776850212E+04  0.12776850212E+04  0.25500000000E-02 0. -1.
         -2   -1    0    0    0  501 -0.00000000000E+00 -0.00000000000E+00 -0.30346696493E+03  0.30346696494E+03  0.25500000000E-02 0.  1.
    8880023    1    1    2    0    0 -0.13895677886E+03 -0.17446581902E+02  0.97678246564E+02  0.68041503197E+03  0.65864270000E+03 0.  1.
    8880022    1    1    2    0    0  0.13895677886E+03  0.17446581902E+02  0.87653980970E+03  0.90073695418E+03  0.15294330000E+03 0.  0.
<mgrwt>
<rscale>  0 0.50162472E+03</rscale>
<asrwt>0</asrwt>
<pdfrwt beam="1">  1        2 0.19656692E+00 0.67336734E+03</pdfrwt>
<pdfrwt beam="2">  1       -2 0.46687226E-01 0.67336734E+03</pdfrwt>
<totfact> 0.75912285E+01</totfact>
</mgrwt>
</event>
<event>
 4    1  0.9654646E-007  0.9665372E+03  0.7818608E-02  0.9426710E-01
          2   -1    0    0  501    0  0.00000000000E+00  0.00000000000E+00  0.42989250508E+04  0.42989250508E+04  0.25500000000E-02 0. -1.
         -2   -1    0    0    0  501 -0.00000000000E+00 -0.00000000000E+00 -0.24992094061E+03  0.24992094062E+03  0.25500000000E-02 0.  1.
    8880023    1    1    2    0    0  0.57695997918E+03  0.40926900324E+03  0.91007754127E+03  0.13275674265E+04  0.65864270000E+03 0.  0.
    8880022    1    1    2    0    0 -0.57695997918E+03 -0.40926900324E+03  0.31389265689E+04  0.32212785649E+04  0.15294330000E+03 0.  0.
<mgrwt>
<rscale>  0 0.89909811E+03</rscale>
<asrwt>0</asrwt>
<pdfrwt beam="1">  1        2 0.66137308E+00 0.96653719E+03</pdfrwt>
<pdfrwt beam="2">  1       -2 0.38449376E-01 0.96653719E+03</pdfrwt>
<totfact> 0.13042317E+00</totfact>
</mgrwt>
</event>
<event>
 4    1  0.9654646E-007  0.8433851E+03  0.7818608E-02  0.9623830E-01
          2   -1    0    0  501    0  0.00000000000E+00  0.00000000000E+00  0.19199592190E+04  0.19199592190E+04  0.25500000000E-02 0. -1.
         -2   -1    0    0    0  501 -0.00000000000E+00 -0.00000000000E+00 -0.65937091234E+03  0.65937091235E+03  0.25500000000E-02 0.  1.
    8880023    1    1    2    0    0  0.37693248637E+03 -0.36798107815E+03 -0.32323944523E+03  0.90320657569E+03  0.65864270000E+03 0.  1.
    8880022    1    1    2    0    0 -0.37693248637E+03  0.36798107815E+03  0.15838277519E+04  0.16761235556E+04  0.15294330000E+03 0.  0.
<mgrwt>
<rscale>  0 0.75738825E+03</rscale>
<asrwt>0</asrwt>
<pdfrwt beam="1">  1        2 0.29537834E+00 0.84338507E+03</pdfrwt>
<pdfrwt beam="2">  1       -2 0.10144168E+00 0.84338507E+03</pdfrwt>
<totfact> 0.60254444E+00</totfact>
</mgrwt>
</event>
<event>
 4    1  0.9654646E-007  0.7251456E+03  0.7818608E-02  0.9905545E-01
          2   -1    0    0  501    0  0.00000000000E+00  0.00000000000E+00  0.32744290127E+04  0.32744290127E+04  0.25500000000E-02 0. -1.
         -2   -1    0    0    0  501 -0.00000000000E+00 -0.00000000000E+00 -0.95194001781E+02  0.95194001815E+02  0.25500000000E-02 0.  1.
    8880023    1    1    2    0    0  0.18284679086E+03  0.24205987073E+03  0.16371294074E+04  0.17905386991E+04  0.65864270000E+03 0.  0.
    8880022    1    1    2    0    0 -0.18284679086E+03 -0.24205987073E+03  0.15421056034E+04  0.15790843154E+04  0.15294330000E+03 0.  0.
<mgrwt>
<rscale>  0 0.59993322E+03</rscale>
<asrwt>0</asrwt>
<pdfrwt beam="1">  1        2 0.50375843E+00 0.72514560E+03</pdfrwt>
<pdfrwt beam="2">  1       -2 0.14645228E-01 0.72514560E+03</pdfrwt>
<totfact> 0.45222715E+01</totfact>
</mgrwt>
</event>
<event>
 4    1  0.9654646E-007  0.8845278E+03  0.7818608E-02  0.9551340E-01
         -2   -1    0    0    0  501 -0.00000000000E+00  0.00000000000E+00  0.14459222908E+04  0.14459222908E+04  0.25500000000E-02 0.  1.
          2   -1    0    0  501    0  0.00000000000E+00 -0.00000000000E+00 -0.41516826643E+03  0.41516826644E+03  0.25500000000E-02 0. -1.
    8880023    1    1    2    0    0 -0.43663938940E+03 -0.39739808336E+03  0.84564033998E+03  0.12237225927E+04  0.65864270000E+03 0.  0.
    8880022    1    1    2    0    0  0.43663938940E+03  0.39739808336E+03  0.18511368437E+03  0.63736796452E+03  0.15294330000E+03 0.  0.
<mgrwt>
<rscale>  0 0.80602261E+03</rscale>
<asrwt>0</asrwt>
<pdfrwt beam="1">  1        2 0.63872041E-01 0.88452778E+03</pdfrwt>
<pdfrwt beam="2">  1       -2 0.22244958E+00 0.88452778E+03</pdfrwt>
<totfact> 0.73322756E+00</totfact>
</mgrwt>
</event>
<event>
 4    1  0.9654646E-007  0.9607012E+03  0.7818608E-02  0.9434882E-01
         -2   -1    0    0    0  501 -0.00000000000E+00  0.00000000000E+00  0.49129459706E+03  0.49129459707E+03  0.25500000000E-02 0.  1.
          2   -1    0    0  501    0  0.00000000000E+00 -0.00000000000E+00 -0.18413163820E+04  0.18413163820E+04  0.25500000000E-02 0. -1.
    8880023    1    1    2    0    0  0.40941319015E+02 -0.69818363557E+03 -0.20519918192E+03  0.98237136110E+03  0.65864270000E+03 0.  1.
    8880022    1    1    2    0    0 -0.40941319015E+02  0.69818363557E+03 -0.11448226031E+04  0.13502396180E+04  0.15294330000E+03 0. -1.
<mgrwt>
<rscale>  0 0.89259813E+03</rscale>
<asrwt>0</asrwt>
<pdfrwt beam="1">  1        2 0.28327944E+00 0.96070120E+03</pdfrwt>
<pdfrwt beam="2">  1       -2 0.75583785E-01 0.96070120E+03</pdfrwt>
<totfact> 0.12908198E+01</totfact>
</mgrwt>
</event>
<event>
 4    1  0.9654646E-007  0.6974790E+03  0.7818608E-02  0.1000782E+00
          2   -1    0    0  501    0  0.00000000000E+00  0.00000000000E+00  0.26035761171E+04  0.26035761171E+04  0.25500000000E-02 0. -1.
         -2   -1    0    0    0  501 -0.00000000000E+00 -0.00000000000E+00 -0.32450521671E+03  0.32450521672E+03  0.25500000000E-02 0.  1.
    8880023    1    1    2    0    0  0.12809249307E+03  0.19041798421E+03  0.69015633374E+02  0.70088519702E+03  0.65864270000E+03 0.  1.
    8880022    1    1    2    0    0 -0.12809249307E+03 -0.19041798421E+03  0.22100552670E+04  0.22271961368E+04  0.15294330000E+03 0.  0.
<mgrwt>
<rscale>  0 0.55308476E+03</rscale>
<asrwt>0</asrwt>
<pdfrwt beam="1">  1        2 0.40055016E+00 0.69747896E+03</pdfrwt>
<pdfrwt beam="2">  1       -2 0.49923882E-01 0.69747896E+03</pdfrwt>
<totfact> 0.12189877E+01</totfact>
</mgrwt>
</event>
<event>
 4    1  0.9654646E-007  0.9147901E+03  0.7818608E-02  0.9502694E-01
         -2   -1    0    0    0  501 -0.00000000000E+00  0.00000000000E+00  0.11089005631E+04  0.11089005631E+04  0.25500000000E-02 0.  1.
          2   -1    0    0  501    0  0.00000000000E+00 -0.00000000000E+00 -0.96808910172E+03  0.96808910173E+03  0.25500000000E-02 0. -1.
    8880023    1    1    2    0    0 -0.54759820322E+03  0.32119610200E+03  0.75076347983E+03  0.11834216227E+04  0.65864270000E+03 0.  1.
    8880022    1    1    2    0    0  0.54759820322E+03 -0.32119610200E+03 -0.60995201846E+03  0.89356804215E+03  0.15294330000E+03 0.  0.
<mgrwt>
<rscale>  0 0.84085496E+03</rscale>
<asrwt>0</asrwt>
<pdfrwt beam="1">  1        2 0.14893678E+00 0.91479010E+03</pdfrwt>
<pdfrwt beam="2">  1       -2 0.17060009E+00 0.91479010E+03</pdfrwt>
<totfact> 0.55753646E+00</totfact>
</mgrwt>
</event>
<event>
 4    1  0.9654646E-007  0.6624069E+03  0.7818608E-02  0.1021816E+00
         -2   -1    0    0    0  501 -0.00000000000E+00  0.00000000000E+00  0.52052378808E+03  0.52052378809E+03  0.25500000000E-02 0.  1.
          2   -1    0    0  501    0  0.00000000000E+00 -0.00000000000E+00 -0.73307155686E+03  0.73307155686E+03  0.25500000000E-02 0. -1.
    8880023    1    1    2    0    0 -0.50901529646E+02 -0.48802572401E+02  0.29034934722E+03  0.72324657378E+03  0.65864270000E+03 0.  1.
    8880022    1    1    2    0    0  0.50901529646E+02  0.48802572401E+02 -0.50289711599E+03  0.53034877117E+03  0.15294330000E+03 0.  0.
<mgrwt>
<rscale>  0 0.47037058E+03</rscale>
<asrwt>0</asrwt>
<pdfrwt beam="1">  1        2 0.11278024E+00 0.66240687E+03</pdfrwt>
<pdfrwt beam="2">  1       -2 0.80080582E-01 0.66240687E+03</pdfrwt>
<totfact> 0.54343583E+01</totfact>
</mgrwt>
</event>
<event>
 4    1  0.9654646E-007  0.7833582E+03  0.7818608E-02  0.9748007E-01
         -2   -1    0    0    0  501 -0.00000000000E+00  0.00000000000E+00  0.12211243969E+04  0.12211243969E+04  0.25500000000E-02 0.  1.
          2   -1    0    0  501    0  0.00000000000E+00 -0.00000000000E+00 -0.80584479021E+03  0.80584479021E+03  0.25500000000E-02 0. -1.
    8880023    1    1    2    0    0 -0.30450072406E+03 -0.29515962044E+03  0.10115830900E+04  0.12794336429E+04  0.65864270000E+03 0.  1.
    8880022    1    1    2    0    0  0.30450072406E+03  0.29515962044E+03 -0.59630348333E+03  0.74753554413E+03  0.15294330000E+03 0.  0.
<mgrwt>
<rscale>  0 0.68229029E+03</rscale>
<asrwt>0</asrwt>
<pdfrwt beam="1">  1        2 0.12397612E+00 0.78335822E+03</pdfrwt>
<pdfrwt beam="2">  1       -2 0.18786529E+00 0.78335822E+03</pdfrwt>
<totfact> 0.55524022E+00</totfact>
</mgrwt>
</event>
<event>
 4    1  0.9654646E-007  0.7019141E+03  0.7818608E-02  0.9989351E-01
         -2   -1    0    0    0  501 -0.00000000000E+00  0.00000000000E+00  0.66405689617E+03  0.66405689617E+03  0.25500000000E-02 0.  1.
          2   -1    0    0  501    0  0.00000000000E+00 -0.00000000000E+00 -0.38910642861E+03  0.38910642862E+03  0.25500000000E-02 0. -1.
    8880023    1    1    2    0    0 -0.10350616244E+03  0.21945321513E+03  0.30391863199E+03  0.76488559957E+03  0.65864270000E+03 0. -1.
    8880022    1    1    2    0    0  0.10350616244E+03 -0.21945321513E+03 -0.28968164441E+02  0.28827772522E+03  0.15294330000E+03 0.  0.
<mgrwt>
<rscale>  0 0.56119631E+03</rscale>
<asrwt>0</asrwt>
<pdfrwt beam="1">  1        2 0.59862528E-01 0.70191413E+03</pdfrwt>
<pdfrwt beam="2">  1       -2 0.10216260E+00 0.70191413E+03</pdfrwt>
<totfact> 0.65276626E+01</totfact>
</mgrwt>
</event>
<event>
 4    1  0.9654646E-007  0.7910110E+03  0.7818608E-02  0.9730580E-01
          2   -1    0    0  501    0  0.00000000000E+00  0.00000000000E+00  0.13606400011E+04  0.13606400011E+04  0.25500000000E-02 0. -1.
         -2   -1    0    0    0  501 -0.00000000000E+00 -0.00000000000E+00 -0.67156841100E+03  0.67156841101E+03  0.25500000000E-02 0.  1.
    8880023    1    1    2    0    0  0.20048593637E+03 -0.38947856028E+03 -0.37200661362E+03  0.87412086489E+03  0.65864270000E+03 0.  1.
    8880022    1    1    2    0    0 -0.20048593637E+03  0.38947856028E+03  0.10610782037E+04  0.11580875472E+04  0.15294330000E+03 0.  0.
<mgrwt>
<rscale>  0 0.69224893E+03</rscale>
<asrwt>0</asrwt>
<pdfrwt beam="1">  1        2 0.20932923E+00 0.79101098E+03</pdfrwt>
<pdfrwt beam="2">  1       -2 0.10331822E+00 0.79101098E+03</pdfrwt>
<totfact> 0.11845503E+01</totfact>
</mgrwt>
</event>
<event>
 4    1  0.9654646E-007  0.7876934E+03  0.7818608E-02  0.9738066E-01
         -2   -1    0    0    0  501 -0.00000000000E+00  0.00000000000E+00  0.39191794253E+03  0.39191794254E+03  0.25500000000E-02 0.  1.
          2   -1    0    0  501    0  0.00000000000E+00 -0.00000000000E+00 -0.18794743965E+04  0.18794743965E+04  0.25500000000E-02 0. -1.
    8880023    1    1    2    0    0  0.36614648291E+03  0.22931942833E+03 -0.80756796126E+02  0.79182227396E+03  0.65864270000E+03 0.  1.
    8880022    1    1    2    0    0 -0.36614648291E+03 -0.22931942833E+03 -0.14067996578E+04  0.14795700650E+04  0.15294330000E+03 0.  0.
<mgrwt>
<rscale>  0 0.68794899E+03</rscale>
<asrwt>0</asrwt>
<pdfrwt beam="1">  1        2 0.28914990E+00 0.78769338E+03</pdfrwt>
<pdfrwt beam="2">  1       -2 0.60295069E-01 0.78769338E+03</pdfrwt>
<totfact> 0.20506132E+01</totfact>
</mgrwt>
</event>
<event>
 4    1  0.9654646E-007  0.1150957E+04  0.7818608E-02  0.9206336E-01
          2   -1    0    0  501    0  0.00000000000E+00  0.00000000000E+00  0.93013042048E+03  0.93013042049E+03  0.25500000000E-02 0. -1.
         -2   -1    0    0    0  501 -0.00000000000E+00 -0.00000000000E+00 -0.12792452179E+04  0.12792452179E+04  0.25500000000E-02 0.  1.
    8880023    1    1    2    0    0  0.54142799967E+03 -0.77314083987E+03 -0.47465274886E+03  0.12449885443E+04  0.65864270000E+03 0.  0.
    8880022    1    1    2    0    0 -0.54142799967E+03  0.77314083987E+03  0.12553795141E+03  0.96438709415E+03  0.15294330000E+03 0.  0.
<mgrwt>
<rscale>  0 0.10988269E+04</rscale>
<asrwt>0</asrwt>
<pdfrwt beam="1">  1        2 0.14309699E+00 0.11509567E+04</pdfrwt>
<pdfrwt beam="2">  1       -2 0.19680696E+00 0.11509567E+04</pdfrwt>
<totfact> 0.38197387E+00</totfact>
</mgrwt>
</event>
<event>
 4    1  0.9654646E-007  0.8629705E+03  0.7818608E-02  0.9588301E-01
         -2   -1    0    0    0  501 -0.00000000000E+00  0.00000000000E+00  0.48455194257E+03  0.48455194257E+03  0.25500000000E-02 0.  1.
          2   -1    0    0  501    0  0.00000000000E+00 -0.00000000000E+00 -0.21150879051E+04  0.21150879051E+04  0.25500000000E-02 0. -1.
    8880023    1    1    2    0    0  0.55722578438E+03 -0.20183796250E+02  0.70296693576E+01  0.86299917898E+03  0.65864270000E+03 0.  0.
    8880022    1    1    2    0    0 -0.55722578438E+03  0.20183796250E+02 -0.16375656319E+04  0.17366406687E+04  0.15294330000E+03 0.  0.
<mgrwt>
<rscale>  0 0.78075355E+03</rscale>
<asrwt>0</asrwt>
<pdfrwt beam="1">  1        2 0.32539813E+00 0.86297055E+03</pdfrwt>
<pdfrwt beam="2">  1       -2 0.74546454E-01 0.86297055E+03</pdfrwt>
<totfact> 0.95264908E+00</totfact>
</mgrwt>
</event>
<event>
 4    1  0.9654646E-007  0.6822753E+03  0.7818608E-02  0.1008065E+00
         -2   -1    0    0    0  501 -0.00000000000E+00  0.00000000000E+00  0.27071420207E+03  0.27071420208E+03  0.25500000000E-02 0.  1.
          2   -1    0    0  501    0  0.00000000000E+00 -0.00000000000E+00 -0.14995326099E+04  0.14995326099E+04  0.25500000000E-02 0. -1.
    8880023    1    1    2    0    0  0.16334484769E+03  0.70765949593E+02 -0.19424550937E+03  0.70938768178E+03  0.65864270000E+03 0.  1.
    8880022    1    1    2    0    0 -0.16334484769E+03 -0.70765949593E+02 -0.10345728985E+04  0.10608591302E+04  0.15294330000E+03 0.  0.
<mgrwt>
<rscale>  0 0.52251044E+03</rscale>
<asrwt>0</asrwt>
<pdfrwt beam="1">  1        2 0.23069732E+00 0.68227529E+03</pdfrwt>
<pdfrwt beam="2">  1       -2 0.41648340E-01 0.68227529E+03</pdfrwt>
<totfact> 0.71271390E+01</totfact>
</mgrwt>
</event>
<event>
 4    1  0.9654646E-007  0.6880803E+03  0.7818608E-02  0.1005079E+00
         -2   -1    0    0    0  501 -0.00000000000E+00  0.00000000000E+00  0.39474537665E+03  0.39474537665E+03  0.25500000000E-02 0.  1.
          2   -1    0    0  501    0  0.00000000000E+00 -0.00000000000E+00 -0.92387805262E+03  0.92387805262E+03  0.25500000000E-02 0. -1.
    8880023    1    1    2    0    0  0.17281909453E+03  0.98882739349E+02  0.47484768439E+02  0.68971678613E+03  0.65864270000E+03 0.  1.
    8880022    1    1    2    0    0 -0.17281909453E+03 -0.98882739349E+02 -0.57661744441E+03  0.62890664315E+03  0.15294330000E+03 0.  0.
<mgrwt>
<rscale>  0 0.53478326E+03</rscale>
<asrwt>0</asrwt>
<pdfrwt beam="1">  1        2 0.14213508E+00 0.68808026E+03</pdfrwt>
<pdfrwt beam="2">  1       -2 0.60730058E-01 0.68808026E+03</pdfrwt>
<totfact> 0.72688194E+01</totfact>
</mgrwt>
</event>
<event>
 4    1  0.9654646E-007  0.9344473E+03  0.7818608E-02  0.9472853E-01
          2   -1    0    0  501    0  0.00000000000E+00  0.00000000000E+00  0.19092056603E+04  0.19092056603E+04  0.25500000000E-02 0. -1.
         -2   -1    0    0    0  501 -0.00000000000E+00 -0.00000000000E+00 -0.43087176555E+03  0.43087176556E+03  0.25500000000E-02 0.  1.
    8880023    1    1    2    0    0  0.59762529166E+03 -0.28674994832E+03  0.30349222298E+03  0.98249644160E+03  0.65864270000E+03 0.  0.
    8880022    1    1    2    0    0 -0.59762529166E+03  0.28674994832E+03  0.11748416717E+04  0.13575809842E+04  0.15294330000E+03 0.  0.
<mgrwt>
<rscale>  0 0.86315169E+03</rscale>
<asrwt>0</asrwt>
<pdfrwt beam="1">  1        2 0.29372396E+00 0.93444728E+03</pdfrwt>
<pdfrwt beam="2">  1       -2 0.66287962E-01 0.93444728E+03</pdfrwt>
<totfact> 0.15848493E+01</totfact>
</mgrwt>
</event>
<event>
 4    1  0.9654646E-007  0.1177978E+04  0.7818608E-02  0.9178833E-01
         -2   -1    0    0    0  501 -0.00000000000E+00  0.00000000000E+00  0.53704104431E+03  0.53704104431E+03  0.25500000000E-02 0.  1.
          2   -1    0    0  501    0  0.00000000000E+00 -0.00000000000E+00 -0.22511927520E+04  0.22511927520E+04  0.25500000000E-02 0. -1.
    8880023    1    1    2    0    0  0.54938442465E+03 -0.80746385609E+03 -0.69170104506E+03  0.13660459974E+04  0.65864270000E+03 0.  0.
    8880022    1    1    2    0    0 -0.54938442465E+03  0.80746385609E+03 -0.10224506627E+04  0.14221877990E+04  0.15294330000E+03 0.  0.
<mgrwt>
<rscale>  0 0.11274607E+04</rscale>
<asrwt>0</asrwt>
<pdfrwt beam="1">  1        2 0.34633734E+00 0.11779776E+04</pdfrwt>
<pdfrwt beam="2">  1       -2 0.82621700E-01 0.11779776E+04</pdfrwt>
<totfact> 0.61198505E+00</totfact>
</mgrwt>
</event>
<event>
 4    1  0.9654646E-007  0.7373945E+03  0.7818608E-02  0.9867603E-01
          2   -1    0    0  501    0  0.00000000000E+00  0.00000000000E+00  0.15741498560E+04  0.15741498560E+04  0.25500000000E-02 0. -1.
         -2   -1    0    0    0  501 -0.00000000000E+00 -0.00000000000E+00 -0.42492350247E+03  0.42492350248E+03  0.25500000000E-02 0.  1.
    8880023    1    1    2    0    0  0.23993646537E+03  0.22884700900E+03 -0.56221912246E+02  0.73953469873E+03  0.65864270000E+03 0.  1.
    8880022    1    1    2    0    0 -0.23993646537E+03 -0.22884700900E+03  0.12054482658E+04  0.12595386598E+04  0.15294330000E+03 0.  0.
<mgrwt>
<rscale>  0 0.61857416E+03</rscale>
<asrwt>0</asrwt>
<pdfrwt beam="1">  1        2 0.24217690E+00 0.73739451E+03</pdfrwt>
<pdfrwt beam="2">  1       -2 0.65372846E-01 0.73739451E+03</pdfrwt>
<totfact> 0.25521973E+01</totfact>
</mgrwt>
</event>
<event>
 4    1  0.9654646E-007  0.7331453E+03  0.7818608E-02  0.9880384E-01
         -2   -1    0    0    0  501 -0.00000000000E+00  0.00000000000E+00  0.64590745804E+03  0.64590745804E+03  0.25500000000E-02 0.  1.
          2   -1    0    0  501    0  0.00000000000E+00 -0.00000000000E+00 -0.79741448503E+03  0.79741448503E+03  0.25500000000E-02 0. -1.
    8880023    1    1    2    0    0  0.12929505648E+03 -0.29491460736E+03  0.36244043493E+03  0.81784174044E+03  0.65864270000E+03 0.  1.
    8880022    1    1    2    0    0 -0.12929505648E+03  0.29491460736E+03 -0.51394746192E+03  0.62548020264E+03  0.15294330000E+03 0.  0.
<mgrwt>
<rscale>  0 0.61221461E+03</rscale>
<asrwt>0</asrwt>
<pdfrwt beam="1">  1        2 0.12267915E+00 0.73314531E+03</pdfrwt>
<pdfrwt beam="2">  1       -2 0.99370377E-01 0.73314531E+03</pdfrwt>
<totfact> 0.29461807E+01</totfact>
</mgrwt>
</event>
<event>
 4    1  0.9654646E-007  0.6842967E+03  0.7818608E-02  0.1006991E+00
          2   -1    0    0  501    0  0.00000000000E+00  0.00000000000E+00  0.78534751155E+03  0.78534751156E+03  0.25500000000E-02 0. -1.
         -2   -1    0    0    0  501 -0.00000000000E+00 -0.00000000000E+00 -0.27283407572E+03  0.27283407573E+03  0.25500000000E-02 0.  1.
    8880023    1    1    2    0    0  0.16521226468E+03  0.84596985217E+02  0.35758605149E+03  0.77209438075E+03  0.65864270000E+03 0.  1.
    8880022    1    1    2    0    0 -0.16521226468E+03 -0.84596985217E+02  0.15492738434E+03  0.28608720653E+03  0.15294330000E+03 0.  1.
<mgrwt>
<rscale>  0 0.52688405E+03</rscale>
<asrwt>0</asrwt>
<pdfrwt beam="1">  1        2 0.12082269E+00 0.68429668E+03</pdfrwt>
<pdfrwt beam="2">  1       -2 0.41974474E-01 0.68429668E+03</pdfrwt>
<totfact> 0.19242269E+02</totfact>
</mgrwt>
</event>
<event>
 4    1  0.9654646E-007  0.8609738E+03  0.7818608E-02  0.9591834E-01
         -2   -1    0    0    0  501 -0.00000000000E+00  0.00000000000E+00  0.31971000921E+03  0.31971000922E+03  0.25500000000E-02 0.  1.
          2   -1    0    0  501    0  0.00000000000E+00 -0.00000000000E+00 -0.28463429240E+04  0.28463429240E+04  0.25500000000E-02 0. -1.
    8880023    1    1    2    0    0 -0.20278536974E+03  0.51608511620E+03 -0.37541355269E+03  0.93926103675E+03  0.65864270000E+03 0.  1.
    8880022    1    1    2    0    0  0.20278536974E+03 -0.51608511620E+03 -0.21512193621E+04  0.22267918965E+04  0.15294330000E+03 0.  0.
<mgrwt>
<rscale>  0 0.77839059E+03</rscale>
<asrwt>0</asrwt>
<pdfrwt beam="1">  1        2 0.43789889E+00 0.86097384E+03</pdfrwt>
<pdfrwt beam="2">  1       -2 0.49186157E-01 0.86097384E+03</pdfrwt>
<totfact> 0.88172704E+00</totfact>
</mgrwt>
</event>
<event>
 4    1  0.9654646E-007  0.7208576E+03  0.7818608E-02  0.9919695E-01
         -2   -1    0    0    0  501 -0.00000000000E+00  0.00000000000E+00  0.10474171118E+03  0.10474171121E+03  0.25500000000E-02 0.  1.
          2   -1    0    0  501    0  0.00000000000E+00 -0.00000000000E+00 -0.26911083060E+04  0.26911083060E+04  0.25500000000E-02 0. -1.
    8880023    1    1    2    0    0 -0.28087078239E+03  0.83288785950E+02 -0.19462324512E+04  0.20754412491E+04  0.65864270000E+03 0.  0.
    8880022    1    1    2    0    0  0.28087078239E+03 -0.83288785950E+02 -0.64013414362E+03  0.72040876807E+03  0.15294330000E+03 0.  0.
<mgrwt>
<rscale>  0 0.59316212E+03</rscale>
<asrwt>0</asrwt>
<pdfrwt beam="1">  1        2 0.41401661E+00 0.72085756E+03</pdfrwt>
<pdfrwt beam="2">  1       -2 0.16114111E-01 0.72085756E+03</pdfrwt>
<totfact> 0.87390583E+01</totfact>
</mgrwt>
</event>
<event>
 4    1  0.9654646E-007  0.6942696E+03  0.7818608E-02  0.1002186E+00
         -2   -1    0    0    0  501 -0.00000000000E+00  0.00000000000E+00  0.41154933340E+03  0.41154933340E+03  0.25500000000E-02 0.  1.
          2   -1    0    0  501    0  0.00000000000E+00 -0.00000000000E+00 -0.14243436191E+04  0.14243436191E+04  0.25500000000E-02 0. -1.
    8880023    1    1    2    0    0 -0.13334098445E+03  0.17441400877E+03  0.90930761559E+02  0.70019902474E+03  0.65864270000E+03 0.  0.
    8880022    1    1    2    0    0  0.13334098445E+03 -0.17441400877E+03 -0.11037250472E+04  0.11356939277E+04  0.15294330000E+03 0.  0.
<mgrwt>
<rscale>  0 0.54702095E+03</rscale>
<asrwt>0</asrwt>
<pdfrwt beam="1">  1        2 0.21912978E+00 0.69426960E+03</pdfrwt>
<pdfrwt beam="2">  1       -2 0.63315283E-01 0.69426960E+03</pdfrwt>
<totfact> 0.33287000E+01</totfact>
</mgrwt>
</event>
<event>
 4    1  0.9654646E-007  0.6867550E+03  0.7818608E-02  0.1005735E+00
         -2   -1    0    0    0  501 -0.00000000000E+00  0.00000000000E+00  0.90798606922E+03  0.90798606923E+03  0.25500000000E-02 0.  1.
          2   -1    0    0  501    0  0.00000000000E+00 -0.00000000000E+00 -0.63701641332E+03  0.63701641332E+03  0.25500000000E-02 0. -1.
    8880023    1    1    2    0    0 -0.12878060648E+03 -0.14573185604E+03  0.74317879372E+03  0.10119027345E+04  0.65864270000E+03 0.  1.
    8880022    1    1    2    0    0  0.12878060648E+03  0.14573185604E+03 -0.47220913782E+03  0.53309974801E+03  0.15294330000E+03 0.  0.
<mgrwt>
<rscale>  0 0.53205631E+03</rscale>
<asrwt>0</asrwt>
<pdfrwt beam="1">  1        2 0.98002525E-01 0.68675500E+03</pdfrwt>
<pdfrwt beam="2">  1       -2 0.13969016E+00 0.68675500E+03</pdfrwt>
<totfact> 0.16993027E+01</totfact>
</mgrwt>
</event>
<event>
 4    1  0.9654646E-007  0.7132924E+03  0.7818608E-02  0.9945972E-01
         -2   -1    0    0    0  501 -0.00000000000E+00  0.00000000000E+00  0.66518465530E+03  0.66518465530E+03  0.25500000000E-02 0.  1.
          2   -1    0    0  501    0  0.00000000000E+00 -0.00000000000E+00 -0.11895916740E+04  0.11895916740E+04  0.25500000000E-02 0. -1.
    8880023    1    1    2    0    0 -0.99997567432E+02  0.25490454657E+03  0.44173829194E+03  0.83899866876E+03  0.65864270000E+03 0.  1.
    8880022    1    1    2    0    0  0.99997567432E+02 -0.25490454657E+03 -0.96614531064E+03  0.10157776605E+04  0.15294330000E+03 0.  0.
<mgrwt>
<rscale>  0 0.58084085E+03</rscale>
<asrwt>0</asrwt>
<pdfrwt beam="1">  1        2 0.18301410E+00 0.71329240E+03</pdfrwt>
<pdfrwt beam="2">  1       -2 0.10233610E+00 0.71329240E+03</pdfrwt>
<totfact> 0.15377599E+01</totfact>
</mgrwt>
</event>
<event>
 4    1  0.9654646E-007  0.6717525E+03  0.7818608E-02  0.1014437E+00
         -2   -1    0    0    0  501 -0.00000000000E+00  0.00000000000E+00  0.32921639111E+03  0.32921639112E+03  0.25500000000E-02 0.  1.
          2   -1    0    0  501    0  0.00000000000E+00 -0.00000000000E+00 -0.10875260832E+04  0.10875260832E+04  0.25500000000E-02 0. -1.
    8880023    1    1    2    0    0 -0.12802084826E+03 -0.32431989564E+02 -0.42653733310E+02  0.67310528059E+03  0.65864270000E+03 0.  0.
    8880022    1    1    2    0    0  0.12802084826E+03  0.32431989564E+02 -0.71565595877E+03  0.74363719371E+03  0.15294330000E+03 0.  0.
<mgrwt>
<rscale>  0 0.49748860E+03</rscale>
<asrwt>0</asrwt>
<pdfrwt beam="1">  1        2 0.16731170E+00 0.67175247E+03</pdfrwt>
<pdfrwt beam="2">  1       -2 0.50648676E-01 0.67175247E+03</pdfrwt>
<totfact> 0.83513260E+01</totfact>
</mgrwt>
</event>
<event>
 4    1  0.9654646E-007  0.7811447E+03  0.7818608E-02  0.9753155E-01
         -2   -1    0    0    0  501 -0.00000000000E+00  0.00000000000E+00  0.45792069998E+03  0.45792069999E+03  0.25500000000E-02 0.  1.
          2   -1    0    0  501    0  0.00000000000E+00 -0.00000000000E+00 -0.93479748875E+03  0.93479748876E+03  0.25500000000E-02 0. -1.
    8880023    1    1    2    0    0  0.50972367255E+01 -0.41994142174E+03 -0.63186689559E+02  0.78369607854E+03  0.65864270000E+03 0.  0.
    8880022    1    1    2    0    0 -0.50972367255E+01  0.41994142174E+03 -0.41369009921E+03  0.60902211021E+03  0.15294330000E+03 0.  0.
<mgrwt>
<rscale>  0 0.67938266E+03</rscale>
<asrwt>0</asrwt>
<pdfrwt beam="1">  1        2 0.14381500E+00 0.78114466E+03</pdfrwt>
<pdfrwt beam="2">  1       -2 0.70449338E-01 0.78114466E+03</pdfrwt>
<totfact> 0.51555641E+01</totfact>
</mgrwt>
</event>
<event>
 4    1  0.9654646E-007  0.7091772E+03  0.7818608E-02  0.9961069E-01
         -2   -1    0    0    0  501 -0.00000000000E+00  0.00000000000E+00  0.31374597613E+03  0.31374597614E+03  0.25500000000E-02 0.  1.
          2   -1    0    0  501    0  0.00000000000E+00 -0.00000000000E+00 -0.13189481752E+04  0.13189481752E+04  0.25500000000E-02 0. -1.
    8880023    1    1    2    0    0 -0.26285217921E+03  0.55517462370E+01 -0.14980119163E+03  0.72482597448E+03  0.65864270000E+03 0.  1.
    8880022    1    1    2    0    0  0.26285217921E+03 -0.55517462370E+01 -0.85540100743E+03  0.90786817685E+03  0.15294330000E+03 0.  0.
<mgrwt>
<rscale>  0 0.57390744E+03</rscale>
<asrwt>0</asrwt>
<pdfrwt beam="1">  1        2 0.20291510E+00 0.70917720E+03</pdfrwt>
<pdfrwt beam="2">  1       -2 0.48268612E-01 0.70917720E+03</pdfrwt>
<totfact> 0.66976772E+01</totfact>
</mgrwt>
</event>
<event>
 4    1  0.9654646E-007  0.6818919E+03  0.7818608E-02  0.1008273E+00
         -2   -1    0    0    0  501 -0.00000000000E+00  0.00000000000E+00  0.19205348904E+03  0.19205348905E+03  0.25500000000E-02 0.  1.
          2   -1    0    0  501    0  0.00000000000E+00 -0.00000000000E+00 -0.17626003145E+04  0.17626003145E+04  0.25500000000E-02 0. -1.
    8880023    1    1    2    0    0 -0.15006759940E+03  0.92984154814E+02 -0.46656314206E+03  0.82623102654E+03  0.65864270000E+03 0.  1.
    8880022    1    1    2    0    0  0.15006759940E+03 -0.92984154814E+02 -0.11039836834E+04  0.11284227770E+04  0.15294330000E+03 0.  0.
<mgrwt>
<rscale>  0 0.52166769E+03</rscale>
<asrwt>0</asrwt>
<pdfrwt beam="1">  1        2 0.27116927E+00 0.68189189E+03</pdfrwt>
<pdfrwt beam="2">  1       -2 0.29546692E-01 0.68189189E+03</pdfrwt>
<totfact> 0.98264335E+01</totfact>
</mgrwt>
</event>
<event>
 4    1  0.9654646E-007  0.1074067E+04  0.7818608E-02  0.9290494E-01
         -2   -1    0    0    0  501 -0.00000000000E+00  0.00000000000E+00  0.61495444574E+03  0.61495444574E+03  0.25500000000E-02 0.  1.
          2   -1    0    0  501    0  0.00000000000E+00 -0.00000000000E+00 -0.21778692113E+04  0.21778692113E+04  0.25500000000E-02 0. -1.
    8880023    1    1    2    0    0 -0.18011341409E+03 -0.82907715794E+03 -0.79384983998E+02  0.10769967306E+04  0.65864270000E+03 0.  0.
    8880022    1    1    2    0    0  0.18011341409E+03  0.82907715794E+03 -0.14835297816E+04  0.17158269265E+04  0.15294330000E+03 0.  0.
<mgrwt>
<rscale>  0 0.10166275E+04</rscale>
<asrwt>0</asrwt>
<pdfrwt beam="1">  1        2 0.33505680E+00 0.10740670E+04</pdfrwt>
<pdfrwt beam="2">  1       -2 0.94608377E-01 0.10740670E+04</pdfrwt>
<totfact> 0.49734031E+00</totfact>
</mgrwt>
</event>
<event>
 4    1  0.9654646E-007  0.7908368E+03  0.7818608E-02  0.9730971E-01
          2   -1    0    0  501    0  0.00000000000E+00  0.00000000000E+00  0.14292817075E+04  0.14292817075E+04  0.25500000000E-02 0. -1.
         -2   -1    0    0    0  501 -0.00000000000E+00 -0.00000000000E+00 -0.28512217520E+03  0.28512217521E+03  0.25500000000E-02 0.  1.
    8880023    1    1    2    0    0  0.11640354200E+03  0.42197491234E+03  0.56219307266E+03  0.97030091644E+03  0.65864270000E+03 0.  0.
    8880022    1    1    2    0    0 -0.11640354200E+03 -0.42197491234E+03  0.58196645962E+03  0.74410296624E+03  0.15294330000E+03 0. -1.
<mgrwt>
<rscale>  0 0.69202380E+03</rscale>
<asrwt>0</asrwt>
<pdfrwt beam="1">  1        2 0.21988949E+00 0.79083678E+03</pdfrwt>
<pdfrwt beam="2">  1       -2 0.43864950E-01 0.79083678E+03</pdfrwt>
<totfact> 0.69680975E+01</totfact>
</mgrwt>
</event>
<event>
 4    1  0.9654646E-007  0.1775081E+04  0.7818608E-02  0.8736447E-01
          2   -1    0    0  501    0  0.00000000000E+00  0.00000000000E+00  0.11471967012E+04  0.11471967012E+04  0.25500000000E-02 0. -1.
         -2   -1    0    0    0  501 -0.00000000000E+00 -0.00000000000E+00 -0.27108584905E+04  0.27108584905E+04  0.25500000000E-02 0.  1.
    8880023    1    1    2    0    0  0.37317695803E+01  0.16483591464E+04 -0.35984580071E+03  0.18111877341E+04  0.65864270000E+03 0.  0.
    8880022    1    1    2    0    0 -0.37317695803E+01 -0.16483591464E+04 -0.12038159886E+04  0.20468674576E+04  0.15294330000E+03 0.  0.
<mgrwt>
<rscale>  0 0.17443844E+04</rscale>
<asrwt>0</asrwt>
<pdfrwt beam="1">  1        2 0.17649180E+00 0.17750808E+04</pdfrwt>
<pdfrwt beam="2">  1       -2 0.41705515E+00 0.17750808E+04</pdfrwt>
<totfact> 0.10746893E-01</totfact>
</mgrwt>
</event>
<event>
 4    1  0.9654646E-007  0.7402693E+03  0.7818608E-02  0.9859163E-01
         -2   -1    0    0    0  501 -0.00000000000E+00  0.00000000000E+00  0.94585979275E+03  0.94585979275E+03  0.25500000000E-02 0.  1.
          2   -1    0    0  501    0  0.00000000000E+00 -0.00000000000E+00 -0.56137794984E+03  0.56137794984E+03  0.25500000000E-02 0. -1.
    8880023    1    1    2    0    0 -0.15511514033E+03  0.30021275195E+03  0.70108823643E+03  0.10195701666E+04  0.65864270000E+03 0.  1.
    8880022    1    1    2    0    0  0.15511514033E+03 -0.30021275195E+03 -0.31660639352E+03  0.48766757595E+03  0.15294330000E+03 0.  0.
<mgrwt>
<rscale>  0 0.62281883E+03</rscale>
<asrwt>0</asrwt>
<pdfrwt beam="1">  1        2 0.86365840E-01 0.74026928E+03</pdfrwt>
<pdfrwt beam="2">  1       -2 0.14551689E+00 0.74026928E+03</pdfrwt>
<totfact> 0.17698020E+01</totfact>
</mgrwt>
</event>
<event>
 4    1  0.9654646E-007  0.7368962E+03  0.7818608E-02  0.9869082E-01
          2   -1    0    0  501    0  0.00000000000E+00  0.00000000000E+00  0.32845281838E+03  0.32845281839E+03  0.25500000000E-02 0. -1.
         -2   -1    0    0    0  501 -0.00000000000E+00 -0.00000000000E+00 -0.96543423273E+03  0.96543423273E+03  0.25500000000E-02 0.  1.
    8880023    1    1    2    0    0 -0.29930721409E+03 -0.14007506730E+03 -0.54995559592E+03  0.91949290190E+03  0.65864270000E+03 0.  0.
    8880022    1    1    2    0    0  0.29930721409E+03  0.14007506730E+03 -0.87025818430E+02  0.37439414922E+03  0.15294330000E+03 0.  0.
<mgrwt>
<rscale>  0 0.61783379E+03</rscale>
<asrwt>0</asrwt>
<pdfrwt beam="1">  1        2 0.50531203E-01 0.73689622E+03</pdfrwt>
<pdfrwt beam="2">  1       -2 0.14852834E+00 0.73689622E+03</pdfrwt>
<totfact> 0.30912058E+01</totfact>
</mgrwt>
</event>
<event>
 4    1  0.9654646E-007  0.6640881E+03  0.7818608E-02  0.1020311E+00
         -2   -1    0    0    0  501 -0.00000000000E+00  0.00000000000E+00  0.34574681224E+03  0.34574681225E+03  0.25500000000E-02 0.  1.
          2   -1    0    0  501    0  0.00000000000E+00 -0.00000000000E+00 -0.11682391310E+04  0.11682391310E+04  0.25500000000E-02 0. -1.
    8880023    1    1    2    0    0  0.39461892029E+02  0.75136503866E+02  0.91475997809E+01  0.66415105208E+03  0.65864270000E+03 0.  1.
    8880022    1    1    2    0    0 -0.39461892029E+02 -0.75136503866E+02 -0.83163991858E+03  0.84983489122E+03  0.15294330000E+03 0.  0.
<mgrwt>
<rscale>  0 0.47574526E+03</rscale>
<asrwt>0</asrwt>
<pdfrwt beam="1">  1        2 0.17972910E+00 0.66408805E+03</pdfrwt>
<pdfrwt beam="2">  1       -2 0.53191818E-01 0.66408805E+03</pdfrwt>
<totfact> 0.67576866E+01</totfact>
</mgrwt>
</event>
<event>
 4    1  0.9654646E-007  0.6768475E+03  0.7818608E-02  0.1011166E+00
          2   -1    0    0  501    0  0.00000000000E+00  0.00000000000E+00  0.10690532809E+04  0.10690532809E+04  0.25500000000E-02 0. -1.
         -2   -1    0    0    0  501 -0.00000000000E+00 -0.00000000000E+00 -0.39580740673E+03  0.39580740674E+03  0.25500000000E-02 0.  1.
    8880023    1    1    2    0    0  0.23615286289E+02 -0.15412545671E+03 -0.79098791777E+02  0.68145371323E+03  0.65864270000E+03 0.  0.
    8880022    1    1    2    0    0 -0.23615286289E+02  0.15412545671E+03  0.75234466598E+03  0.78340697444E+03  0.15294330000E+03 0. -1.
<mgrwt>
<rscale>  0 0.51013775E+03</rscale>
<asrwt>0</asrwt>
<pdfrwt beam="1">  1        2 0.16446973E+00 0.67684750E+03</pdfrwt>
<pdfrwt beam="2">  1       -2 0.60893448E-01 0.67684750E+03</pdfrwt>
<totfact> 0.58455352E+01</totfact>
</mgrwt>
</event>
<event>
 4    1  0.9654646E-007  0.8465600E+03  0.7818608E-02  0.9617933E-01
         -2   -1    0    0    0  501 -0.00000000000E+00  0.00000000000E+00  0.99038343535E+03  0.99038343535E+03  0.25500000000E-02 0.  1.
          2   -1    0    0  501    0  0.00000000000E+00 -0.00000000000E+00 -0.10058297287E+04  0.10058297288E+04  0.25500000000E-02 0. -1.
    8880023    1    1    2    0    0 -0.97571044858E+01 -0.53175037775E+03  0.69525724429E+03  0.10954663424E+04  0.65864270000E+03 0.  1.
    8880022    1    1    2    0    0  0.97571044858E+01  0.53175037775E+03 -0.71070353769E+03  0.90074682171E+03  0.15294330000E+03 0.  0.
<mgrwt>
<rscale>  0 0.76120564E+03</rscale>
<asrwt>0</asrwt>
<pdfrwt beam="1">  1        2 0.15474303E+00 0.84656002E+03</pdfrwt>
<pdfrwt beam="2">  1       -2 0.15236668E+00 0.84656002E+03</pdfrwt>
<totfact> 0.72271803E+00</totfact>
</mgrwt>
</event>
<event>
 4    1  0.9654646E-007  0.8413183E+03  0.7818608E-02  0.9627699E-01
          2   -1    0    0  501    0  0.00000000000E+00  0.00000000000E+00  0.80492802003E+03  0.80492802004E+03  0.25500000000E-02 0. -1.
         -2   -1    0    0    0  501 -0.00000000000E+00 -0.00000000000E+00 -0.77675269505E+03  0.77675269505E+03  0.25500000000E-02 0.  1.
    8880023    1    1    2    0    0 -0.18921807946E+03 -0.48806030463E+03 -0.35710433120E+03  0.91396939346E+03  0.65864270000E+03 0.  1.
    8880022    1    1    2    0    0  0.18921807946E+03  0.48806030463E+03  0.38527965619E+03  0.66771132163E+03  0.15294330000E+03 0.  0.
<mgrwt>
<rscale>  0 0.75489669E+03</rscale>
<asrwt>0</asrwt>
<pdfrwt beam="1">  1        2 0.12383508E+00 0.84131834E+03</pdfrwt>
<pdfrwt beam="2">  1       -2 0.11950042E+00 0.84131834E+03</pdfrwt>
<totfact> 0.18442262E+01</totfact>
</mgrwt>
</event>
<event>
 4    1  0.9654646E-007  0.8326877E+03  0.7818608E-02  0.9644125E-01
          2   -1    0    0  501    0  0.00000000000E+00  0.00000000000E+00  0.87107207065E+03  0.87107207066E+03  0.25500000000E-02 0. -1.
         -2   -1    0    0    0  501 -0.00000000000E+00 -0.00000000000E+00 -0.15574223491E+04  0.15574223491E+04  0.25500000000E-02 0.  1.
    8880023    1    1    2    0    0 -0.28878202514E+03 -0.41971835995E+03 -0.13449854375E+04  0.15818832425E+04  0.65864270000E+03 0.  0.
    8880022    1    1    2    0    0  0.28878202514E+03  0.41971835995E+03  0.65863515902E+03  0.84661117724E+03  0.15294330000E+03 0. -1.
<mgrwt>
<rscale>  0 0.74443255E+03</rscale>
<asrwt>0</asrwt>
<pdfrwt beam="1">  1        2 0.13401109E+00 0.83268768E+03</pdfrwt>
<pdfrwt beam="2">  1       -2 0.23960344E+00 0.83268768E+03</pdfrwt>
<totfact> 0.23261807E+00</totfact>
</mgrwt>
</event>
<event>
 4    1  0.9654646E-007  0.9143283E+03  0.7818608E-02  0.9503411E-01
         -2   -1    0    0    0  501 -0.00000000000E+00  0.00000000000E+00  0.87548566427E+03  0.87548566428E+03  0.25500000000E-02 0.  1.
          2   -1    0    0  501    0  0.00000000000E+00 -0.00000000000E+00 -0.10163204735E+04  0.10163204735E+04  0.25500000000E-02 0. -1.
    8880023    1    1    2    0    0 -0.63174341992E+03 -0.55554758593E+02  0.44331306536E+03  0.10161312710E+04  0.65864270000E+03 0.  1.
    8880022    1    1    2    0    0  0.63174341992E+03  0.55554758593E+02 -0.58414787458E+03  0.87567486672E+03  0.15294330000E+03 0.  0.
<mgrwt>
<rscale>  0 0.84032831E+03</rscale>
<asrwt>0</asrwt>
<pdfrwt beam="1">  1        2 0.15635700E+00 0.91432833E+03</pdfrwt>
<pdfrwt beam="2">  1       -2 0.13469010E+00 0.91432833E+03</pdfrwt>
<totfact> 0.97555226E+00</totfact>
</mgrwt>
</event>
<event>
 4    1  0.9654646E-007  0.6587798E+03  0.7818608E-02  0.1025443E+00
         -2   -1    0    0    0  501 -0.00000000000E+00  0.00000000000E+00  0.42416040074E+03  0.42416040075E+03  0.25500000000E-02 0.  1.
          2   -1    0    0  501    0  0.00000000000E+00 -0.00000000000E+00 -0.39657082872E+03  0.39657082873E+03  0.25500000000E-02 0. -1.
    8880023    1    1    2    0    0  0.49996460321E+01  0.12475506013E+02  0.67122677552E+02  0.66219052758E+03  0.65864270000E+03 0.  1.
    8880022    1    1    2    0    0 -0.49996460321E+01 -0.12475506013E+02 -0.39533105533E+02  0.15854070190E+03  0.15294330000E+03 0.  0.
<mgrwt>
<rscale>  0 0.45772584E+03</rscale>
<asrwt>0</asrwt>
<pdfrwt beam="1">  1        2 0.61010897E-01 0.65877981E+03</pdfrwt>
<pdfrwt beam="2">  1       -2 0.65255446E-01 0.65877981E+03</pdfrwt>
<totfact> 0.17614746E+02</totfact>
</mgrwt>
</event>
<event>
 4    1  0.9654646E-007  0.8825262E+03  0.7818608E-02  0.9554686E-01
         -2   -1    0    0    0  501 -0.00000000000E+00  0.00000000000E+00  0.67380386062E+03  0.67380386063E+03  0.25500000000E-02 0.  1.
          2   -1    0    0  501    0  0.00000000000E+00 -0.00000000000E+00 -0.11956073468E+04  0.11956073468E+04  0.25500000000E-02 0. -1.
    8880023    1    1    2    0    0 -0.58009728328E+03  0.92354847566E+02  0.22136240684E+03  0.90986471377E+03  0.65864270000E+03 0.  0.
    8880022    1    1    2    0    0  0.58009728328E+03 -0.92354847566E+02 -0.74316589300E+03  0.95954649364E+03  0.15294330000E+03 0.  0.
<mgrwt>
<rscale>  0 0.80369387E+03</rscale>
<asrwt>0</asrwt>
<pdfrwt beam="1">  1        2 0.18393959E+00 0.88252619E+03</pdfrwt>
<pdfrwt beam="2">  1       -2 0.10366213E+00 0.88252619E+03</pdfrwt>
<totfact> 0.14514898E+01</totfact>
</mgrwt>
</event>
<event>
 4    1  0.9654646E-007  0.7594087E+03  0.7818608E-02  0.9806641E-01
         -2   -1    0    0    0  501 -0.00000000000E+00  0.00000000000E+00  0.10030368444E+04  0.10030368444E+04  0.25500000000E-02 0.  1.
          2   -1    0    0  501    0  0.00000000000E+00 -0.00000000000E+00 -0.38751418260E+03  0.38751418261E+03  0.25500000000E-02 0. -1.
    8880023    1    1    2    0    0  0.37776287535E+03  0.13659843639E+02  0.62368296415E+03  0.98269121669E+03  0.65864270000E+03 0.  0.
    8880022    1    1    2    0    0 -0.37776287535E+03 -0.13659843639E+02 -0.81603023621E+01  0.40785981032E+03  0.15294330000E+03 0.  0.
<mgrwt>
<rscale>  0 0.65007381E+03</rscale>
<asrwt>0</asrwt>
<pdfrwt beam="1">  1        2 0.59617566E-01 0.75940871E+03</pdfrwt>
<pdfrwt beam="2">  1       -2 0.15431336E+00 0.75940871E+03</pdfrwt>
<totfact> 0.23178119E+01</totfact>
</mgrwt>
</event>
<event>
 4    1  0.9654646E-007  0.7811504E+03  0.7818608E-02  0.9753142E-01
          2   -1    0    0  501    0  0.00000000000E+00  0.00000000000E+00  0.13249630844E+04  0.13249630844E+04  0.25500000000E-02 0. -1.
         -2   -1    0    0    0  501 -0.00000000000E+00 -0.00000000000E+00 -0.39492459863E+03  0.39492459863E+03  0.25500000000E-02 0.  1.
    8880023    1    1    2    0    0  0.18651596831E+03 -0.37629442492E+03  0.11395265617E+03  0.78941821284E+03  0.65864270000E+03 0.  1.
    8880022    1    1    2    0    0 -0.18651596831E+03  0.37629442492E+03  0.81608582960E+03  0.93046947019E+03  0.15294330000E+03 0. -1.
<mgrwt>
<rscale>  0 0.67939018E+03</rscale>
<asrwt>0</asrwt>
<pdfrwt beam="1">  1        2 0.20384047E+00 0.78115037E+03</pdfrwt>
<pdfrwt beam="2">  1       -2 0.60757631E-01 0.78115037E+03</pdfrwt>
<totfact> 0.40990662E+01</totfact>
</mgrwt>
</event>
<event>
 4    1  0.9654646E-007  0.8575587E+03  0.7818608E-02  0.9597921E-01
          2   -1    0    0  501    0  0.00000000000E+00  0.00000000000E+00  0.14626524489E+04  0.14626524489E+04  0.25500000000E-02 0. -1.
         -2   -1    0    0    0  501 -0.00000000000E+00 -0.00000000000E+00 -0.41996294574E+03  0.41996294575E+03  0.25500000000E-02 0.  1.
    8880023    1    1    2    0    0  0.15994344773E+03 -0.52537110957E+03  0.22635454873E+03  0.88692913879E+03  0.65864270000E+03 0. -1.
    8880022    1    1    2    0    0 -0.15994344773E+03  0.52537110957E+03  0.81633495438E+03  0.99568625581E+03  0.15294330000E+03 0.  0.
<mgrwt>
<rscale>  0 0.77433942E+03</rscale>
<asrwt>0</asrwt>
<pdfrwt beam="1">  1        2 0.22502345E+00 0.85755870E+03</pdfrwt>
<pdfrwt beam="2">  1       -2 0.64609684E-01 0.85755870E+03</pdfrwt>
<totfact> 0.29802122E+01</totfact>
</mgrwt>
</event>
<event>
 4    1  0.9654646E-007  0.7399466E+03  0.7818608E-02  0.9860103E-01
         -2   -1    0    0    0  501 -0.00000000000E+00  0.00000000000E+00  0.14497343668E+04  0.14497343668E+04  0.25500000000E-02 0.  1.
          2   -1    0    0  501    0  0.00000000000E+00 -0.00000000000E+00 -0.46158571253E+03  0.46158571254E+03  0.25500000000E-02 0. -1.
    8880023    1    1    2    0    0  0.54364810115E+02  0.33279906167E+03  0.12536241572E+04  0.14557109884E+04  0.65864270000E+03 0.  1.
    8880022    1    1    2    0    0 -0.54364810115E+02 -0.33279906167E+03 -0.26547550295E+03  0.45560909090E+03  0.15294330000E+03 0.  0.
<mgrwt>
<rscale>  0 0.62234458E+03</rscale>
<asrwt>0</asrwt>
<pdfrwt beam="1">  1        2 0.71013186E-01 0.73994659E+03</pdfrwt>
<pdfrwt beam="2">  1       -2 0.22303606E+00 0.73994659E+03</pdfrwt>
<totfact> 0.65430458E+00</totfact>
</mgrwt>
</event>
<event>
 4    1  0.9654646E-007  0.6839903E+03  0.7818608E-02  0.1007151E+00
         -2   -1    0    0    0  501 -0.00000000000E+00  0.00000000000E+00  0.76535079431E+03  0.76535079432E+03  0.25500000000E-02 0.  1.
          2   -1    0    0  501    0  0.00000000000E+00 -0.00000000000E+00 -0.51624627705E+03  0.51624627706E+03  0.25500000000E-02 0. -1.
    8880023    1    1    2    0    0 -0.12873912398E+03  0.13213159556E+03  0.56355231630E+03  0.88624711004E+03  0.65864270000E+03 0.  1.
    8880022    1    1    2    0    0  0.12873912398E+03 -0.13213159556E+03 -0.31444779904E+03  0.39534996133E+03  0.15294330000E+03 0.  0.
<mgrwt>
<rscale>  0 0.52622842E+03</rscale>
<asrwt>0</asrwt>
<pdfrwt beam="1">  1        2 0.79422504E-01 0.68399030E+03</pdfrwt>
<pdfrwt beam="2">  1       -2 0.11774628E+00 0.68399030E+03</pdfrwt>
<totfact> 0.33592396E+01</totfact>
</mgrwt>
</event>
<event>
 4    1  0.9654646E-007  0.7379996E+03  0.7818608E-02  0.9865813E-01
          2   -1    0    0  501    0  0.00000000000E+00  0.00000000000E+00  0.50770350909E+03  0.50770350909E+03  0.25500000000E-02 0. -1.
         -2   -1    0    0    0  501 -0.00000000000E+00 -0.00000000000E+00 -0.83548031576E+03  0.83548031577E+03  0.25500000000E-02 0.  1.
    8880023    1    1    2    0    0 -0.27839087806E+03  0.18256983698E+03 -0.54485095374E+03  0.91733635839E+03  0.65864270000E+03 0.  0.
    8880022    1    1    2    0    0  0.27839087806E+03 -0.18256983698E+03  0.21707414707E+03  0.42584746647E+03  0.15294330000E+03 0. -1.
<mgrwt>
<rscale>  0 0.61947136E+03</rscale>
<asrwt>0</asrwt>
<pdfrwt beam="1">  1        2 0.78108232E-01 0.73799962E+03</pdfrwt>
<pdfrwt beam="2">  1       -2 0.12853543E+00 0.73799962E+03</pdfrwt>
<totfact> 0.27401185E+01</totfact>
</mgrwt>
</event>
<event>
 4    1  0.9654646E-007  0.7958176E+03  0.7818608E-02  0.9719913E-01
         -2   -1    0    0    0  501 -0.00000000000E+00  0.00000000000E+00  0.21602505579E+03  0.21602505580E+03  0.25500000000E-02 0.  1.
          2   -1    0    0  501    0  0.00000000000E+00 -0.00000000000E+00 -0.28141523778E+04  0.28141523778E+04  0.25500000000E-02 0. -1.
    8880023    1    1    2    0    0  0.88103865635E+02  0.43789628761E+03 -0.65556304667E+03  0.10310618625E+04  0.65864270000E+03 0.  0.
    8880022    1    1    2    0    0 -0.88103865635E+02 -0.43789628761E+03 -0.19425642753E+04  0.19991155711E+04  0.15294330000E+03 0.  0.
<mgrwt>
<rscale>  0 0.69843444E+03</rscale>
<asrwt>0</asrwt>
<pdfrwt beam="1">  1        2 0.43294649E+00 0.79581760E+03</pdfrwt>
<pdfrwt beam="2">  1       -2 0.33234626E-01 0.79581760E+03</pdfrwt>
<totfact> 0.20058104E+01</totfact>
</mgrwt>
</event>
<event>
 4    1  0.9654646E-007  0.1080672E+04  0.7818608E-02  0.9282887E-01
         -2   -1    0    0    0  501 -0.00000000000E+00  0.00000000000E+00  0.44797852738E+03  0.44797852739E+03  0.25500000000E-02 0.  1.
          2   -1    0    0  501    0  0.00000000000E+00 -0.00000000000E+00 -0.27310746034E+04  0.27310746034E+04  0.25500000000E-02 0. -1.
    8880023    1    1    2    0    0  0.65282925663E+03 -0.55484690121E+03 -0.49136371040E+03  0.11871350489E+04  0.65864270000E+03 0.  1.
    8880022    1    1    2    0    0 -0.65282925663E+03  0.55484690121E+03 -0.17917323657E+04  0.19919180820E+04  0.15294330000E+03 0.  0.
<mgrwt>
<rscale>  0 0.10237369E+04</rscale>
<asrwt>0</asrwt>
<pdfrwt beam="1">  1        2 0.42016531E+00 0.10806717E+04</pdfrwt>
<pdfrwt beam="2">  1       -2 0.68919775E-01 0.10806717E+04</pdfrwt>
<totfact> 0.49183532E+00</totfact>
</mgrwt>
</event>
<event>
 4    1  0.9654646E-007  0.6657293E+03  0.7818608E-02  0.1018929E+00
         -2   -1    0    0    0  501 -0.00000000000E+00  0.00000000000E+00  0.22590413396E+03  0.22590413398E+03  0.25500000000E-02 0.  1.
          2   -1    0    0  501    0  0.00000000000E+00 -0.00000000000E+00 -0.14251646740E+04  0.14251646740E+04  0.25500000000E-02 0. -1.
    8880023    1    1    2    0    0  0.35483266180E+02  0.90145954845E+02 -0.29378460732E+03  0.72767091265E+03  0.65864270000E+03 0.  1.
    8880022    1    1    2    0    0 -0.35483266180E+02 -0.90145954845E+02 -0.90547593273E+03  0.92339789534E+03  0.15294330000E+03 0.  0.
<mgrwt>
<rscale>  0 0.48075016E+03</rscale>
<asrwt>0</asrwt>
<pdfrwt beam="1">  1        2 0.21925610E+00 0.66572935E+03</pdfrwt>
<pdfrwt beam="2">  1       -2 0.34754483E-01 0.66572935E+03</pdfrwt>
<totfact> 0.11137195E+02</totfact>
</mgrwt>
</event>
<event>
 4    1  0.9654646E-007  0.6870175E+03  0.7818608E-02  0.1005604E+00
          2   -1    0    0  501    0  0.00000000000E+00  0.00000000000E+00  0.11516853418E+04  0.11516853418E+04  0.25500000000E-02 0. -1.
         -2   -1    0    0    0  501 -0.00000000000E+00 -0.00000000000E+00 -0.33823422281E+03  0.33823422282E+03  0.25500000000E-02 0.  1.
    8880023    1    1    2    0    0  0.11031614309E+03  0.16128609426E+03  0.51916087342E+02  0.68897630004E+03  0.65864270000E+03 0.  1.
    8880022    1    1    2    0    0 -0.11031614309E+03 -0.16128609426E+03  0.76153503162E+03  0.80094326455E+03  0.15294330000E+03 0.  0.
<mgrwt>
<rscale>  0 0.53259977E+03</rscale>
<asrwt>0</asrwt>
<pdfrwt beam="1">  1        2 0.17718236E+00 0.68701751E+03</pdfrwt>
<pdfrwt beam="2">  1       -2 0.52036034E-01 0.68701751E+03</pdfrwt>
<totfact> 0.72163134E+01</totfact>
</mgrwt>
</event>
<event>
 4    1  0.9654646E-007  0.1300529E+04  0.7818608E-02  0.9065103E-01
         -2   -1    0    0    0  501 -0.00000000000E+00  0.00000000000E+00  0.81324302471E+03  0.81324302472E+03  0.25500000000E-02 0.  1.
          2   -1    0    0  501    0  0.00000000000E+00 -0.00000000000E+00 -0.28748140170E+04  0.28748140170E+04  0.25500000000E-02 0. -1.
    8880023    1    1    2    0    0 -0.74048615025E+02 -0.11189651766E+04  0.39952622575E+02  0.13011428370E+04  0.65864270000E+03 0.  0.
    8880022    1    1    2    0    0  0.74048615025E+02  0.11189651766E+04 -0.21015236149E+04  0.23869142047E+04  0.15294330000E+03 0.  0.
<mgrwt>
<rscale>  0 0.12561224E+04</rscale>
<asrwt>0</asrwt>
<pdfrwt beam="1">  1        2 0.44227907E+00 0.13005293E+04</pdfrwt>
<pdfrwt beam="2">  1       -2 0.12511431E+00 0.13005293E+04</pdfrwt>
<totfact> 0.96870543E-01</totfact>
</mgrwt>
</event>
<event>
 4    1  0.9654646E-007  0.7884147E+03  0.7818608E-02  0.9736429E-01
         -2   -1    0    0    0  501 -0.00000000000E+00  0.00000000000E+00  0.65164309935E+03  0.65164309936E+03  0.25500000000E-02 0.  1.
          2   -1    0    0  501    0  0.00000000000E+00 -0.00000000000E+00 -0.17988562975E+04  0.17988562975E+04  0.25500000000E-02 0. -1.
    8880023    1    1    2    0    0 -0.18682134135E+03 -0.39100561087E+03  0.36586969808E+03  0.86917112443E+03  0.65864270000E+03 0.  0.
    8880022    1    1    2    0    0  0.18682134135E+03  0.39100561087E+03 -0.15130828962E+04  0.15813282724E+04  0.15294330000E+03 0.  0.
<mgrwt>
<rscale>  0 0.68888616E+03</rscale>
<asrwt>0</asrwt>
<pdfrwt beam="1">  1        2 0.27674712E+00 0.78841474E+03</pdfrwt>
<pdfrwt beam="2">  1       -2 0.10025279E+00 0.78841474E+03</pdfrwt>
<totfact> 0.72741323E+00</totfact>
</mgrwt>
</event>
<event>
 4    1  0.9654646E-007  0.1347145E+04  0.7818608E-02  0.9025880E-01
          2   -1    0    0  501    0  0.00000000000E+00  0.00000000000E+00  0.33456987490E+04  0.33456987490E+04  0.25500000000E-02 0. -1.
         -2   -1    0    0    0  501 -0.00000000000E+00 -0.00000000000E+00 -0.96179946553E+03  0.96179946554E+03  0.25500000000E-02 0.  1.
    8880023    1    1    2    0    0 -0.20493279210E+03 -0.11571486444E+04 -0.29421708387E+03  0.13788996820E+04  0.65864270000E+03 0.  0.
    8880022    1    1    2    0    0  0.20493279210E+03  0.11571486444E+04  0.26781163673E+04  0.29285985324E+04  0.15294330000E+03 0.  0.
<mgrwt>
<rscale>  0 0.13046575E+04</rscale>
<asrwt>0</asrwt>
<pdfrwt beam="1">  1        2 0.51472287E+00 0.13471454E+04</pdfrwt>
<pdfrwt beam="2">  1       -2 0.14796915E+00 0.13471454E+04</pdfrwt>
<totfact> 0.31291478E-01</totfact>
</mgrwt>
</event>
<event>
 4    1  0.9654646E-007  0.8908488E+03  0.7818608E-02  0.9540885E-01
         -2   -1    0    0    0  501 -0.00000000000E+00  0.00000000000E+00  0.17477803551E+03  0.17477803552E+03  0.25500000000E-02 0.  1.
          2   -1    0    0  501    0  0.00000000000E+00 -0.00000000000E+00 -0.43729095085E+04  0.43729095085E+04  0.25500000000E-02 0. -1.
    8880023    1    1    2    0    0  0.56275979268E+03 -0.20761218367E+03 -0.12481472895E+04  0.15334546833E+04  0.65864270000E+03 0.  0.
    8880022    1    1    2    0    0 -0.56275979268E+03  0.20761218367E+03 -0.29499841835E+04  0.30142328608E+04  0.15294330000E+03 0.  0.
<mgrwt>
<rscale>  0 0.81335513E+03</rscale>
<asrwt>0</asrwt>
<pdfrwt beam="1">  1        2 0.67275523E+00 0.89084881E+03</pdfrwt>
<pdfrwt beam="2">  1       -2 0.26888932E-01 0.89084881E+03</pdfrwt>
<totfact> 0.22300542E+00</totfact>
</mgrwt>
</event>
<event>
 4    1  0.9654646E-007  0.8317690E+03  0.7818608E-02  0.9645900E-01
         -2   -1    0    0    0  501 -0.00000000000E+00  0.00000000000E+00  0.11579124657E+04  0.11579124657E+04  0.25500000000E-02 0.  1.
          2   -1    0    0  501    0  0.00000000000E+00 -0.00000000000E+00 -0.12464557589E+04  0.12464557589E+04  0.25500000000E-02 0. -1.
    8880023    1    1    2    0    0  0.44437207695E+03 -0.24609525823E+03  0.93505730735E+03  0.12514678554E+04  0.65864270000E+03 0.  1.
    8880022    1    1    2    0    0 -0.44437207695E+03  0.24609525823E+03 -0.10236006005E+04  0.11529003692E+04  0.15294330000E+03 0.  0.
<mgrwt>
<rscale>  0 0.74331280E+03</rscale>
<asrwt>0</asrwt>
<pdfrwt beam="1">  1        2 0.19176242E+00 0.83176897E+03</pdfrwt>
<pdfrwt beam="2">  1       -2 0.17814038E+00 0.83176897E+03</pdfrwt>
<totfact> 0.33618158E+00</totfact>
</mgrwt>
</event>
<event>
 4    1  0.9654646E-007  0.6736869E+03  0.7818608E-02  0.1013147E+00
         -2   -1    0    0    0  501 -0.00000000000E+00  0.00000000000E+00  0.69607753568E+03  0.69607753568E+03  0.25500000000E-02 0.  1.
          2   -1    0    0  501    0  0.00000000000E+00 -0.00000000000E+00 -0.39465194477E+03  0.39465194478E+03  0.25500000000E-02 0. -1.
    8880023    1    1    2    0    0  0.70856723114E+02 -0.12256913564E+03  0.47103231479E+03  0.82202525269E+03  0.65864270000E+03 0.  1.
    8880022    1    1    2    0    0 -0.70856723114E+02  0.12256913564E+03 -0.16960672388E+03  0.26870422777E+03  0.15294330000E+03 0.  0.
<mgrwt>
<rscale>  0 0.50242845E+03</rscale>
<asrwt>0</asrwt>
<pdfrwt beam="1">  1        2 0.60715684E-01 0.67368693E+03</pdfrwt>
<pdfrwt beam="2">  1       -2 0.10708885E+00 0.67368693E+03</pdfrwt>
<totfact> 0.57497917E+01</totfact>
</mgrwt>
</event>
<event>
 4    1  0.9654646E-007  0.6843170E+03  0.7818608E-02  0.1006980E+00
         -2   -1    0    0    0  501 -0.00000000000E+00  0.00000000000E+00  0.84598206950E+03  0.84598206950E+03  0.25500000000E-02 0.  1.
          2   -1    0    0  501    0  0.00000000000E+00 -0.00000000000E+00 -0.54184329854E+03  0.54184329855E+03  0.25500000000E-02 0. -1.
    8880023    1    1    2    0    0 -0.18274082697E+03 -0.32944463564E+02  0.66494808385E+03  0.95417278728E+03  0.65864270000E+03 0.  0.
    8880022    1    1    2    0    0  0.18274082697E+03  0.32944463564E+02 -0.36080931289E+03  0.43365258076E+03  0.15294330000E+03 0.  0.
<mgrwt>
<rscale>  0 0.52692743E+03</rscale>
<asrwt>0</asrwt>
<pdfrwt beam="1">  1        2 0.83360508E-01 0.68431700E+03</pdfrwt>
<pdfrwt beam="2">  1       -2 0.13015109E+00 0.68431700E+03</pdfrwt>
<totfact> 0.24717953E+01</totfact>
</mgrwt>
</event>
<event>
 4    1  0.9654646E-007  0.7895072E+03  0.7818608E-02  0.9733961E-01
          2   -1    0    0  501    0  0.00000000000E+00  0.00000000000E+00  0.18270807978E+04  0.18270807978E+04  0.25500000000E-02 0. -1.
         -2   -1    0    0    0  501 -0.00000000000E+00 -0.00000000000E+00 -0.22324223020E+03  0.22324223021E+03  0.25500000000E-02 0.  1.
    8880023    1    1    2    0    0  0.35745549500E+03  0.24846913410E+03  0.12040052827E+04  0.14397743811E+04  0.65864270000E+03 0.  0.
    8880022    1    1    2    0    0 -0.35745549500E+03 -0.24846913410E+03  0.39983328494E+03  0.61054864693E+03  0.15294330000E+03 0.  0.
<mgrwt>
<rscale>  0 0.69030302E+03</rscale>
<asrwt>0</asrwt>
<pdfrwt beam="1">  1        2 0.28108936E+00 0.78950715E+03</pdfrwt>
<pdfrwt beam="2">  1       -2 0.34344957E-01 0.78950715E+03</pdfrwt>
<totfact> 0.67583033E+01</totfact>
</mgrwt>
</event>
<event>
 4    1  0.9654646E-007  0.9098691E+03  0.7818608E-02  0.9510371E-01
         -2   -1    0    0    0  501 -0.00000000000E+00  0.00000000000E+00  0.10013161224E+04  0.10013161224E+04  0.25500000000E-02 0.  1.
          2   -1    0    0  501    0  0.00000000000E+00 -0.00000000000E+00 -0.10465593505E+04  0.10465593505E+04  0.25500000000E-02 0. -1.
    8880023    1    1    2    0    0  0.38689302532E+03 -0.49433325190E+03  0.63512026630E+03  0.11096123359E+04  0.65864270000E+03 0.  0.
    8880022    1    1    2    0    0 -0.38689302532E+03  0.49433325190E+03 -0.68036349439E+03  0.93826313713E+03  0.15294330000E+03 0.  0.
<mgrwt>
<rscale>  0 0.83523535E+03</rscale>
<asrwt>0</asrwt>
<pdfrwt beam="1">  1        2 0.16100913E+00 0.90986910E+03</pdfrwt>
<pdfrwt beam="2">  1       -2 0.15404863E+00 0.90986910E+03</pdfrwt>
<totfact> 0.65677988E+00</totfact>
</mgrwt>
</event>
<event>
 4    1  0.9654646E-007  0.6624725E+03  0.7818608E-02  0.1021755E+00
         -2   -1    0    0    0  501 -0.00000000000E+00  0.00000000000E+00  0.61735817519E+03  0.61735817520E+03  0.25500000000E-02 0.  1.
          2   -1    0    0  501    0  0.00000000000E+00 -0.00000000000E+00 -0.29375213708E+03  0.29375213709E+03  0.25500000000E-02 0. -1.
    8880023    1    1    2    0    0 -0.65478901280E+02 -0.27786849145E+02  0.33440639040E+03  0.74208991079E+03  0.65864270000E+03 0.  1.
    8880022    1    1    2    0    0  0.65478901280E+02  0.27786849145E+02 -0.10800352285E+02  0.16902040150E+03  0.15294330000E+03 0. -1.
<mgrwt>
<rscale>  0 0.47058551E+03</rscale>
<asrwt>0</asrwt>
<pdfrwt beam="1">  1        2 0.45192637E-01 0.66247249E+03</pdfrwt>
<pdfrwt beam="2">  1       -2 0.94978180E-01 0.66247249E+03</pdfrwt>
<totfact> 0.10623971E+02</totfact>
</mgrwt>
</event>
<event>
 4    1  0.9654646E-007  0.1015728E+04  0.7818608E-02  0.9361264E-01
          2   -1    0    0  501    0  0.00000000000E+00  0.00000000000E+00  0.20918875406E+04  0.20918875406E+04  0.25500000000E-02 0. -1.
         -2   -1    0    0    0  501 -0.00000000000E+00 -0.00000000000E+00 -0.88238047138E+03  0.88238047138E+03  0.25500000000E-02 0.  1.
    8880023    1    1    2    0    0  0.26024364955E+03  0.72812538290E+03 -0.46984884456E+03  0.11191342517E+04  0.65864270000E+03 0.  0.
    8880022    1    1    2    0    0 -0.26024364955E+03 -0.72812538290E+03  0.16793559138E+04  0.18551337603E+04  0.15294330000E+03 0.  0.
<mgrwt>
<rscale>  0 0.95333262E+03</rscale>
<asrwt>0</asrwt>
<pdfrwt beam="1">  1        2 0.32182885E+00 0.10157281E+04</pdfrwt>
<pdfrwt beam="2">  1       -2 0.13575084E+00 0.10157281E+04</pdfrwt>
<totfact> 0.23032459E+00</totfact>
</mgrwt>
</event>
<event>
 4    1  0.9654646E-007  0.1369460E+04  0.7818608E-02  0.9007784E-01
         -2   -1    0    0    0  501 -0.00000000000E+00  0.00000000000E+00  0.55992298770E+03  0.55992298770E+03  0.25500000000E-02 0.  1.
          2   -1    0    0  501    0  0.00000000000E+00 -0.00000000000E+00 -0.30094196500E+04  0.30094196500E+04  0.25500000000E-02 0. -1.
    8880023    1    1    2    0    0 -0.88077516694E+03  0.81599391880E+03 -0.14989332536E+04  0.20303256082E+04  0.65864270000E+03 0.  1.
    8880022    1    1    2    0    0  0.88077516694E+03 -0.81599391880E+03 -0.95056340871E+03  0.15390170295E+04  0.15294330000E+03 0. -1.
<mgrwt>
<rscale>  0 0.13278281E+04</rscale>
<asrwt>0</asrwt>
<pdfrwt beam="1">  1        2 0.46298763E+00 0.13694602E+04</pdfrwt>
<pdfrwt beam="2">  1       -2 0.86142000E-01 0.13694602E+04</pdfrwt>
<totfact> 0.19532449E+00</totfact>
</mgrwt>
</event>
<event>
 4    1  0.9654646E-007  0.8106593E+03  0.7818608E-02  0.9688205E-01
         -2   -1    0    0    0  501 -0.00000000000E+00  0.00000000000E+00  0.36406774418E+03  0.36406774419E+03  0.25500000000E-02 0.  1.
          2   -1    0    0  501    0  0.00000000000E+00 -0.00000000000E+00 -0.13226237936E+04  0.13226237936E+04  0.25500000000E-02 0. -1.
    8880023    1    1    2    0    0  0.43684437974E+03  0.18034744958E+03 -0.30579099719E+03  0.86641592489E+03  0.65864270000E+03 0.  0.
    8880022    1    1    2    0    0 -0.43684437974E+03 -0.18034744958E+03 -0.65276505221E+03  0.82027561288E+03  0.15294330000E+03 0.  0.
<mgrwt>
<rscale>  0 0.71723401E+03</rscale>
<asrwt>0</asrwt>
<pdfrwt beam="1">  1        2 0.20348058E+00 0.81065925E+03</pdfrwt>
<pdfrwt beam="2">  1       -2 0.56010423E-01 0.81065925E+03</pdfrwt>
<totfact> 0.48648453E+01</totfact>
</mgrwt>
</event>
<event>
 4    1  0.9654646E-007  0.6918278E+03  0.7818608E-02  0.1003296E+00
          2   -1    0    0  501    0  0.00000000000E+00  0.00000000000E+00  0.10082276874E+04  0.10082276874E+04  0.25500000000E-02 0. -1.
         -2   -1    0    0    0  501 -0.00000000000E+00 -0.00000000000E+00 -0.58947382392E+03  0.58947382392E+03  0.25500000000E-02 0.  1.
    8880023    1    1    2    0    0  0.19763390402E+03 -0.75870405850E+02 -0.35746746518E+03  0.77872246239E+03  0.65864270000E+03 0.  1.
    8880022    1    1    2    0    0 -0.19763390402E+03  0.75870405850E+02  0.77622132863E+03  0.81897904890E+03  0.15294330000E+03 0.  0.
<mgrwt>
<rscale>  0 0.54228454E+03</rscale>
<asrwt>0</asrwt>
<pdfrwt beam="1">  1        2 0.15511195E+00 0.69182779E+03</pdfrwt>
<pdfrwt beam="2">  1       -2 0.90688282E-01 0.69182779E+03</pdfrwt>
<totfact> 0.26420012E+01</totfact>
</mgrwt>
</event>
<event>
 4    1  0.9654646E-007  0.8275097E+03  0.7818608E-02  0.9654197E-01
         -2   -1    0    0    0  501 -0.00000000000E+00  0.00000000000E+00  0.36084157736E+03  0.36084157737E+03  0.25500000000E-02 0.  1.
          2   -1    0    0  501    0  0.00000000000E+00 -0.00000000000E+00 -0.27212218362E+04  0.27212218362E+04  0.25500000000E-02 0. -1.
    8880023    1    1    2    0    0 -0.33912913248E+03  0.36871866096E+03 -0.18955704670E+03  0.84894293074E+03  0.65864270000E+03 0.  1.
    8880022    1    1    2    0    0  0.33912913248E+03 -0.36871866096E+03 -0.21708232122E+04  0.22331204828E+04  0.15294330000E+03 0.  0.
<mgrwt>
<rscale>  0 0.73810585E+03</rscale>
<asrwt>0</asrwt>
<pdfrwt beam="1">  1        2 0.41864950E+00 0.82750965E+03</pdfrwt>
<pdfrwt beam="2">  1       -2 0.55514090E-01 0.82750965E+03</pdfrwt>
<totfact> 0.81945432E+00</totfact>
</mgrwt>
</event>
<event>
 4    1  0.9654646E-007  0.8336268E+03  0.7818608E-02  0.9642317E-01
         -2   -1    0    0    0  501 -0.00000000000E+00  0.00000000000E+00  0.77061507163E+03  0.77061507163E+03  0.25500000000E-02 0.  1.
          2   -1    0    0  501    0  0.00000000000E+00 -0.00000000000E+00 -0.14443246095E+04  0.14443246095E+04  0.25500000000E-02 0. -1.
    8880023    1    1    2    0    0 -0.17094496593E+03 -0.48156132553E+03  0.46711357936E+03  0.95557772782E+03  0.65864270000E+03 0.  1.
    8880022    1    1    2    0    0  0.17094496593E+03  0.48156132553E+03 -0.11408231173E+04  0.12593619534E+04  0.15294330000E+03 0.  0.
<mgrwt>
<rscale>  0 0.74557603E+03</rscale>
<asrwt>0</asrwt>
<pdfrwt beam="1">  1        2 0.22220379E+00 0.83362683E+03</pdfrwt>
<pdfrwt beam="2">  1       -2 0.11855617E+00 0.83362683E+03</pdfrwt>
<totfact> 0.75651022E+00</totfact>
</mgrwt>
</event>
<event>
 4    1  0.9654646E-007  0.9488167E+03  0.7818608E-02  0.9451819E-01
         -2   -1    0    0    0  501 -0.00000000000E+00  0.00000000000E+00  0.70380257766E+03  0.70380257766E+03  0.25500000000E-02 0.  1.
          2   -1    0    0  501    0  0.00000000000E+00 -0.00000000000E+00 -0.15733602462E+04  0.15733602462E+04  0.25500000000E-02 0. -1.
    8880023    1    1    2    0    0 -0.30876069671E+03  0.60918776247E+03 -0.11777765237E+04  0.15124188057E+04  0.65864270000E+03 0.  0.
    8880022    1    1    2    0    0  0.30876069671E+03 -0.60918776247E+03  0.30821885508E+03  0.76474401823E+03  0.15294330000E+03 0.  0.
<mgrwt>
<rscale>  0 0.87931182E+03</rscale>
<asrwt>0</asrwt>
<pdfrwt beam="1">  1        2 0.24205542E+00 0.94881669E+03</pdfrwt>
<pdfrwt beam="2">  1       -2 0.10827732E+00 0.94881669E+03</pdfrwt>
<totfact> 0.78860699E+00</totfact>
</mgrwt>
</event>
<event>
 4    1  0.9654646E-007  0.1177250E+04  0.7818608E-02  0.9179560E-01
         -2   -1    0    0    0  501 -0.00000000000E+00  0.00000000000E+00  0.83509600385E+03  0.83509600385E+03  0.25500000000E-02 0.  1.
          2   -1    0    0  501    0  0.00000000000E+00 -0.00000000000E+00 -0.23051133790E+04  0.23051133790E+04  0.25500000000E-02 0. -1.
    8880023    1    1    2    0    0  0.97384174168E+03 -0.61160100356E+02  0.20569392710E+03  0.11950851407E+04  0.65864270000E+03 0.  1.
    8880022    1    1    2    0    0 -0.97384174168E+03  0.61160100356E+02 -0.16757113022E+04  0.19451242421E+04  0.15294330000E+03 0.  0.
<mgrwt>
<rscale>  0 0.11266916E+04</rscale>
<asrwt>0</asrwt>
<pdfrwt beam="1">  1        2 0.35463283E+00 0.11772504E+04</pdfrwt>
<pdfrwt beam="2">  1       -2 0.12847631E+00 0.11772504E+04</pdfrwt>
<totfact> 0.19754842E+00</totfact>
</mgrwt>
</event>
<event>
 4    1  0.9654646E-007  0.7795614E+03  0.7818608E-02  0.9756868E-01
          2   -1    0    0  501    0  0.00000000000E+00  0.00000000000E+00  0.14866275896E+04  0.14866275896E+04  0.25500000000E-02 0. -1.
         -2   -1    0    0    0  501 -0.00000000000E+00 -0.00000000000E+00 -0.58383671512E+03  0.58383671513E+03  0.25500000000E-02 0.  1.
    8880023    1    1    2    0    0 -0.39083657636E+03  0.14543919857E+03 -0.26315163663E+03  0.82277869444E+03  0.65864270000E+03 0.  0.
    8880022    1    1    2    0    0  0.39083657636E+03 -0.14543919857E+03  0.11659425111E+04  0.12476856102E+04  0.15294330000E+03 0.  0.
<mgrwt>
<rscale>  0 0.67729510E+03</rscale>
<asrwt>0</asrwt>
<pdfrwt beam="1">  1        2 0.22871194E+00 0.77956141E+03</pdfrwt>
<pdfrwt beam="2">  1       -2 0.89821034E-01 0.77956141E+03</pdfrwt>
<totfact> 0.13992127E+01</totfact>
</mgrwt>
</event>
<event>
 4    1  0.9654646E-007  0.7904424E+03  0.7818608E-02  0.9731856E-01
          2   -1    0    0  501    0  0.00000000000E+00  0.00000000000E+00  0.25675421152E+04  0.25675421152E+04  0.25500000000E-02 0. -1.
         -2   -1    0    0    0  501 -0.00000000000E+00 -0.00000000000E+00 -0.24788907140E+03  0.24788907142E+03  0.25500000000E-02 0.  1.
    8880023    1    1    2    0    0  0.39699243811E+03  0.18271835528E+03  0.49430428472E+03  0.93227459765E+03  0.65864270000E+03 0.  0.
    8880022    1    1    2    0    0 -0.39699243811E+03 -0.18271835528E+03  0.18253487590E+04  0.18831565889E+04  0.15294330000E+03 0.  0.
<mgrwt>
<rscale>  0 0.69151383E+03</rscale>
<asrwt>0</asrwt>
<pdfrwt beam="1">  1        2 0.39500646E+00 0.79044241E+03</pdfrwt>
<pdfrwt beam="2">  1       -2 0.38136782E-01 0.79044241E+03</pdfrwt>
<totfact> 0.21481153E+01</totfact>
</mgrwt>
</event>
<event>
 4    1  0.1085628E-006  0.8309906E+03  0.7818608E-02  0.9647408E-01
          2   -1    0    0  501    0  0.00000000000E+00  0.00000000000E+00  0.16387070811E+04  0.16387070811E+04  0.25500000000E-02 0. -1.
         -2   -1    0    0    0  501 -0.00000000000E+00 -0.00000000000E+00 -0.12973059722E+04  0.12973059723E+04  0.25500000000E-02 0.  1.
    8880023    1    1    2    0    0  0.39040625862E+03 -0.32298313492E+03 -0.11126004620E+04  0.13886774811E+04  0.65864270000E+03 0.  1.
    8880022    1    1    2    0    0 -0.39040625862E+03  0.32298313492E+03  0.14540015708E+04  0.15473355722E+04  0.15294330000E+03 0.  0.
<mgrwt>
<rscale>  0 0.74236316E+03</rscale>
<asrwt>0</asrwt>
<pdfrwt beam="1">  1        2 0.25210878E+00 0.83099059E+03</pdfrwt>
<pdfrwt beam="2">  1       -2 0.19958554E+00 0.83099059E+03</pdfrwt>
<totfact> 0.14490517E+00</totfact>
</mgrwt>
</event>
<event>
 4    1  0.9654646E-007  0.7899085E+03  0.7818608E-02  0.9733056E-01
         -2   -1    0    0    0  501 -0.00000000000E+00  0.00000000000E+00  0.47146604520E+03  0.47146604521E+03  0.25500000000E-02 0.  1.
          2   -1    0    0  501    0  0.00000000000E+00 -0.00000000000E+00 -0.10922117910E+04  0.10922117910E+04  0.25500000000E-02 0. -1.
    8880023    1    1    2    0    0 -0.42854652903E+03  0.80580125722E+02 -0.11543365153E+00  0.78990854141E+03  0.65864270000E+03 0.  0.
    8880022    1    1    2    0    0  0.42854652903E+03 -0.80580125722E+02 -0.62063031209E+03  0.77376929476E+03  0.15294330000E+03 0.  0.
<mgrwt>
<rscale>  0 0.69082291E+03</rscale>
<asrwt>0</asrwt>
<pdfrwt beam="1">  1        2 0.16803258E+00 0.78990853E+03</pdfrwt>
<pdfrwt beam="2">  1       -2 0.72533238E-01 0.78990853E+03</pdfrwt>
<totfact> 0.38375548E+01</totfact>
</mgrwt>
</event>
<event>
 4    1  0.9654646E-007  0.7392762E+03  0.7818608E-02  0.9862061E-01
         -2   -1    0    0    0  501 -0.00000000000E+00  0.00000000000E+00  0.27834761947E+03  0.27834761948E+03  0.25500000000E-02 0.  1.
          2   -1    0    0  501    0  0.00000000000E+00 -0.00000000000E+00 -0.11115272970E+04  0.11115272970E+04  0.25500000000E-02 0. -1.
    8880023    1    1    2    0    0 -0.19934160775E+03  0.27015177342E+03 -0.61197418660E+03  0.95970915833E+03  0.65864270000E+03 0.  0.
    8880022    1    1    2    0    0  0.19934160775E+03 -0.27015177342E+03 -0.22120549096E+03  0.43016575818E+03  0.15294330000E+03 0.  1.
<mgrwt>
<rscale>  0 0.62135754E+03</rscale>
<asrwt>0</asrwt>
<pdfrwt beam="1">  1        2 0.17100420E+00 0.73927618E+03</pdfrwt>
<pdfrwt beam="2">  1       -2 0.42822711E-01 0.73927618E+03</pdfrwt>
<totfact> 0.11242730E+02</totfact>
</mgrwt>
</event>
<event>
 4    1  0.9654646E-007  0.1036953E+04  0.7818608E-02  0.9334732E-01
         -2   -1    0    0    0  501 -0.00000000000E+00  0.00000000000E+00  0.57854371286E+03  0.57854371287E+03  0.25500000000E-02 0.  1.
          2   -1    0    0  501    0  0.00000000000E+00 -0.00000000000E+00 -0.14884996472E+04  0.14884996472E+04  0.25500000000E-02 0. -1.
    8880023    1    1    2    0    0  0.43287291111E+03 -0.67385659258E+03 -0.44497130149E+03  0.11283932515E+04  0.65864270000E+03 0. -1.
    8880022    1    1    2    0    0 -0.43287291111E+03  0.67385659258E+03 -0.46498463279E+03  0.93865010856E+03  0.15294330000E+03 0.  1.
<mgrwt>
<rscale>  0 0.97647266E+03</rscale>
<asrwt>0</asrwt>
<pdfrwt beam="1">  1        2 0.22899994E+00 0.10369532E+04</pdfrwt>
<pdfrwt beam="2">  1       -2 0.89006726E-01 0.10369532E+04</pdfrwt>
<totfact> 0.13870463E+01</totfact>
</mgrwt>
</event>
<event>
 4    1  0.9654646E-007  0.6919023E+03  0.7818608E-02  0.1003261E+00
          2   -1    0    0  501    0  0.00000000000E+00  0.00000000000E+00  0.11734980210E+04  0.11734980210E+04  0.25500000000E-02 0. -1.
         -2   -1    0    0    0  501 -0.00000000000E+00 -0.00000000000E+00 -0.47867704470E+03  0.47867704471E+03  0.25500000000E-02 0.  1.
    8880023    1    1    2    0    0 -0.20771171955E+02 -0.21091984947E+03 -0.19978753142E+03  0.72016934707E+03  0.65864270000E+03 0.  1.
    8880022    1    1    2    0    0  0.20771171955E+02  0.21091984947E+03  0.89460850776E+03  0.93200571868E+03  0.15294330000E+03 0.  0.
<mgrwt>
<rscale>  0 0.54243081E+03</rscale>
<asrwt>0</asrwt>
<pdfrwt beam="1">  1        2 0.18053815E+00 0.69190233E+03</pdfrwt>
<pdfrwt beam="2">  1       -2 0.73642623E-01 0.69190233E+03</pdfrwt>
<totfact> 0.33467467E+01</totfact>
</mgrwt>
</event>
<event>
 4    1  0.9654646E-007  0.7015741E+03  0.7818608E-02  0.9990733E-01
          2   -1    0    0  501    0  0.00000000000E+00  0.00000000000E+00  0.44678371126E+03  0.44678371126E+03  0.25500000000E-02 0. -1.
         -2   -1    0    0    0  501 -0.00000000000E+00 -0.00000000000E+00 -0.10582429267E+04  0.10582429267E+04  0.25500000000E-02 0.  1.
    8880023    1    1    2    0    0 -0.15056939581E+03 -0.18901017123E+03 -0.87128642446E+03  0.11186358780E+04  0.65864270000E+03 0.  1.
    8880022    1    1    2    0    0  0.15056939581E+03  0.18901017123E+03  0.25982720906E+03  0.38639075994E+03  0.15294330000E+03 0.  0.
<mgrwt>
<rscale>  0 0.56058454E+03</rscale>
<asrwt>0</asrwt>
<pdfrwt beam="1">  1        2 0.68735956E-01 0.70157408E+03</pdfrwt>
<pdfrwt beam="2">  1       -2 0.16280660E+00 0.70157408E+03</pdfrwt>
<totfact> 0.17160519E+01</totfact>
</mgrwt>
</event>
<event>
 4    1  0.9654646E-007  0.7617808E+03  0.7818608E-02  0.9800519E-01
          2   -1    0    0  501    0  0.00000000000E+00  0.00000000000E+00  0.23514681271E+04  0.23514681271E+04  0.25500000000E-02 0. -1.
         -2   -1    0    0    0  501 -0.00000000000E+00 -0.00000000000E+00 -0.20093436560E+03  0.20093436562E+03  0.25500000000E-02 0.  1.
    8880023    1    1    2    0    0 -0.36337424440E+03  0.12024544181E+03  0.66649864282E+03  0.10121909182E+04  0.65864270000E+03 0.  1.
    8880022    1    1    2    0    0  0.36337424440E+03 -0.12024544181E+03  0.14840351187E+04  0.15402115745E+04  0.15294330000E+03 0. -1.
<mgrwt>
<rscale>  0 0.65334710E+03</rscale>
<asrwt>0</asrwt>
<pdfrwt beam="1">  1        2 0.36176435E+00 0.76178082E+03</pdfrwt>
<pdfrwt beam="2">  1       -2 0.30912978E-01 0.76178082E+03</pdfrwt>
<totfact> 0.42571646E+01</totfact>
</mgrwt>
</event>
<event>
 4    1  0.9654646E-007  0.1032857E+04  0.7818608E-02  0.9339779E-01
          2   -1    0    0  501    0  0.00000000000E+00  0.00000000000E+00  0.13484620624E+04  0.13484620624E+04  0.25500000000E-02 0. -1.
         -2   -1    0    0    0  501 -0.00000000000E+00 -0.00000000000E+00 -0.16049902662E+04  0.16049902662E+04  0.25500000000E-02 0.  1.
    8880023    1    1    2    0    0  0.64597373470E+03  0.46443630057E+03 -0.12821637359E+04  0.16464316551E+04  0.65864270000E+03 0.  1.
    8880022    1    1    2    0    0 -0.64597373470E+03 -0.46443630057E+03  0.10256355320E+04  0.13070206734E+04  0.15294330000E+03 0.  0.
<mgrwt>
<rscale>  0 0.97201753E+03</rscale>
<asrwt>0</asrwt>
<pdfrwt beam="1">  1        2 0.20745570E+00 0.10328569E+04</pdfrwt>
<pdfrwt beam="2">  1       -2 0.24692158E+00 0.10328569E+04</pdfrwt>
<totfact> 0.10322558E+00</totfact>
</mgrwt>
</event>
<event>
 4    1  0.9654646E-007  0.6836494E+03  0.7818608E-02  0.1007330E+00
         -2   -1    0    0    0  501 -0.00000000000E+00  0.00000000000E+00  0.21633019347E+04  0.21633019347E+04  0.25500000000E-02 0.  1.
          2   -1    0    0  501    0  0.00000000000E+00 -0.00000000000E+00 -0.40187014715E+03  0.40187014715E+03  0.25500000000E-02 0. -1.
    8880023    1    1    2    0    0  0.42141496727E+02  0.17829864770E+03  0.20671869580E+04  0.21773007232E+04  0.65864270000E+03 0.  1.
    8880022    1    1    2    0    0 -0.42141496727E+02 -0.17829864770E+03 -0.30575517052E+03  0.38787135861E+03  0.15294330000E+03 0.  0.
<mgrwt>
<rscale>  0 0.52549597E+03</rscale>
<asrwt>0</asrwt>
<pdfrwt beam="1">  1        2 0.61826177E-01 0.68364941E+03</pdfrwt>
<pdfrwt beam="2">  1       -2 0.33281568E+00 0.68364941E+03</pdfrwt>
<totfact> 0.16732656E+00</totfact>
</mgrwt>
</event>
<event>
 4    1  0.9654646E-007  0.9155236E+03  0.7818608E-02  0.9501557E-01
         -2   -1    0    0    0  501 -0.00000000000E+00  0.00000000000E+00  0.22369114691E+04  0.22369114691E+04  0.25500000000E-02 0.  1.
          2   -1    0    0  501    0  0.00000000000E+00 -0.00000000000E+00 -0.46593957060E+03  0.46593957060E+03  0.25500000000E-02 0. -1.
    8880023    1    1    2    0    0  0.37671683404E+03  0.51230615321E+03  0.18299177226E+04  0.20461628101E+04  0.65864270000E+03 0.  0.
    8880022    1    1    2    0    0 -0.37671683404E+03 -0.51230615321E+03 -0.58945824126E+02  0.65668822958E+03  0.15294330000E+03 0.  0.
<mgrwt>
<rscale>  0 0.84169118E+03</rscale>
<asrwt>0</asrwt>
<pdfrwt beam="1">  1        2 0.71683012E-01 0.91552355E+03</pdfrwt>
<pdfrwt beam="2">  1       -2 0.34414022E+00 0.91552355E+03</pdfrwt>
<totfact> 0.11608916E+00</totfact>
</mgrwt>
</event>
<event>
 4    1  0.9654646E-007  0.6636895E+03  0.7818608E-02  0.1020659E+00
         -2   -1    0    0    0  501 -0.00000000000E+00  0.00000000000E+00  0.15053954933E+03  0.15053954935E+03  0.25500000000E-02 0.  1.
          2   -1    0    0  501    0  0.00000000000E+00 -0.00000000000E+00 -0.27159600939E+04  0.27159600939E+04  0.25500000000E-02 0. -1.
    8880023    1    1    2    0    0 -0.16868612353E+02  0.79931129273E+02 -0.60386093230E+03  0.89729135031E+03  0.65864270000E+03 0.  1.
    8880022    1    1    2    0    0  0.16868612353E+02 -0.79931129273E+02 -0.19615596123E+04  0.19692082929E+04  0.15294330000E+03 0.  0.
<mgrwt>
<rscale>  0 0.47449506E+03</rscale>
<asrwt>0</asrwt>
<pdfrwt beam="1">  1        2 0.41783998E+00 0.66368949E+03</pdfrwt>
<pdfrwt beam="2">  1       -2 0.23159933E-01 0.66368949E+03</pdfrwt>
<totfact> 0.45333886E+01</totfact>
</mgrwt>
</event>
<event>
 4    1  0.9654646E-007  0.7449204E+03  0.7818608E-02  0.9845839E-01
          2   -1    0    0  501    0  0.00000000000E+00  0.00000000000E+00  0.13968856948E+04  0.13968856948E+04  0.25500000000E-02 0. -1.
         -2   -1    0    0    0  501 -0.00000000000E+00 -0.00000000000E+00 -0.46784738872E+03  0.46784738873E+03  0.25500000000E-02 0.  1.
    8880023    1    1    2    0    0  0.18993659963E+03  0.29158235876E+03 -0.11491383963E+03  0.75373176968E+03  0.65864270000E+03 0.  0.
    8880022    1    1    2    0    0 -0.18993659963E+03 -0.29158235876E+03  0.10439521457E+04  0.11110013138E+04  0.15294330000E+03 0.  0.
<mgrwt>
<rscale>  0 0.62959506E+03</rscale>
<asrwt>0</asrwt>
<pdfrwt beam="1">  1        2 0.21490549E+00 0.74492039E+03</pdfrwt>
<pdfrwt beam="2">  1       -2 0.71976522E-01 0.74492039E+03</pdfrwt>
<totfact> 0.25980339E+01</totfact>
</mgrwt>
</event>
<event>
 4    1  0.9654646E-007  0.6956584E+03  0.7818608E-02  0.1001571E+00
         -2   -1    0    0    0  501 -0.00000000000E+00  0.00000000000E+00  0.10262141966E+04  0.10262141966E+04  0.25500000000E-02 0.  1.
          2   -1    0    0  501    0  0.00000000000E+00 -0.00000000000E+00 -0.50643079433E+03  0.50643079433E+03  0.25500000000E-02 0. -1.
    8880023    1    1    2    0    0  0.21639211368E+03  0.57488013700E+02  0.85450927746E+03  0.11018741898E+04  0.65864270000E+03 0.  1.
    8880022    1    1    2    0    0 -0.21639211368E+03 -0.57488013700E+02 -0.33472587519E+03  0.43077080115E+03  0.15294330000E+03 0.  0.
<mgrwt>
<rscale>  0 0.54966647E+03</rscale>
<asrwt>0</asrwt>
<pdfrwt beam="1">  1        2 0.77912430E-01 0.69565841E+03</pdfrwt>
<pdfrwt beam="2">  1       -2 0.15787911E+00 0.69565841E+03</pdfrwt>
<totfact> 0.16157746E+01</totfact>
</mgrwt>
</event>
<event>
 4    1  0.9654646E-007  0.9039011E+03  0.7818608E-02  0.9519798E-01
         -2   -1    0    0    0  501 -0.00000000000E+00  0.00000000000E+00  0.11549361023E+04  0.11549361023E+04  0.25500000000E-02 0.  1.
          2   -1    0    0  501    0  0.00000000000E+00 -0.00000000000E+00 -0.69834646879E+03  0.69834646879E+03  0.25500000000E-02 0. -1.
    8880023    1    1    2    0    0  0.35862384873E+03 -0.50459478072E+03 -0.21297801193E+03  0.92865321699E+03  0.65864270000E+03 0.  0.
    8880022    1    1    2    0    0 -0.35862384873E+03  0.50459478072E+03  0.66956764539E+03  0.92462935405E+03  0.15294330000E+03 0. -1.
<mgrwt>
<rscale>  0 0.82839808E+03</rscale>
<asrwt>0</asrwt>
<pdfrwt beam="1">  1        2 0.10743792E+00 0.90390108E+03</pdfrwt>
<pdfrwt beam="2">  1       -2 0.17768248E+00 0.90390108E+03</pdfrwt>
<totfact> 0.77438423E+00</totfact>
</mgrwt>
</event>
<event>
 4    1  0.9654646E-007  0.6822005E+03  0.7818608E-02  0.1008105E+00
         -2   -1    0    0    0  501 -0.00000000000E+00  0.00000000000E+00  0.32764058036E+03  0.32764058037E+03  0.25500000000E-02 0.  1.
          2   -1    0    0  501    0  0.00000000000E+00 -0.00000000000E+00 -0.12064963023E+04  0.12064963023E+04  0.25500000000E-02 0. -1.
    8880023    1    1    2    0    0 -0.11642867190E+02  0.17734646796E+03 -0.62824868472E+02  0.68508721811E+03  0.65864270000E+03 0.  1.
    8880022    1    1    2    0    0  0.11642867190E+02 -0.17734646796E+03 -0.81603085345E+03  0.84904966453E+03  0.15294330000E+03 0.  0.
<mgrwt>
<rscale>  0 0.52234641E+03</rscale>
<asrwt>0</asrwt>
<pdfrwt beam="1">  1        2 0.18561481E+00 0.68220051E+03</pdfrwt>
<pdfrwt beam="2">  1       -2 0.50406244E-01 0.68220051E+03</pdfrwt>
<totfact> 0.71481502E+01</totfact>
</mgrwt>
</event>
<event>
 4    1  0.9654646E-007  0.6995218E+03  0.7818608E-02  0.9999191E-01
         -2   -1    0    0    0  501 -0.00000000000E+00  0.00000000000E+00  0.21782164906E+04  0.21782164906E+04  0.25500000000E-02 0.  1.
          2   -1    0    0  501    0  0.00000000000E+00 -0.00000000000E+00 -0.50736050103E+03  0.50736050104E+03  0.25500000000E-02 0. -1.
    8880023    1    1    2    0    0 -0.22280686920E+03 -0.76665864314E+02  0.20770654696E+04  0.21916960845E+04  0.65864270000E+03 0.  1.
    8880022    1    1    2    0    0  0.22280686920E+03  0.76665864314E+02 -0.40620948003E+03  0.49388090710E+03  0.15294330000E+03 0.  0.
<mgrwt>
<rscale>  0 0.55685737E+03</rscale>
<asrwt>0</asrwt>
<pdfrwt beam="1">  1        2 0.78055460E-01 0.69952181E+03</pdfrwt>
<pdfrwt beam="2">  1       -2 0.33511024E+00 0.69952181E+03</pdfrwt>
<totfact> 0.12380243E+00</totfact>
</mgrwt>
</event>
<event>
 4    1  0.9654646E-007  0.7969091E+03  0.7818608E-02  0.9717519E-01
         -2   -1    0    0    0  501 -0.00000000000E+00  0.00000000000E+00  0.43368433465E+03  0.43368433466E+03  0.25500000000E-02 0.  1.
          2   -1    0    0  501    0  0.00000000000E+00 -0.00000000000E+00 -0.11104173585E+04  0.11104173585E+04  0.25500000000E-02 0. -1.
    8880023    1    1    2    0    0  0.76113599101E+02 -0.44210938001E+03 -0.10868236357E+03  0.80428604754E+03  0.65864270000E+03 0.  0.
    8880022    1    1    2    0    0 -0.76113599101E+02  0.44210938001E+03 -0.56805066029E+03  0.73981564563E+03  0.15294330000E+03 0.  0.
<mgrwt>
<rscale>  0 0.69983210E+03</rscale>
<asrwt>0</asrwt>
<pdfrwt beam="1">  1        2 0.17083344E+00 0.79690915E+03</pdfrwt>
<pdfrwt beam="2">  1       -2 0.66720667E-01 0.79690915E+03</pdfrwt>
<totfact> 0.44851710E+01</totfact>
</mgrwt>
</event>
<event>
 4    1  0.9654646E-007  0.7821569E+03  0.7818608E-02  0.9750795E-01
          2   -1    0    0  501    0  0.00000000000E+00  0.00000000000E+00  0.24702687253E+04  0.24702687253E+04  0.25500000000E-02 0. -1.
         -2   -1    0    0    0  501 -0.00000000000E+00 -0.00000000000E+00 -0.39055786550E+03  0.39055786551E+03  0.25500000000E-02 0.  1.
    8880023    1    1    2    0    0 -0.21371544400E+03 -0.36370998123E+03  0.51806882065E+02  0.78387078064E+03  0.65864270000E+03 0.  0.
    8880022    1    1    2    0    0  0.21371544400E+03  0.36370998123E+03  0.20279039777E+04  0.20769558101E+04  0.15294330000E+03 0.  0.
<mgrwt>
<rscale>  0 0.68071389E+03</rscale>
<asrwt>0</asrwt>
<pdfrwt beam="1">  1        2 0.38004135E+00 0.78215692E+03</pdfrwt>
<pdfrwt beam="2">  1       -2 0.60085823E-01 0.78215692E+03</pdfrwt>
<totfact> 0.97480750E+00</totfact>
</mgrwt>
</event>
<event>
 4    1  0.9654646E-007  0.6898786E+03  0.7818608E-02  0.1004210E+00
          2   -1    0    0  501    0  0.00000000000E+00  0.00000000000E+00  0.11047355278E+04  0.11047355278E+04  0.25500000000E-02 0. -1.
         -2   -1    0    0    0  501 -0.00000000000E+00 -0.00000000000E+00 -0.22070837367E+03  0.22070837368E+03  0.25500000000E-02 0.  1.
    8880023    1    1    2    0    0  0.17275695082E+03 -0.11080316466E+03  0.45678056898E+03  0.82739410188E+03  0.65864270000E+03 0.  0.
    8880022    1    1    2    0    0 -0.17275695082E+03  0.11080316466E+03  0.42724658518E+03  0.49804979964E+03  0.15294330000E+03 0.  0.
<mgrwt>
<rscale>  0 0.53842008E+03</rscale>
<asrwt>0</asrwt>
<pdfrwt beam="1">  1        2 0.16995931E+00 0.68987862E+03</pdfrwt>
<pdfrwt beam="2">  1       -2 0.33955135E-01 0.68987862E+03</pdfrwt>
<totfact> 0.17836549E+02</totfact>
</mgrwt>
</event>
<event>
 4    1  0.9654646E-007  0.7237022E+03  0.7818608E-02  0.9910252E-01
          2   -1    0    0  501    0  0.00000000000E+00  0.00000000000E+00  0.27561877537E+04  0.27561877537E+04  0.25500000000E-02 0. -1.
         -2   -1    0    0    0  501 -0.00000000000E+00 -0.00000000000E+00 -0.14055005759E+03  0.14055005761E+03  0.25500000000E-02 0.  1.
    8880023    1    1    2    0    0 -0.28278258666E+03 -0.99843149711E+02  0.93311282927E+03  0.11808659553E+04  0.65864270000E+03 0.  1.
    8880022    1    1    2    0    0  0.28278258666E+03  0.99843149711E+02  0.16825248668E+04  0.17158718560E+04  0.15294330000E+03 0.  0.
<mgrwt>
<rscale>  0 0.59766972E+03</rscale>
<asrwt>0</asrwt>
<pdfrwt beam="1">  1        2 0.42402884E+00 0.72370218E+03</pdfrwt>
<pdfrwt beam="2">  1       -2 0.21623088E-01 0.72370218E+03</pdfrwt>
<totfact> 0.48065775E+01</totfact>
</mgrwt>
</event>
<event>
 4    1  0.9654646E-007  0.1002709E+04  0.7818608E-02  0.9378022E-01
          2   -1    0    0  501    0  0.00000000000E+00  0.00000000000E+00  0.79234452023E+03  0.79234452024E+03  0.25500000000E-02 0. -1.
         -2   -1    0    0    0  501 -0.00000000000E+00 -0.00000000000E+00 -0.10376975242E+04  0.10376975242E+04  0.25500000000E-02 0.  1.
    8880023    1    1    2    0    0  0.18458790696E+03  0.73317248064E+03 -0.32623934243E+03  0.10544462512E+04  0.65864270000E+03 0.  0.
    8880022    1    1    2    0    0 -0.18458790696E+03 -0.73317248064E+03  0.80886338491E+02  0.77559579326E+03  0.15294330000E+03 0.  0.
<mgrwt>
<rscale>  0 0.93906636E+03</rscale>
<asrwt>0</asrwt>
<pdfrwt beam="1">  1        2 0.12189916E+00 0.10027087E+04</pdfrwt>
<pdfrwt beam="2">  1       -2 0.15964577E+00 0.10027087E+04</pdfrwt>
<totfact> 0.87677582E+00</totfact>
</mgrwt>
</event>
<event>
 4    1  0.9654646E-007  0.7119535E+03  0.7818608E-02  0.9950817E-01
          2   -1    0    0  501    0  0.00000000000E+00  0.00000000000E+00  0.16396995397E+04  0.16396995397E+04  0.25500000000E-02 0. -1.
         -2   -1    0    0    0  501 -0.00000000000E+00 -0.00000000000E+00 -0.87762356031E+03  0.87762356031E+03  0.25500000000E-02 0.  1.
    8880023    1    1    2    0    0 -0.93944959599E+02 -0.25346001653E+03 -0.71437010072E+03  0.10085645654E+04  0.65864270000E+03 0.  1.
    8880022    1    1    2    0    0  0.93944959599E+02  0.25346001653E+03  0.14764460802E+04  0.15087585347E+04  0.15294330000E+03 0.  0.
<mgrwt>
<rscale>  0 0.57860442E+03</rscale>
<asrwt>0</asrwt>
<pdfrwt beam="1">  1        2 0.25226147E+00 0.71195354E+03</pdfrwt>
<pdfrwt beam="2">  1       -2 0.13501901E+00 0.71195354E+03</pdfrwt>
<totfact> 0.43246877E+00</totfact>
</mgrwt>
</event>
<event>
 4    1  0.9654646E-007  0.7633542E+03  0.7818608E-02  0.9796500E-01
          2   -1    0    0  501    0  0.00000000000E+00  0.00000000000E+00  0.10178713602E+04  0.10178713602E+04  0.25500000000E-02 0. -1.
         -2   -1    0    0    0  501 -0.00000000000E+00 -0.00000000000E+00 -0.78842238659E+03  0.78842238659E+03  0.25500000000E-02 0.  1.
    8880023    1    1    2    0    0  0.57985454546E+02  0.38149324790E+03 -0.53792772480E+03  0.93385001714E+03  0.65864270000E+03 0.  1.
    8880022    1    1    2    0    0 -0.57985454546E+02 -0.38149324790E+03  0.76737669840E+03  0.87244372965E+03  0.15294330000E+03 0.  0.
<mgrwt>
<rscale>  0 0.65550712E+03</rscale>
<asrwt>0</asrwt>
<pdfrwt beam="1">  1        2 0.15659559E+00 0.76335419E+03</pdfrwt>
<pdfrwt beam="2">  1       -2 0.12129575E+00 0.76335419E+03</pdfrwt>
<totfact> 0.12881858E+01</totfact>
</mgrwt>
</event>
<event>
 4    1  0.9654646E-007  0.6866391E+03  0.7818608E-02  0.1005793E+00
         -2   -1    0    0    0  501 -0.00000000000E+00  0.00000000000E+00  0.35856922100E+03  0.35856922101E+03  0.25500000000E-02 0.  1.
          2   -1    0    0  501    0  0.00000000000E+00 -0.00000000000E+00 -0.12078195056E+04  0.12078195056E+04  0.25500000000E-02 0. -1.
    8880023    1    1    2    0    0  0.10272650557E+03  0.16465204844E+03 -0.49318749897E+01  0.68665680049E+03  0.65864270000E+03 0.  1.
    8880022    1    1    2    0    0 -0.10272650557E+03 -0.16465204844E+03 -0.84431840959E+03  0.87973192610E+03  0.15294330000E+03 0.  0.
<mgrwt>
<rscale>  0 0.53181584E+03</rscale>
<asrwt>0</asrwt>
<pdfrwt beam="1">  1        2 0.18581838E+00 0.68663909E+03</pdfrwt>
<pdfrwt beam="2">  1       -2 0.55164496E-01 0.68663909E+03</pdfrwt>
<totfact> 0.59255811E+01</totfact>
</mgrwt>
</event>
<event>
 4    1  0.9654646E-007  0.1039172E+04  0.7818608E-02  0.9332012E-01
          2   -1    0    0  501    0  0.00000000000E+00  0.00000000000E+00  0.47113392346E+03  0.47113392347E+03  0.25500000000E-02 0. -1.
         -2   -1    0    0    0  501 -0.00000000000E+00 -0.00000000000E+00 -0.22867854167E+04  0.22867854167E+04  0.25500000000E-02 0.  1.
    8880023    1    1    2    0    0  0.14875220353E+03 -0.78989991755E+03 -0.16066746492E+04  0.19134478651E+04  0.65864270000E+03 0.  0.
    8880022    1    1    2    0    0 -0.14875220353E+03  0.78989991755E+03 -0.20897684400E+03  0.84447147503E+03  0.15294330000E+03 0.  0.
<mgrwt>
<rscale>  0 0.97888426E+03</rscale>
<asrwt>0</asrwt>
<pdfrwt beam="1">  1        2 0.72482143E-01 0.10391724E+04</pdfrwt>
<pdfrwt beam="2">  1       -2 0.35181314E+00 0.10391724E+04</pdfrwt>
<totfact> 0.10098682E+00</totfact>
</mgrwt>
</event>
<event>
 4    1  0.9654646E-007  0.8422615E+03  0.7818608E-02  0.9625931E-01
         -2   -1    0    0    0  501 -0.00000000000E+00  0.00000000000E+00  0.80388712734E+03  0.80388712735E+03  0.25500000000E-02 0.  1.
          2   -1    0    0  501    0  0.00000000000E+00 -0.00000000000E+00 -0.12902063324E+04  0.12902063324E+04  0.25500000000E-02 0. -1.
    8880023    1    1    2    0    0 -0.21753468854E+03 -0.47777906942E+03  0.49047803060E+03  0.97466562711E+03  0.65864270000E+03 0.  1.
    8880022    1    1    2    0    0  0.21753468854E+03  0.47777906942E+03 -0.97679723565E+03  0.11194278326E+04  0.15294330000E+03 0.  0.
<mgrwt>
<rscale>  0 0.75603435E+03</rscale>
<asrwt>0</asrwt>
<pdfrwt beam="1">  1        2 0.19849328E+00 0.84226147E+03</pdfrwt>
<pdfrwt beam="2">  1       -2 0.12367494E+00 0.84226147E+03</pdfrwt>
<totfact> 0.83292566E+00</totfact>
</mgrwt>
</event>
<event>
 4    1  0.9654646E-007  0.1039073E+04  0.7818608E-02  0.9332134E-01
         -2   -1    0    0    0  501 -0.00000000000E+00  0.00000000000E+00  0.12636447848E+04  0.12636447848E+04  0.25500000000E-02 0.  1.
          2   -1    0    0  501    0  0.00000000000E+00 -0.00000000000E+00 -0.13016214914E+04  0.13016214914E+04  0.25500000000E-02 0. -1.
    8880023    1    1    2    0    0  0.18043774778E+03 -0.78313753018E+03  0.86124361038E+03  0.13495973232E+04  0.65864270000E+03 0.  0.
    8880022    1    1    2    0    0 -0.18043774778E+03  0.78313753018E+03 -0.89922031693E+03  0.12156689530E+04  0.15294330000E+03 0.  0.
<mgrwt>
<rscale>  0 0.97877610E+03</rscale>
<asrwt>0</asrwt>
<pdfrwt beam="1">  1        2 0.20024946E+00 0.10390728E+04</pdfrwt>
<pdfrwt beam="2">  1       -2 0.19440689E+00 0.10390728E+04</pdfrwt>
<totfact> 0.23594512E+00</totfact>
</mgrwt>
</event>
<event>
 4    1  0.9654646E-007  0.1329629E+04  0.7818608E-02  0.9040387E-01
          2   -1    0    0  501    0  0.00000000000E+00  0.00000000000E+00  0.25641610917E+04  0.25641610917E+04  0.25500000000E-02 0. -1.
         -2   -1    0    0    0  501 -0.00000000000E+00 -0.00000000000E+00 -0.15769264345E+04  0.15769264345E+04  0.25500000000E-02 0.  1.
    8880023    1    1    2    0    0 -0.35760564871E+03  0.10982806241E+04  0.21288079393E+04  0.25099274050E+04  0.65864270000E+03 0. -1.
    8880022    1    1    2    0    0  0.35760564871E+03 -0.10982806241E+04 -0.11415732821E+04  0.16311601212E+04  0.15294330000E+03 0.  0.
<mgrwt>
<rscale>  0 0.12864414E+04</rscale>
<asrwt>0</asrwt>
<pdfrwt beam="1">  1        2 0.39448632E+00 0.13296286E+04</pdfrwt>
<pdfrwt beam="2">  1       -2 0.24260407E+00 0.13296286E+04</pdfrwt>
<totfact> 0.21870352E-01</totfact>
</mgrwt>
</event>
<event>
 4    1  0.9654646E-007  0.9645715E+03  0.7818608E-02  0.9429452E-01
          2   -1    0    0  501    0  0.00000000000E+00  0.00000000000E+00  0.18182584749E+04  0.18182584749E+04  0.25500000000E-02 0. -1.
         -2   -1    0    0    0  501 -0.00000000000E+00 -0.00000000000E+00 -0.67277425352E+03  0.67277425352E+03  0.25500000000E-02 0.  1.
    8880023    1    1    2    0    0 -0.25742659473E+02 -0.70421957721E+03 -0.18082264958E+03  0.98137400327E+03  0.65864270000E+03 0.  0.
    8880022    1    1    2    0    0  0.25742659473E+02  0.70421957721E+03  0.13263068710E+04  0.15096587252E+04  0.15294330000E+03 0.  0.
<mgrwt>
<rscale>  0 0.89691046E+03</rscale>
<asrwt>0</asrwt>
<pdfrwt beam="1">  1        2 0.27973207E+00 0.96457146E+03</pdfrwt>
<pdfrwt beam="2">  1       -2 0.10350373E+00 0.96457146E+03</pdfrwt>
<totfact> 0.64275738E+00</totfact>
</mgrwt>
</event>
<event>
 4    1  0.9654646E-007  0.7203256E+03  0.7818608E-02  0.9921486E-01
         -2   -1    0    0    0  501 -0.00000000000E+00  0.00000000000E+00  0.37535873138E+03  0.37535873138E+03  0.25500000000E-02 0.  1.
          2   -1    0    0  501    0  0.00000000000E+00 -0.00000000000E+00 -0.99749007091E+03  0.99749007092E+03  0.25500000000E-02 0. -1.
    8880023    1    1    2    0    0  0.12134047918E+03 -0.26520792419E+03 -0.61880720454E+02  0.72297868902E+03  0.65864270000E+03 0.  1.
    8880022    1    1    2    0    0 -0.12134047918E+03  0.26520792419E+03 -0.56025061909E+03  0.64987011329E+03  0.15294330000E+03 0. -1.
<mgrwt>
<rscale>  0 0.59231200E+03</rscale>
<asrwt>0</asrwt>
<pdfrwt beam="1">  1        2 0.15346001E+00 0.72032559E+03</pdfrwt>
<pdfrwt beam="2">  1       -2 0.57747497E-01 0.72032559E+03</pdfrwt>
<totfact> 0.72194476E+01</totfact>
</mgrwt>
</event>
<event>
 4    1  0.9654646E-007  0.1001205E+04  0.7818608E-02  0.9379983E-01
         -2   -1    0    0    0  501 -0.00000000000E+00  0.00000000000E+00  0.91295285814E+03  0.91295285814E+03  0.25500000000E-02 0.  1.
          2   -1    0    0  501    0  0.00000000000E+00 -0.00000000000E+00 -0.95816347020E+03  0.95816347021E+03  0.25500000000E-02 0. -1.
    8880023    1    1    2    0    0  0.74402784108E+03 -0.12257012670E+03  0.27414864936E+03  0.10380599946E+04  0.65864270000E+03 0.  0.
    8880022    1    1    2    0    0 -0.74402784108E+03  0.12257012670E+03 -0.31935926142E+03  0.83305633371E+03  0.15294330000E+03 0.  0.
<mgrwt>
<rscale>  0 0.93741462E+03</rscale>
<asrwt>0</asrwt>
<pdfrwt beam="1">  1        2 0.14740977E+00 0.10012048E+04</pdfrwt>
<pdfrwt beam="2">  1       -2 0.14045428E+00 0.10012048E+04</pdfrwt>
<totfact> 0.94696581E+00</totfact>
</mgrwt>
</event>
<event>
 4    1  0.9654646E-007  0.7024539E+03  0.7818608E-02  0.9987170E-01
         -2   -1    0    0    0  501 -0.00000000000E+00  0.00000000000E+00  0.64259177915E+03  0.64259177916E+03  0.25500000000E-02 0.  1.
          2   -1    0    0  501    0  0.00000000000E+00 -0.00000000000E+00 -0.61945131469E+03  0.61945131469E+03  0.25500000000E-02 0. -1.
    8880023    1    1    2    0    0  0.22502626647E+03  0.94839015696E+02  0.38376245612E+03  0.80044680554E+03  0.65864270000E+03 0.  1.
    8880022    1    1    2    0    0 -0.22502626647E+03 -0.94839015696E+02 -0.36062199166E+03  0.46159628831E+03  0.15294330000E+03 0.  0.
<mgrwt>
<rscale>  0 0.56216410E+03</rscale>
<asrwt>0</asrwt>
<pdfrwt beam="1">  1        2 0.95300202E-01 0.70245389E+03</pdfrwt>
<pdfrwt beam="2">  1       -2 0.98860274E-01 0.70245389E+03</pdfrwt>
<totfact> 0.41151709E+01</totfact>
</mgrwt>
</event>
<event>
 4    1  0.9654646E-007  0.6957775E+03  0.7818608E-02  0.1001519E+00
          2   -1    0    0  501    0  0.00000000000E+00  0.00000000000E+00  0.25886915349E+04  0.25886915349E+04  0.25500000000E-02 0. -1.
         -2   -1    0    0    0  501 -0.00000000000E+00 -0.00000000000E+00 -0.13631796673E+03  0.13631796676E+03  0.25500000000E-02 0.  1.
    8880023    1    1    2    0    0  0.17038011011E+03 -0.14583123128E+03  0.84367753704E+03  0.10935712701E+04  0.65864270000E+03 0.  1.
    8880022    1    1    2    0    0 -0.17038011011E+03  0.14583123128E+03  0.16086960312E+04  0.16314382316E+04  0.15294330000E+03 0.  0.
<mgrwt>
<rscale>  0 0.54989178E+03</rscale>
<asrwt>0</asrwt>
<pdfrwt beam="1">  1        2 0.39826020E+00 0.69577750E+03</pdfrwt>
<pdfrwt beam="2">  1       -2 0.20971997E-01 0.69577750E+03</pdfrwt>
<totfact> 0.63675318E+01</totfact>
</mgrwt>
</event>
<event>
 4    1  0.1019798E-006  0.6785812E+03  0.7818608E-02  0.1010138E+00
          2   -1    0    0  501    0  0.00000000000E+00  0.00000000000E+00  0.22369300942E+04  0.22369300942E+04  0.25500000000E-02 0. -1.
         -2   -1    0    0    0  501 -0.00000000000E+00 -0.00000000000E+00 -0.91133186484E+03  0.91133186484E+03  0.25500000000E-02 0.  1.
    8880023    1    1    2    0    0 -0.15009401555E+03  0.64296015235E+02 -0.77825468447E+03  0.10325467308E+04  0.65864270000E+03 0.  1.
    8880022    1    1    2    0    0  0.15009401555E+03 -0.64296015235E+02  0.21038529138E+04  0.21157152282E+04  0.15294330000E+03 0.  0.
<mgrwt>
<rscale>  0 0.51419877E+03</rscale>
<asrwt>0</asrwt>
<pdfrwt beam="1">  1        2 0.34414309E+00 0.67858116E+03</pdfrwt>
<pdfrwt beam="2">  1       -2 0.14020490E+00 0.67858116E+03</pdfrwt>
<totfact> 0.18651994E+00</totfact>
</mgrwt>
</event>
<event>
 4    1  0.9654646E-007  0.1182959E+04  0.7818608E-02  0.9173868E-01
         -2   -1    0    0    0  501 -0.00000000000E+00  0.00000000000E+00  0.10198451979E+04  0.10198451979E+04  0.25500000000E-02 0.  1.
          2   -1    0    0  501    0  0.00000000000E+00 -0.00000000000E+00 -0.15628587114E+04  0.15628587114E+04  0.25500000000E-02 0. -1.
    8880023    1    1    2    0    0 -0.34496807411E+03 -0.92009654109E+03  0.36300334274E+03  0.12374014103E+04  0.65864270000E+03 0.  0.
    8880022    1    1    2    0    0  0.34496807411E+03  0.92009654109E+03 -0.90601685626E+03  0.13453024990E+04  0.15294330000E+03 0.  0.
<mgrwt>
<rscale>  0 0.11327267E+04</rscale>
<asrwt>0</asrwt>
<pdfrwt beam="1">  1        2 0.24043980E+00 0.11829585E+04</pdfrwt>
<pdfrwt beam="2">  1       -2 0.15689926E+00 0.11829585E+04</pdfrwt>
<totfact> 0.30246399E+00</totfact>
</mgrwt>
</event>
<event>
 4    1  0.9654646E-007  0.1342368E+04  0.7818608E-02  0.9029810E-01
         -2   -1    0    0    0  501 -0.00000000000E+00  0.00000000000E+00  0.10589067739E+04  0.10589067739E+04  0.25500000000E-02 0.  1.
          2   -1    0    0  501    0  0.00000000000E+00 -0.00000000000E+00 -0.25197202106E+04  0.25197202106E+04  0.25500000000E-02 0. -1.
    8880023    1    1    2    0    0  0.76698013970E+03  0.88310931793E+03  0.37744925153E+03  0.13944241628E+04  0.65864270000E+03 0.  0.
    8880022    1    1    2    0    0 -0.76698013970E+03 -0.88310931793E+03 -0.18382626883E+04  0.21842028217E+04  0.15294330000E+03 0.  0.
<mgrwt>
<rscale>  0 0.12996914E+04</rscale>
<asrwt>0</asrwt>
<pdfrwt beam="1">  1        2 0.38764926E+00 0.13423676E+04</pdfrwt>
<pdfrwt beam="2">  1       -2 0.16290874E+00 0.13423676E+04</pdfrwt>
<totfact> 0.78040142E-01</totfact>
</mgrwt>
</event>
<event>
 4    1  0.9654646E-007  0.8304679E+03  0.7818608E-02  0.9648423E-01
          2   -1    0    0  501    0  0.00000000000E+00  0.00000000000E+00  0.10716083370E+04  0.10716083370E+04  0.25500000000E-02 0. -1.
         -2   -1    0    0    0  501 -0.00000000000E+00 -0.00000000000E+00 -0.83818026821E+03  0.83818026821E+03  0.25500000000E-02 0.  1.
    8880023    1    1    2    0    0 -0.12410861124E+03 -0.49037108083E+03 -0.52714935536E+03  0.98364800280E+03  0.65864270000E+03 0.  0.
    8880022    1    1    2    0    0  0.12410861124E+03  0.49037108083E+03  0.76057742418E+03  0.92614060243E+03  0.15294330000E+03 0.  0.
<mgrwt>
<rscale>  0 0.74172501E+03</rscale>
<asrwt>0</asrwt>
<pdfrwt beam="1">  1        2 0.16486282E+00 0.83046791E+03</pdfrwt>
<pdfrwt beam="2">  1       -2 0.12895081E+00 0.83046791E+03</pdfrwt>
<totfact> 0.10147260E+01</totfact>
</mgrwt>
</event>
<event>
 4    1  0.9654646E-007  0.9750686E+03  0.7818608E-02  0.9414928E-01
          2   -1    0    0  501    0  0.00000000000E+00  0.00000000000E+00  0.26388152650E+04  0.26388152650E+04  0.25500000000E-02 0. -1.
         -2   -1    0    0    0  501 -0.00000000000E+00 -0.00000000000E+00 -0.33855991658E+03  0.33855991659E+03  0.25500000000E-02 0.  1.
    8880023    1    1    2    0    0 -0.29718088634E+03  0.65469997140E+03  0.65294201217E+03  0.11734956367E+04  0.65864270000E+03 0. -1.
    8880022    1    1    2    0    0  0.29718088634E+03 -0.65469997140E+03  0.16473133363E+04  0.18038795449E+04  0.15294330000E+03 0.  0.
<mgrwt>
<rscale>  0 0.90857290E+03</rscale>
<asrwt>0</asrwt>
<pdfrwt beam="1">  1        2 0.40597157E+00 0.97506858E+03</pdfrwt>
<pdfrwt beam="2">  1       -2 0.52086142E-01 0.97506858E+03</pdfrwt>
<totfact> 0.10228648E+01</totfact>
</mgrwt>
</event>
<event>
 4    1  0.9654646E-007  0.7046365E+03  0.7818608E-02  0.9978485E-01
         -2   -1    0    0    0  501 -0.00000000000E+00  0.00000000000E+00  0.40499628841E+03  0.40499628842E+03  0.25500000000E-02 0.  1.
          2   -1    0    0  501    0  0.00000000000E+00 -0.00000000000E+00 -0.22601861996E+04  0.22601861996E+04  0.25500000000E-02 0. -1.
    8880023    1    1    2    0    0 -0.59547135129E+02 -0.24322109704E+03  0.78829233387E+02  0.70903216968E+03  0.65864270000E+03 0.  1.
    8880022    1    1    2    0    0  0.59547135129E+02  0.24322109704E+03 -0.19340191446E+04  0.19561503184E+04  0.15294330000E+03 0.  0.
<mgrwt>
<rscale>  0 0.56603784E+03</rscale>
<asrwt>0</asrwt>
<pdfrwt beam="1">  1        2 0.34772095E+00 0.70463648E+03</pdfrwt>
<pdfrwt beam="2">  1       -2 0.62307123E-01 0.70463648E+03</pdfrwt>
<totfact> 0.11977100E+01</totfact>
</mgrwt>
</event>
<event>
 4    1  0.9654646E-007  0.7272652E+03  0.7818608E-02  0.9898728E-01
         -2   -1    0    0    0  501 -0.00000000000E+00  0.00000000000E+00  0.95509153286E+03  0.95509153286E+03  0.25500000000E-02 0.  1.
          2   -1    0    0  501    0  0.00000000000E+00 -0.00000000000E+00 -0.13166250955E+04  0.13166250955E+04  0.25500000000E-02 0. -1.
    8880023    1    1    2    0    0 -0.27333742125E+03  0.14279756315E+03  0.78766553564E+03  0.10720688841E+04  0.65864270000E+03 0.  1.
    8880022    1    1    2    0    0  0.27333742125E+03 -0.14279756315E+03 -0.11491990982E+04  0.11996477443E+04  0.15294330000E+03 0.  0.
<mgrwt>
<rscale>  0 0.60322959E+03</rscale>
<asrwt>0</asrwt>
<pdfrwt beam="1">  1        2 0.20255771E+00 0.72726522E+03</pdfrwt>
<pdfrwt beam="2">  1       -2 0.14693716E+00 0.72726522E+03</pdfrwt>
<totfact> 0.52506437E+00</totfact>
</mgrwt>
</event>
<event>
 4    1  0.9654646E-007  0.7509494E+03  0.7818608E-02  0.9829128E-01
         -2   -1    0    0    0  501 -0.00000000000E+00  0.00000000000E+00  0.13537410612E+04  0.13537410612E+04  0.25500000000E-02 0.  1.
          2   -1    0    0  501    0  0.00000000000E+00 -0.00000000000E+00 -0.86515714470E+03  0.86515714471E+03  0.25500000000E-02 0. -1.
    8880023    1    1    2    0    0 -0.35976728247E+03 -0.26122250168E+02  0.11948490401E+04  0.14112367996E+04  0.65864270000E+03 0.  1.
    8880022    1    1    2    0    0  0.35976728247E+03  0.26122250168E+02 -0.70626512361E+03  0.80766140636E+03  0.15294330000E+03 0.  0.
<mgrwt>
<rscale>  0 0.63822510E+03</rscale>
<asrwt>0</asrwt>
<pdfrwt beam="1">  1        2 0.13310110E+00 0.75094945E+03</pdfrwt>
<pdfrwt beam="2">  1       -2 0.20826786E+00 0.75094945E+03</pdfrwt>
<totfact> 0.37262490E+00</totfact>
</mgrwt>
</event>
<event>
 4    1  0.9654646E-007  0.6777227E+03  0.7818608E-02  0.1010642E+00
         -2   -1    0    0    0  501 -0.00000000000E+00  0.00000000000E+00  0.19509609527E+03  0.19509609529E+03  0.25500000000E-02 0.  1.
          2   -1    0    0  501    0  0.00000000000E+00 -0.00000000000E+00 -0.37308416610E+04  0.37308416610E+04  0.25500000000E-02 0. -1.
    8880023    1    1    2    0    0  0.72012346580E+02  0.14252059059E+03 -0.40939496820E+03  0.79177796323E+03  0.65864270000E+03 0.  0.
    8880022    1    1    2    0    0 -0.72012346580E+02 -0.14252059059E+03 -0.31263505975E+04  0.31341597931E+04  0.15294330000E+03 0.  0.
<mgrwt>
<rscale>  0 0.51220173E+03</rscale>
<asrwt>0</asrwt>
<pdfrwt beam="1">  1        2 0.57397559E+00 0.67772273E+03</pdfrwt>
<pdfrwt beam="2">  1       -2 0.30014787E-01 0.67772273E+03</pdfrwt>
<totfact> 0.62887538E+00</totfact>
</mgrwt>
</event>
<event>
 4    1  0.9913699E-007  0.6956564E+03  0.7818608E-02  0.1001572E+00
         -2   -1    0    0    0  501 -0.00000000000E+00  0.00000000000E+00  0.38817844596E+03  0.38817844597E+03  0.25500000000E-02 0.  1.
          2   -1    0    0  501    0  0.00000000000E+00 -0.00000000000E+00 -0.22969815523E+04  0.22969815523E+04  0.25500000000E-02 0. -1.
    8880023    1    1    2    0    0  0.22354460808E+03 -0.12467613122E+02  0.59567427536E+02  0.69820206091E+03  0.65864270000E+03 0.  1.
    8880022    1    1    2    0    0 -0.22354460808E+03  0.12467613122E+02 -0.19683705339E+04  0.19869579374E+04  0.15294330000E+03 0.  0.
<mgrwt>
<rscale>  0 0.54966268E+03</rscale>
<asrwt>0</asrwt>
<pdfrwt beam="1">  1        2 0.35338177E+00 0.69565641E+03</pdfrwt>
<pdfrwt beam="2">  1       -2 0.59719762E-01 0.69565641E+03</pdfrwt>
<totfact> 0.12521308E+01</totfact>
</mgrwt>
</event>
<event>
 4    1  0.9654646E-007  0.9367727E+03  0.7818608E-02  0.9469406E-01
         -2   -1    0    0    0  501 -0.00000000000E+00  0.00000000000E+00  0.16361702344E+04  0.16361702344E+04  0.25500000000E-02 0.  1.
          2   -1    0    0  501    0  0.00000000000E+00 -0.00000000000E+00 -0.14067048274E+04  0.14067048274E+04  0.25500000000E-02 0. -1.
    8880023    1    1    2    0    0 -0.60835831453E+03  0.27135403700E+03  0.14017184597E+04  0.16859293279E+04  0.65864270000E+03 0.  1.
    8880022    1    1    2    0    0  0.60835831453E+03 -0.27135403700E+03 -0.11722530527E+04  0.13569457339E+04  0.15294330000E+03 0.  0.
<mgrwt>
<rscale>  0 0.86577441E+03</rscale>
<asrwt>0</asrwt>
<pdfrwt beam="1">  1        2 0.21641613E+00 0.93677268E+03</pdfrwt>
<pdfrwt beam="2">  1       -2 0.25171850E+00 0.93677268E+03</pdfrwt>
<totfact> 0.90627162E-01</totfact>
</mgrwt>
</event>
<event>
 4    1  0.9654646E-007  0.6926984E+03  0.7818608E-02  0.1002896E+00
          2   -1    0    0  501    0  0.00000000000E+00  0.00000000000E+00  0.54059515894E+03  0.54059515894E+03  0.25500000000E-02 0. -1.
         -2   -1    0    0    0  501 -0.00000000000E+00 -0.00000000000E+00 -0.44544424588E+03  0.44544424589E+03  0.25500000000E-02 0.  1.
    8880023    1    1    2    0    0 -0.21269384592E+03 -0.27966643072E+02 -0.32128942138E+02  0.69344306212E+03  0.65864270000E+03 0.  0.
    8880022    1    1    2    0    0  0.21269384592E+03  0.27966643072E+02  0.12727985519E+03  0.29259634272E+03  0.15294330000E+03 0.  1.
<mgrwt>
<rscale>  0 0.54398609E+03</rscale>
<asrwt>0</asrwt>
<pdfrwt beam="1">  1        2 0.83168486E-01 0.69269836E+03</pdfrwt>
<pdfrwt beam="2">  1       -2 0.68529884E-01 0.69269836E+03</pdfrwt>
<totfact> 0.11095455E+02</totfact>
</mgrwt>
</event>
<event>
 4    1  0.9654646E-007  0.8426377E+03  0.7818608E-02  0.9625226E-01
          2   -1    0    0  501    0  0.00000000000E+00  0.00000000000E+00  0.71884404368E+03  0.71884404368E+03  0.25500000000E-02 0. -1.
         -2   -1    0    0    0  501 -0.00000000000E+00 -0.00000000000E+00 -0.81860871382E+03  0.81860871383E+03  0.25500000000E-02 0.  1.
    8880023    1    1    2    0    0  0.19526421433E+03 -0.48795497313E+03  0.26070461202E+03  0.88204607033E+03  0.65864270000E+03 0.  0.
    8880022    1    1    2    0    0 -0.19526421433E+03  0.48795497313E+03 -0.36046928216E+03  0.65540668718E+03  0.15294330000E+03 0.  0.
<mgrwt>
<rscale>  0 0.75648793E+03</rscale>
<asrwt>0</asrwt>
<pdfrwt beam="1">  1        2 0.11059139E+00 0.84263775E+03</pdfrwt>
<pdfrwt beam="2">  1       -2 0.12593980E+00 0.84263775E+03</pdfrwt>
<totfact> 0.18743666E+01</totfact>
</mgrwt>
</event>
<event>
 4    1  0.9654646E-007  0.6898691E+03  0.7818608E-02  0.1004215E+00
          2   -1    0    0  501    0  0.00000000000E+00  0.00000000000E+00  0.32854843530E+04  0.32854843530E+04  0.25500000000E-02 0. -1.
         -2   -1    0    0    0  501 -0.00000000000E+00 -0.00000000000E+00 -0.10776418607E+03  0.10776418610E+03  0.25500000000E-02 0.  1.
    8880023    1    1    2    0    0 -0.19542259823E+03 -0.62603243678E+02  0.10904679433E+04  0.12903641733E+04  0.65864270000E+03 0.  0.
    8880022    1    1    2    0    0  0.19542259823E+03  0.62603243678E+02  0.20872522236E+04  0.21028843658E+04  0.15294330000E+03 0.  0.
<mgrwt>
<rscale>  0 0.53840099E+03</rscale>
<asrwt>0</asrwt>
<pdfrwt beam="1">  1        2 0.50545907E+00 0.68986909E+03</pdfrwt>
<pdfrwt beam="2">  1       -2 0.16579108E-01 0.68986909E+03</pdfrwt>
<totfact> 0.36254384E+01</totfact>
</mgrwt>
</event>
<event>
 4    1  0.9654646E-007  0.8444475E+03  0.7818608E-02  0.9621850E-01
         -2   -1    0    0    0  501 -0.00000000000E+00  0.00000000000E+00  0.41941576264E+03  0.41941576264E+03  0.25500000000E-02 0.  1.
          2   -1    0    0  501    0  0.00000000000E+00 -0.00000000000E+00 -0.14244133408E+04  0.14244133408E+04  0.25500000000E-02 0. -1.
    8880023    1    1    2    0    0  0.49511283790E+02  0.52614643481E+03 -0.19834803230E+03  0.86742929756E+03  0.65864270000E+03 0.  1.
    8880022    1    1    2    0    0 -0.49511283790E+02 -0.52614643481E+03 -0.80664954589E+03  0.97639980592E+03  0.15294330000E+03 0. -1.
<mgrwt>
<rscale>  0 0.75866707E+03</rscale>
<asrwt>0</asrwt>
<pdfrwt beam="1">  1        2 0.21914051E+00 0.84444754E+03</pdfrwt>
<pdfrwt beam="2">  1       -2 0.64525503E-01 0.84444754E+03</pdfrwt>
<totfact> 0.31447514E+01</totfact>
</mgrwt>
</event>
<event>
 4    1  0.9654646E-007  0.6631808E+03  0.7818608E-02  0.1021111E+00
          2   -1    0    0  501    0  0.00000000000E+00  0.00000000000E+00  0.14358347657E+04  0.14358347657E+04  0.25500000000E-02 0. -1.
         -2   -1    0    0    0  501 -0.00000000000E+00 -0.00000000000E+00 -0.40730098255E+03  0.40730098256E+03  0.25500000000E-02 0.  1.
    8880023    1    1    2    0    0 -0.55562191379E+02 -0.53957262464E+02 -0.12676416865E+03  0.67518731031E+03  0.65864270000E+03 0.  1.
    8880022    1    1    2    0    0  0.55562191379E+02  0.53957262464E+02  0.11552979518E+04  0.11679484379E+04  0.15294330000E+03 0.  0.
<mgrwt>
<rscale>  0 0.47287816E+03</rscale>
<asrwt>0</asrwt>
<pdfrwt beam="1">  1        2 0.22089766E+00 0.66318078E+03</pdfrwt>
<pdfrwt beam="2">  1       -2 0.62661689E-01 0.66318078E+03</pdfrwt>
<totfact> 0.33657906E+01</totfact>
</mgrwt>
</event>
<event>
 4    1  0.9654646E-007  0.9649977E+03  0.7818608E-02  0.9428856E-01
         -2   -1    0    0    0  501 -0.00000000000E+00  0.00000000000E+00  0.58426561843E+03  0.58426561844E+03  0.25500000000E-02 0.  1.
          2   -1    0    0  501    0  0.00000000000E+00 -0.00000000000E+00 -0.14935835613E+04  0.14935835613E+04  0.25500000000E-02 0. -1.
    8880023    1    1    2    0    0 -0.67025298316E+03 -0.21947943507E+03 -0.65063846421E+02  0.96718860323E+03  0.65864270000E+03 0.  0.
    8880022    1    1    2    0    0  0.67025298316E+03  0.21947943507E+03 -0.84425409647E+03  0.11106605765E+04  0.15294330000E+03 0.  0.
<mgrwt>
<rscale>  0 0.89738493E+03</rscale>
<asrwt>0</asrwt>
<pdfrwt beam="1">  1        2 0.22978209E+00 0.96499766E+03</pdfrwt>
<pdfrwt beam="2">  1       -2 0.89887018E-01 0.96499766E+03</pdfrwt>
<totfact> 0.13562410E+01</totfact>
</mgrwt>
</event>
<event>
 4    1  0.9654646E-007  0.1108231E+04  0.7818608E-02  0.9251946E-01
          2   -1    0    0  501    0  0.00000000000E+00  0.00000000000E+00  0.11186498315E+04  0.11186498315E+04  0.25500000000E-02 0. -1.
         -2   -1    0    0    0  501 -0.00000000000E+00 -0.00000000000E+00 -0.18209148011E+04  0.18209148011E+04  0.25500000000E-02 0.  1.
    8880023    1    1    2    0    0  0.71004588519E+03  0.53870361763E+03 -0.14084612906E+04  0.17921886508E+04  0.65864270000E+03 0.  0.
    8880022    1    1    2    0    0 -0.71004588519E+03 -0.53870361763E+03  0.70619632101E+03  0.11473759818E+04  0.15294330000E+03 0.  0.
<mgrwt>
<rscale>  0 0.10532973E+04</rscale>
<asrwt>0</asrwt>
<pdfrwt beam="1">  1        2 0.17209997E+00 0.11082315E+04</pdfrwt>
<pdfrwt beam="2">  1       -2 0.28014074E+00 0.11082315E+04</pdfrwt>
<totfact> 0.87964197E-01</totfact>
</mgrwt>
</event>
<event>
 4    1  0.9654646E-007  0.7412850E+03  0.7818608E-02  0.9856220E-01
         -2   -1    0    0    0  501 -0.00000000000E+00  0.00000000000E+00  0.52595858032E+03  0.52595858032E+03  0.25500000000E-02 0.  1.
          2   -1    0    0  501    0  0.00000000000E+00 -0.00000000000E+00 -0.10217975389E+04  0.10217975389E+04  0.25500000000E-02 0. -1.
    8880023    1    1    2    0    0 -0.25633080578E+03  0.22357946782E+03  0.19162194857E+03  0.76565164263E+03  0.65864270000E+03 0.  1.
    8880022    1    1    2    0    0  0.25633080578E+03 -0.22357946782E+03 -0.68746090714E+03  0.78210447658E+03  0.15294330000E+03 0.  0.
<mgrwt>
<rscale>  0 0.62430802E+03</rscale>
<asrwt>0</asrwt>
<pdfrwt beam="1">  1        2 0.15719962E+00 0.74128501E+03</pdfrwt>
<pdfrwt beam="2">  1       -2 0.80916705E-01 0.74128501E+03</pdfrwt>
<totfact> 0.33424289E+01</totfact>
</mgrwt>
</event>
<event>
 4    1  0.9654646E-007  0.1203694E+04  0.7818608E-02  0.9153540E-01
          2   -1    0    0  501    0  0.00000000000E+00  0.00000000000E+00  0.76180367545E+03  0.76180367546E+03  0.25500000000E-02 0. -1.
         -2   -1    0    0    0  501 -0.00000000000E+00 -0.00000000000E+00 -0.18569612358E+04  0.18569612358E+04  0.25500000000E-02 0.  1.
    8880023    1    1    2    0    0 -0.50444249544E+03  0.87212745348E+03 -0.12229161333E+03  0.12098900658E+04  0.65864270000E+03 0.  1.
    8880022    1    1    2    0    0  0.50444249544E+03 -0.87212745348E+03 -0.97286594697E+03  0.14088748454E+04  0.15294330000E+03 0.  0.
<mgrwt>
<rscale>  0 0.11546111E+04</rscale>
<asrwt>0</asrwt>
<pdfrwt beam="1">  1        2 0.11720057E+00 0.12036938E+04</pdfrwt>
<pdfrwt beam="2">  1       -2 0.28568634E+00 0.12036938E+04</pdfrwt>
<totfact> 0.13993152E+00</totfact>
</mgrwt>
</event>
<event>
 4    1  0.9654646E-007  0.7602872E+03  0.7818608E-02  0.9804365E-01
          2   -1    0    0  501    0  0.00000000000E+00  0.00000000000E+00  0.14950419722E+04  0.14950419722E+04  0.25500000000E-02 0. -1.
         -2   -1    0    0    0  501 -0.00000000000E+00 -0.00000000000E+00 -0.35436908448E+03  0.35436908449E+03  0.25500000000E-02 0.  1.
    8880023    1    1    2    0    0  0.28613939102E+03 -0.24970114526E+03  0.14654819878E+03  0.77428224432E+03  0.65864270000E+03 0.  1.
    8880022    1    1    2    0    0 -0.28613939102E+03  0.24970114526E+03  0.99412468896E+03  0.10751288124E+04  0.15294330000E+03 0.  0.
<mgrwt>
<rscale>  0 0.65128843E+03</rscale>
<asrwt>0</asrwt>
<pdfrwt beam="1">  1        2 0.23000646E+00 0.76028720E+03</pdfrwt>
<pdfrwt beam="2">  1       -2 0.54518321E-01 0.76028720E+03</pdfrwt>
<totfact> 0.41310927E+01</totfact>
</mgrwt>
</event>
<event>
 4    1  0.9654646E-007  0.7294631E+03  0.7818608E-02  0.9891777E-01
          2   -1    0    0  501    0  0.00000000000E+00  0.00000000000E+00  0.15615224392E+04  0.15615224392E+04  0.25500000000E-02 0. -1.
         -2   -1    0    0    0  501 -0.00000000000E+00 -0.00000000000E+00 -0.18652971211E+03  0.18652971213E+03  0.25500000000E-02 0.  1.
    8880023    1    1    2    0    0  0.26779996377E+03 -0.16306248541E+03  0.89320063514E+03  0.11532232115E+04  0.65864270000E+03 0.  1.
    8880022    1    1    2    0    0 -0.26779996377E+03  0.16306248541E+03  0.48179209198E+03  0.59482893982E+03  0.15294330000E+03 0. -1.
<mgrwt>
<rscale>  0 0.60661459E+03</rscale>
<asrwt>0</asrwt>
<pdfrwt beam="1">  1        2 0.24023422E+00 0.72946309E+03</pdfrwt>
<pdfrwt beam="2">  1       -2 0.28696879E-01 0.72946309E+03</pdfrwt>
<totfact> 0.13301146E+02</totfact>
</mgrwt>
</event>
<event>
 4    1  0.9654646E-007  0.7186967E+03  0.7818608E-02  0.9927021E-01
         -2   -1    0    0    0  501 -0.00000000000E+00  0.00000000000E+00  0.19412810564E+03  0.19412810566E+03  0.25500000000E-02 0.  1.
          2   -1    0    0  501    0  0.00000000000E+00 -0.00000000000E+00 -0.27478288482E+04  0.27478288482E+04  0.25500000000E-02 0. -1.
    8880023    1    1    2    0    0  0.35236251393E+02  0.28543500949E+03 -0.53198094544E+03  0.89416367105E+03  0.65864270000E+03 0.  1.
    8880022    1    1    2    0    0 -0.35236251393E+02 -0.28543500949E+03 -0.20217197971E+04  0.20477932828E+04  0.15294330000E+03 0.  0.
<mgrwt>
<rscale>  0 0.58969430E+03</rscale>
<asrwt>0</asrwt>
<pdfrwt beam="1">  1        2 0.42274287E+00 0.71869670E+03</pdfrwt>
<pdfrwt beam="2">  1       -2 0.29865864E-01 0.71869670E+03</pdfrwt>
<totfact> 0.27127032E+01</totfact>
</mgrwt>
</event>
<event>
 4    1  0.9654646E-007  0.9245707E+03  0.7818608E-02  0.9487686E-01
         -2   -1    0    0    0  501 -0.00000000000E+00  0.00000000000E+00  0.72150243412E+03  0.72150243413E+03  0.25500000000E-02 0.  1.
          2   -1    0    0  501    0  0.00000000000E+00 -0.00000000000E+00 -0.96787751538E+03  0.96787751538E+03  0.25500000000E-02 0. -1.
    8880023    1    1    2    0    0  0.24133616017E+03 -0.60231025111E+03  0.11398871179E+03  0.93157093851E+03  0.65864270000E+03 0.  1.
    8880022    1    1    2    0    0 -0.24133616017E+03  0.60231025111E+03 -0.36036379304E+03  0.75780901100E+03  0.15294330000E+03 0.  0.
<mgrwt>
<rscale>  0 0.85197798E+03</rscale>
<asrwt>0</asrwt>
<pdfrwt beam="1">  1        2 0.14890423E+00 0.92457070E+03</pdfrwt>
<pdfrwt beam="2">  1       -2 0.11100037E+00 0.92457070E+03</pdfrwt>
<totfact> 0.16976916E+01</totfact>
</mgrwt>
</event>
<event>
 4    1  0.9654646E-007  0.6703149E+03  0.7818608E-02  0.1015438E+00
         -2   -1    0    0    0  501 -0.00000000000E+00  0.00000000000E+00  0.43697456707E+03  0.43697456708E+03  0.25500000000E-02 0.  1.
          2   -1    0    0  501    0  0.00000000000E+00 -0.00000000000E+00 -0.44124449350E+03  0.44124449351E+03  0.25500000000E-02 0. -1.
    8880023    1    1    2    0    0 -0.15086741880E+01  0.12453763493E+03 -0.60722023561E+02  0.67305963259E+03  0.65864270000E+03 0. -1.
    8880022    1    1    2    0    0  0.15086741880E+01 -0.12453763493E+03  0.56452097136E+02  0.20515942800E+03  0.15294330000E+03 0.  1.
<mgrwt>
<rscale>  0 0.49369397E+03</rscale>
<asrwt>0</asrwt>
<pdfrwt beam="1">  1        2 0.67883768E-01 0.67031493E+03</pdfrwt>
<pdfrwt beam="2">  1       -2 0.67226857E-01 0.67031493E+03</pdfrwt>
<totfact> 0.14638983E+02</totfact>
</mgrwt>
</event>
<event>
 4    1  0.9654646E-007  0.7804631E+03  0.7818608E-02  0.9754750E-01
          2   -1    0    0  501    0  0.00000000000E+00  0.00000000000E+00  0.17107400477E+04  0.17107400477E+04  0.25500000000E-02 0. -1.
         -2   -1    0    0    0  501 -0.00000000000E+00 -0.00000000000E+00 -0.86323579145E+03  0.86323579145E+03  0.25500000000E-02 0.  1.
    8880023    1    1    2    0    0 -0.39854892977E+03 -0.12834004639E+03 -0.64739993747E+03  0.10140262828E+04  0.65864270000E+03 0.  1.
    8880022    1    1    2    0    0  0.39854892977E+03  0.12834004639E+03  0.14949041938E+04  0.15599495564E+04  0.15294330000E+03 0.  0.
<mgrwt>
<rscale>  0 0.67848479E+03</rscale>
<asrwt>0</asrwt>
<pdfrwt beam="1">  1        2 0.26319078E+00 0.78046308E+03</pdfrwt>
<pdfrwt beam="2">  1       -2 0.13280551E+00 0.78046308E+03</pdfrwt>
<totfact> 0.40788766E+00</totfact>
</mgrwt>
</event>
<event>
 4    1  0.9654646E-007  0.7226754E+03  0.7818608E-02  0.9913635E-01
         -2   -1    0    0    0  501 -0.00000000000E+00  0.00000000000E+00  0.40865073375E+03  0.40865073375E+03  0.25500000000E-02 0.  1.
          2   -1    0    0  501    0  0.00000000000E+00 -0.00000000000E+00 -0.78639408481E+03  0.78639408482E+03  0.25500000000E-02 0. -1.
    8880023    1    1    2    0    0  0.18936375601E+03  0.22932703919E+03 -0.46234588799E+02  0.72415286125E+03  0.65864270000E+03 0.  1.
    8880022    1    1    2    0    0 -0.18936375601E+03 -0.22932703919E+03 -0.33150876227E+03  0.47089195732E+03  0.15294330000E+03 0.  0.
<mgrwt>
<rscale>  0 0.59604997E+03</rscale>
<asrwt>0</asrwt>
<pdfrwt beam="1">  1        2 0.12098371E+00 0.72267540E+03</pdfrwt>
<pdfrwt beam="2">  1       -2 0.62869344E-01 0.72267540E+03</pdfrwt>
<totfact> 0.83846422E+01</totfact>
</mgrwt>
</event>
<event>
 4    1  0.9654646E-007  0.6813258E+03  0.7818608E-02  0.1008583E+00
          2   -1    0    0  501    0  0.00000000000E+00  0.00000000000E+00  0.22464392270E+04  0.22464392270E+04  0.25500000000E-02 0. -1.
         -2   -1    0    0    0  501 -0.00000000000E+00 -0.00000000000E+00 -0.45274186619E+03  0.45274186619E+03  0.25500000000E-02 0.  1.
    8880023    1    1    2    0    0  0.14538686149E+03  0.96215143718E+02 -0.18575099998E+03  0.70619284451E+03  0.65864270000E+03 0.  1.
    8880022    1    1    2    0    0 -0.14538686149E+03 -0.96215143718E+02  0.19794483608E+04  0.19929882487E+04  0.15294330000E+03 0.  0.
<mgrwt>
<rscale>  0 0.52041541E+03</rscale>
<asrwt>0</asrwt>
<pdfrwt beam="1">  1        2 0.34560603E+00 0.68132584E+03</pdfrwt>
<pdfrwt beam="2">  1       -2 0.69652595E-01 0.68132584E+03</pdfrwt>
<totfact> 0.96280243E+00</totfact>
</mgrwt>
</event>
<event>
 4    1  0.9654646E-007  0.7452383E+03  0.7818608E-02  0.9844943E-01
          2   -1    0    0  501    0  0.00000000000E+00  0.00000000000E+00  0.28077461499E+03  0.28077461501E+03  0.25500000000E-02 0. -1.
         -2   -1    0    0    0  501 -0.00000000000E+00 -0.00000000000E+00 -0.17194730540E+04  0.17194730540E+04  0.25500000000E-02 0.  1.
    8880023    1    1    2    0    0  0.25317291830E+03 -0.23973622012E+03 -0.14378551600E+04  0.16195084592E+04  0.65864270000E+03 0.  1.
    8880022    1    1    2    0    0 -0.25317291830E+03  0.23973622012E+03 -0.84327898940E+00  0.38073920987E+03  0.15294330000E+03 0.  0.
<mgrwt>
<rscale>  0 0.63005437E+03</rscale>
<asrwt>0</asrwt>
<pdfrwt beam="1">  1        2 0.43196096E-01 0.74523834E+03</pdfrwt>
<pdfrwt beam="2">  1       -2 0.26453431E+00 0.74523834E+03</pdfrwt>
<totfact> 0.63791484E+00</totfact>
</mgrwt>
</event>
<event>
 4    1  0.9654646E-007  0.8413864E+03  0.7818608E-02  0.9627572E-01
          2   -1    0    0  501    0  0.00000000000E+00  0.00000000000E+00  0.14310141620E+04  0.14310141620E+04  0.25500000000E-02 0. -1.
         -2   -1    0    0    0  501 -0.00000000000E+00 -0.00000000000E+00 -0.69947544633E+03  0.69947544634E+03  0.25500000000E-02 0.  1.
    8880023    1    1    2    0    0 -0.23869921471E+03 -0.46598671366E+03  0.11627067170E+04  0.14352066222E+04  0.65864270000E+03 0. -1.
    8880022    1    1    2    0    0  0.23869921471E+03  0.46598671366E+03 -0.43116800133E+03  0.69528298613E+03  0.15294330000E+03 0.  0.
<mgrwt>
<rscale>  0 0.75497887E+03</rscale>
<asrwt>0</asrwt>
<pdfrwt beam="1">  1        2 0.22015603E+00 0.84138644E+03</pdfrwt>
<pdfrwt beam="2">  1       -2 0.10761161E+00 0.84138644E+03</pdfrwt>
<totfact> 0.97378890E+00</totfact>
</mgrwt>
</event>
<event>
 4    1  0.9654646E-007  0.6886241E+03  0.7818608E-02  0.1004814E+00
         -2   -1    0    0    0  501 -0.00000000000E+00  0.00000000000E+00  0.33450325639E+03  0.33450325640E+03  0.25500000000E-02 0.  1.
          2   -1    0    0  501    0  0.00000000000E+00 -0.00000000000E+00 -0.12401033222E+04  0.12401033222E+04  0.25500000000E-02 0. -1.
    8880023    1    1    2    0    0  0.19946082834E+03  0.24662844907E+02 -0.59009893094E+02  0.69114777849E+03  0.65864270000E+03 0.  1.
    8880022    1    1    2    0    0 -0.19946082834E+03 -0.24662844907E+02 -0.84659017267E+03  0.88345880008E+03  0.15294330000E+03 0.  0.
<mgrwt>
<rscale>  0 0.53589050E+03</rscale>
<asrwt>0</asrwt>
<pdfrwt beam="1">  1        2 0.19078512E+00 0.68862405E+03</pdfrwt>
<pdfrwt beam="2">  1       -2 0.51462040E-01 0.68862405E+03</pdfrwt>
<totfact> 0.65441463E+01</totfact>
</mgrwt>
</event>
<event>
 4    1  0.9654646E-007  0.8838914E+03  0.7818608E-02  0.9552402E-01
          2   -1    0    0  501    0  0.00000000000E+00  0.00000000000E+00  0.18251068205E+04  0.18251068205E+04  0.25500000000E-02 0. -1.
         -2   -1    0    0    0  501 -0.00000000000E+00 -0.00000000000E+00 -0.47584004719E+03  0.47584004720E+03  0.25500000000E-02 0.  1.
    8880023    1    1    2    0    0 -0.23347000929E+03  0.54124451585E+03  0.73075961137E+02  0.88690708281E+03  0.65864270000E+03 0.  0.
    8880022    1    1    2    0    0  0.23347000929E+03 -0.54124451585E+03  0.12761908122E+04  0.14140397849E+04  0.15294330000E+03 0.  0.
<mgrwt>
<rscale>  0 0.80528262E+03</rscale>
<asrwt>0</asrwt>
<pdfrwt beam="1">  1        2 0.28078567E+00 0.88389144E+03</pdfrwt>
<pdfrwt beam="2">  1       -2 0.73206161E-01 0.88389144E+03</pdfrwt>
<totfact> 0.14266604E+01</totfact>
</mgrwt>
</event>
<event>
 4    1  0.9654646E-007  0.7136130E+03  0.7818608E-02  0.9944821E-01
         -2   -1    0    0    0  501 -0.00000000000E+00  0.00000000000E+00  0.19271621893E+03  0.19271621895E+03  0.25500000000E-02 0.  1.
          2   -1    0    0  501    0  0.00000000000E+00 -0.00000000000E+00 -0.17193233516E+04  0.17193233516E+04  0.25500000000E-02 0. -1.
    8880023    1    1    2    0    0  0.19105709678E+02  0.27398602831E+03 -0.59597966562E+03  0.92975014921E+03  0.65864270000E+03 0.  1.
    8880022    1    1    2    0    0 -0.19105709678E+02 -0.27398602831E+03 -0.93062746706E+03  0.98228942135E+03  0.15294330000E+03 0. -1.
<mgrwt>
<rscale>  0 0.58137379E+03</rscale>
<asrwt>0</asrwt>
<pdfrwt beam="1">  1        2 0.26451127E+00 0.71361305E+03</pdfrwt>
<pdfrwt beam="2">  1       -2 0.29648650E-01 0.71361305E+03</pdfrwt>
<totfact> 0.10274480E+02</totfact>
</mgrwt>
</event>
<event>
 4    1  0.9654646E-007  0.7928549E+03  0.7818608E-02  0.9726463E-01
          2   -1    0    0  501    0  0.00000000000E+00  0.00000000000E+00  0.12750829271E+04  0.12750829271E+04  0.25500000000E-02 0. -1.
         -2   -1    0    0    0  501 -0.00000000000E+00 -0.00000000000E+00 -0.46552742777E+03  0.46552742778E+03  0.25500000000E-02 0.  1.
    8880023    1    1    2    0    0  0.14576658837E+03 -0.41660634488E+03 -0.14928329056E+02  0.79299546414E+03  0.65864270000E+03 0.  1.
    8880022    1    1    2    0    0 -0.14576658837E+03  0.41660634488E+03  0.82448382843E+03  0.94761489078E+03  0.15294330000E+03 0.  0.
<mgrwt>
<rscale>  0 0.69462793E+03</rscale>
<asrwt>0</asrwt>
<pdfrwt beam="1">  1        2 0.19616660E+00 0.79285494E+03</pdfrwt>
<pdfrwt beam="2">  1       -2 0.71619606E-01 0.79285494E+03</pdfrwt>
<totfact> 0.30685922E+01</totfact>
</mgrwt>
</event>
<event>
 4    1  0.9654646E-007  0.1135136E+04  0.7818608E-02  0.9222909E-01
         -2   -1    0    0    0  501 -0.00000000000E+00  0.00000000000E+00  0.78061907417E+03  0.78061907417E+03  0.25500000000E-02 0.  1.
          2   -1    0    0  501    0  0.00000000000E+00 -0.00000000000E+00 -0.27028258187E+04  0.27028258187E+04  0.25500000000E-02 0. -1.
    8880023    1    1    2    0    0  0.78796914680E+03  0.48355734326E+03  0.21000822234E+03  0.11543988653E+04  0.65864270000E+03 0. -1.
    8880022    1    1    2    0    0 -0.78796914680E+03 -0.48355734326E+03 -0.21322149669E+04  0.23290460276E+04  0.15294330000E+03 0.  0.
<mgrwt>
<rscale>  0 0.10820063E+04</rscale>
<asrwt>0</asrwt>
<pdfrwt beam="1">  1        2 0.41581935E+00 0.11351358E+04</pdfrwt>
<pdfrwt beam="2">  1       -2 0.12009524E+00 0.11351358E+04</pdfrwt>
<totfact> 0.13902571E+00</totfact>
</mgrwt>
</event>
<event>
 4    1  0.9654646E-007  0.8832301E+03  0.7818608E-02  0.9553507E-01
          2   -1    0    0  501    0  0.00000000000E+00  0.00000000000E+00  0.14025902574E+04  0.14025902575E+04  0.25500000000E-02 0. -1.
         -2   -1    0    0    0  501 -0.00000000000E+00 -0.00000000000E+00 -0.74995193755E+03  0.74995193755E+03  0.25500000000E-02 0.  1.
    8880023    1    1    2    0    0  0.18789405076E+03  0.55765676227E+03 -0.37417371422E+03  0.95921916864E+03  0.65864270000E+03 0.  0.
    8880022    1    1    2    0    0 -0.18789405076E+03 -0.55765676227E+03  0.10268120341E+04  0.11933230264E+04  0.15294330000E+03 0.  0.
<mgrwt>
<rscale>  0 0.80451323E+03</rscale>
<asrwt>0</asrwt>
<pdfrwt beam="1">  1        2 0.21578312E+00 0.88323012E+03</pdfrwt>
<pdfrwt beam="2">  1       -2 0.11537722E+00 0.88323012E+03</pdfrwt>
<totfact> 0.84885182E+00</totfact>
</mgrwt>
</event>
<event>
 4    1  0.9654646E-007  0.7768375E+03  0.7818608E-02  0.9763319E-01
         -2   -1    0    0    0  501 -0.00000000000E+00  0.00000000000E+00  0.43772952992E+03  0.43772952993E+03  0.25500000000E-02 0.  1.
          2   -1    0    0  501    0  0.00000000000E+00 -0.00000000000E+00 -0.18761521619E+04  0.18761521619E+04  0.25500000000E-02 0. -1.
    8880023    1    1    2    0    0  0.40944460970E+03 -0.44960053121E+02  0.33718320321E+02  0.77756892053E+03  0.65864270000E+03 0.  0.
    8880022    1    1    2    0    0 -0.40944460970E+03  0.44960053121E+02 -0.14721409523E+04  0.15363127713E+04  0.15294330000E+03 0.  0.
<mgrwt>
<rscale>  0 0.67368767E+03</rscale>
<asrwt>0</asrwt>
<pdfrwt beam="1">  1        2 0.28863879E+00 0.77683750E+03</pdfrwt>
<pdfrwt beam="2">  1       -2 0.67343006E-01 0.77683750E+03</pdfrwt>
<totfact> 0.16276050E+01</totfact>
</mgrwt>
</event>
<event>
 4    1  0.9654646E-007  0.7360336E+03  0.7818608E-02  0.9871655E-01
          2   -1    0    0  501    0  0.00000000000E+00  0.00000000000E+00  0.47075915529E+03  0.47075915530E+03  0.25500000000E-02 0. -1.
         -2   -1    0    0    0  501 -0.00000000000E+00 -0.00000000000E+00 -0.16371636420E+04  0.16371636420E+04  0.25500000000E-02 0.  1.
    8880023    1    1    2    0    0  0.17923562601E+03 -0.27533586555E+03 -0.14642544708E+04  0.16388369687E+04  0.65864270000E+03 0.  1.
    8880022    1    1    2    0    0 -0.17923562601E+03  0.27533586555E+03  0.29784998413E+03  0.46908582855E+03  0.15294330000E+03 0.  0.
<mgrwt>
<rscale>  0 0.61654878E+03</rscale>
<asrwt>0</asrwt>
<pdfrwt beam="1">  1        2 0.72424486E-01 0.73603360E+03</pdfrwt>
<pdfrwt beam="2">  1       -2 0.25187133E+00 0.73603360E+03</pdfrwt>
<totfact> 0.42617892E+00</totfact>
</mgrwt>
</event>
<event>
 4    1  0.9654646E-007  0.6592486E+03  0.7818608E-02  0.1024940E+00
          2   -1    0    0  501    0  0.00000000000E+00  0.00000000000E+00  0.19782330065E+03  0.19782330067E+03  0.25500000000E-02 0. -1.
         -2   -1    0    0    0  501 -0.00000000000E+00 -0.00000000000E+00 -0.10154217754E+04  0.10154217754E+04  0.25500000000E-02 0.  1.
    8880023    1    1    2    0    0 -0.23630928252E+02 -0.15493850386E+02 -0.82678610036E+03  0.10574421697E+04  0.65864270000E+03 0.  1.
    8880022    1    1    2    0    0  0.23630928252E+02  0.15493850386E+02  0.91876256052E+01  0.15580290642E+03  0.15294330000E+03 0.  0.
<mgrwt>
<rscale>  0 0.45945363E+03</rscale>
<asrwt>0</asrwt>
<pdfrwt beam="1">  1        2 0.30434355E-01 0.65924858E+03</pdfrwt>
<pdfrwt beam="2">  1       -2 0.15621873E+00 0.65924858E+03</pdfrwt>
<totfact> 0.47851743E+01</totfact>
</mgrwt>
</event>
<event>
 4    1  0.9654646E-007  0.9563801E+03  0.7818608E-02  0.9440993E-01
         -2   -1    0    0    0  501 -0.00000000000E+00  0.00000000000E+00  0.16634265947E+04  0.16634265947E+04  0.25500000000E-02 0.  1.
          2   -1    0    0  501    0  0.00000000000E+00 -0.00000000000E+00 -0.48507665787E+03  0.48507665788E+03  0.25500000000E-02 0. -1.
    8880023    1    1    2    0    0  0.69334950618E+03  0.10918241056E+02  0.10616037062E+04  0.14288685667E+04  0.65864270000E+03 0.  0.
    8880022    1    1    2    0    0 -0.69334950618E+03 -0.10918241056E+02  0.11674623065E+03  0.71963468586E+03  0.15294330000E+03 0.  0.
<mgrwt>
<rscale>  0 0.88777527E+03</rscale>
<asrwt>0</asrwt>
<pdfrwt beam="1">  1        2 0.74627180E-01 0.95638013E+03</pdfrwt>
<pdfrwt beam="2">  1       -2 0.25591178E+00 0.95638013E+03</pdfrwt>
<totfact> 0.37907548E+00</totfact>
</mgrwt>
</event>
<event>
 4    1  0.9654646E-007  0.7569572E+03  0.7818608E-02  0.9813050E-01
          2   -1    0    0  501    0  0.00000000000E+00  0.00000000000E+00  0.10987867016E+04  0.10987867016E+04  0.25500000000E-02 0. -1.
         -2   -1    0    0    0  501 -0.00000000000E+00 -0.00000000000E+00 -0.11325662770E+04  0.11325662770E+04  0.25500000000E-02 0.  1.
    8880023    1    1    2    0    0 -0.17715946605E+03 -0.32831165018E+03 -0.95920554216E+03  0.12219081367E+04  0.65864270000E+03 0.  0.
    8880022    1    1    2    0    0  0.17715946605E+03  0.32831165018E+03  0.92542596678E+03  0.10094448420E+04  0.15294330000E+03 0.  0.
<mgrwt>
<rscale>  0 0.64666909E+03</rscale>
<asrwt>0</asrwt>
<pdfrwt beam="1">  1        2 0.16904411E+00 0.75695721E+03</pdfrwt>
<pdfrwt beam="2">  1       -2 0.17424097E+00 0.75695721E+03</pdfrwt>
<totfact> 0.44322177E+00</totfact>
</mgrwt>
</event>
<event>
 4    1  0.9654646E-007  0.1550654E+04  0.7818608E-02  0.8874671E-01
         -2   -1    0    0    0  501 -0.00000000000E+00  0.00000000000E+00  0.51305668310E+03  0.51305668311E+03  0.25500000000E-02 0.  1.
          2   -1    0    0  501    0  0.00000000000E+00 -0.00000000000E+00 -0.46456747581E+04  0.46456747581E+04  0.25500000000E-02 0. -1.
    8880023    1    1    2    0    0 -0.42135598427E+03  0.13390958474E+04 -0.28808095558E+04  0.32716345238E+04  0.65864270000E+03 0.  0.
    8880022    1    1    2    0    0  0.42135598427E+03 -0.13390958474E+04 -0.12518085192E+04  0.18870969174E+04  0.15294330000E+03 0.  0.
<mgrwt>
<rscale>  0 0.15147986E+04</rscale>
<asrwt>0</asrwt>
<pdfrwt beam="1">  1        2 0.71471917E+00 0.15506543E+04</pdfrwt>
<pdfrwt beam="2">  1       -2 0.78931801E-01 0.15506543E+04</pdfrwt>
<totfact> 0.12257706E-01</totfact>
</mgrwt>
</event>
<event>
 4    1  0.9654646E-007  0.1004281E+04  0.7818608E-02  0.9375978E-01
          2   -1    0    0  501    0  0.00000000000E+00  0.00000000000E+00  0.30493677560E+04  0.30493677560E+04  0.25500000000E-02 0. -1.
         -2   -1    0    0    0  501 -0.00000000000E+00 -0.00000000000E+00 -0.32805197012E+03  0.32805197013E+03  0.25500000000E-02 0.  1.
    8880023    1    1    2    0    0  0.75813165068E+03 -0.27198919155E+01  0.73110384604E+03  0.12422133623E+04  0.65864270000E+03 0.  0.
    8880022    1    1    2    0    0 -0.75813165068E+03  0.27198919155E+01  0.19902119399E+04  0.21352063638E+04  0.15294330000E+03 0.  0.
<mgrwt>
<rscale>  0 0.94079281E+03</rscale>
<asrwt>0</asrwt>
<pdfrwt beam="1">  1        2 0.46913350E+00 0.10042814E+04</pdfrwt>
<pdfrwt beam="2">  1       -2 0.50469534E-01 0.10042814E+04</pdfrwt>
<totfact> 0.61602077E+00</totfact>
</mgrwt>
</event>
<event>
 4    1  0.9654646E-007  0.8628433E+03  0.7818608E-02  0.9588526E-01
          2   -1    0    0  501    0  0.00000000000E+00  0.00000000000E+00  0.14708547777E+04  0.14708547777E+04  0.25500000000E-02 0. -1.
         -2   -1    0    0    0  501 -0.00000000000E+00 -0.00000000000E+00 -0.41673788825E+03  0.41673788826E+03  0.25500000000E-02 0.  1.
    8880023    1    1    2    0    0 -0.55738554862E+03  0.31081826641E+01  0.25194068479E+03  0.89887297519E+03  0.65864270000E+03 0.  1.
    8880022    1    1    2    0    0  0.55738554862E+03 -0.31081826641E+01  0.80217620469E+03  0.98871969081E+03  0.15294330000E+03 0.  0.
<mgrwt>
<rscale>  0 0.78060305E+03</rscale>
<asrwt>0</asrwt>
<pdfrwt beam="1">  1        2 0.22628535E+00 0.86284327E+03</pdfrwt>
<pdfrwt beam="2">  1       -2 0.64113521E-01 0.86284327E+03</pdfrwt>
<totfact> 0.29964029E+01</totfact>
</mgrwt>
</event>
<event>
 4    1  0.9654646E-007  0.7948404E+03  0.7818608E-02  0.9722065E-01
         -2   -1    0    0    0  501 -0.00000000000E+00  0.00000000000E+00  0.18996279713E+03  0.18996279714E+03  0.25500000000E-02 0.  1.
          2   -1    0    0  501    0  0.00000000000E+00 -0.00000000000E+00 -0.25763491344E+04  0.25763491344E+04  0.25500000000E-02 0. -1.
    8880023    1    1    2    0    0  0.24177293770E+03 -0.37350614453E+03 -0.86909453835E+03  0.11777506172E+04  0.65864270000E+03 0.  0.
    8880022    1    1    2    0    0 -0.24177293770E+03  0.37350614453E+03 -0.15172917989E+04  0.15885613143E+04  0.15294330000E+03 0.  0.
<mgrwt>
<rscale>  0 0.69718097E+03</rscale>
<asrwt>0</asrwt>
<pdfrwt beam="1">  1        2 0.39636138E+00 0.79484036E+03</pdfrwt>
<pdfrwt beam="2">  1       -2 0.29225048E-01 0.79484036E+03</pdfrwt>
<totfact> 0.35104938E+01</totfact>
</mgrwt>
</event>
<event>
 4    1  0.9654646E-007  0.6718556E+03  0.7818608E-02  0.1014366E+00
         -2   -1    0    0    0  501 -0.00000000000E+00  0.00000000000E+00  0.60038166690E+03  0.60038166691E+03  0.25500000000E-02 0.  1.
          2   -1    0    0  501    0  0.00000000000E+00 -0.00000000000E+00 -0.46585120046E+03  0.46585120047E+03  0.25500000000E-02 0. -1.
    8880023    1    1    2    0    0  0.13089421445E+03 -0.21127764540E+02  0.36082783490E+03  0.76261826002E+03  0.65864270000E+03 0.  1.
    8880022    1    1    2    0    0 -0.13089421445E+03  0.21127764540E+02 -0.22629736846E+03  0.30361460736E+03  0.15294330000E+03 0.  0.
<mgrwt>
<rscale>  0 0.49775650E+03</rscale>
<asrwt>0</asrwt>
<pdfrwt beam="1">  1        2 0.71669416E-01 0.67185555E+03</pdfrwt>
<pdfrwt beam="2">  1       -2 0.92366410E-01 0.67185555E+03</pdfrwt>
<totfact> 0.67591538E+01</totfact>
</mgrwt>
</event>
<event>
 4    1  0.9654646E-007  0.6717339E+03  0.7818608E-02  0.1014449E+00
         -2   -1    0    0    0  501 -0.00000000000E+00  0.00000000000E+00  0.17334047511E+03  0.17334047513E+03  0.25500000000E-02 0.  1.
          2   -1    0    0  501    0  0.00000000000E+00 -0.00000000000E+00 -0.15472304869E+04  0.15472304869E+04  0.25500000000E-02 0. -1.
    8880023    1    1    2    0    0  0.60918398060E+02  0.11706906797E+03 -0.53801334639E+03  0.86063045789E+03  0.65864270000E+03 0.  1.
    8880022    1    1    2    0    0 -0.60918398060E+02 -0.11706906797E+03 -0.83587666541E+03  0.85994050415E+03  0.15294330000E+03 0.  0.
<mgrwt>
<rscale>  0 0.49744027E+03</rscale>
<asrwt>0</asrwt>
<pdfrwt beam="1">  1        2 0.23803545E+00 0.67173389E+03</pdfrwt>
<pdfrwt beam="2">  1       -2 0.26667766E-01 0.67173389E+03</pdfrwt>
<totfact> 0.15571969E+02</totfact>
</mgrwt>
</event>
<event>
 4    1  0.9654646E-007  0.6805140E+03  0.7818608E-02  0.1009034E+00
         -2   -1    0    0    0  501 -0.00000000000E+00  0.00000000000E+00  0.11863339912E+04  0.11863339912E+04  0.25500000000E-02 0.  1.
          2   -1    0    0  501    0  0.00000000000E+00 -0.00000000000E+00 -0.48654823333E+03  0.48654823334E+03  0.25500000000E-02 0. -1.
    8880023    1    1    2    0    0 -0.15014172425E+03 -0.82137452812E+02  0.10517406264E+04  0.12527001437E+04  0.65864270000E+03 0.  1.
    8880022    1    1    2    0    0  0.15014172425E+03  0.82137452812E+02 -0.35195486857E+03  0.42018208082E+03  0.15294330000E+03 0.  0.
<mgrwt>
<rscale>  0 0.51860213E+03</rscale>
<asrwt>0</asrwt>
<pdfrwt beam="1">  1        2 0.74853575E-01 0.68051400E+03</pdfrwt>
<pdfrwt beam="2">  1       -2 0.18251292E+00 0.68051400E+03</pdfrwt>
<totfact> 0.11345109E+01</totfact>
</mgrwt>
</event>
<event>
 4    1  0.9654646E-007  0.1063662E+04  0.7818608E-02  0.9302635E-01
          2   -1    0    0  501    0  0.00000000000E+00  0.00000000000E+00  0.14674322714E+04  0.14674322714E+04  0.25500000000E-02 0. -1.
         -2   -1    0    0    0  501 -0.00000000000E+00 -0.00000000000E+00 -0.95489771954E+03  0.95489771955E+03  0.25500000000E-02 0.  1.
    8880023    1    1    2    0    0  0.56183808598E+03 -0.61798413333E+03 -0.43575011567E+03  0.11494584784E+04  0.65864270000E+03 0.  1.
    8880022    1    1    2    0    0 -0.56183808598E+03  0.61798413333E+03  0.94828466754E+03  0.12728715126E+04  0.15294330000E+03 0.  0.
<mgrwt>
<rscale>  0 0.10054060E+04</rscale>
<asrwt>0</asrwt>
<pdfrwt beam="1">  1        2 0.22575881E+00 0.10636619E+04</pdfrwt>
<pdfrwt beam="2">  1       -2 0.14690734E+00 0.10636619E+04</pdfrwt>
<totfact> 0.41329397E+00</totfact>
</mgrwt>
</event>
<event>
 4    1  0.9654646E-007  0.7386402E+03  0.7818608E-02  0.9863926E-01
         -2   -1    0    0    0  501 -0.00000000000E+00  0.00000000000E+00  0.63005358139E+03  0.63005358140E+03  0.25500000000E-02 0.  1.
          2   -1    0    0  501    0  0.00000000000E+00 -0.00000000000E+00 -0.12657210321E+04  0.12657210321E+04  0.25500000000E-02 0. -1.
    8880023    1    1    2    0    0 -0.47461765479E+02 -0.33094800092E+03  0.36919254976E+03  0.82576785089E+03  0.65864270000E+03 0.  1.
    8880022    1    1    2    0    0  0.47461765479E+02  0.33094800092E+03 -0.10048600005E+04  0.10700067626E+04  0.15294330000E+03 0.  0.
<mgrwt>
<rscale>  0 0.62041902E+03</rscale>
<asrwt>0</asrwt>
<pdfrwt beam="1">  1        2 0.19472631E+00 0.73864024E+03</pdfrwt>
<pdfrwt beam="2">  1       -2 0.96931321E-01 0.73864024E+03</pdfrwt>
<totfact> 0.15727003E+01</totfact>
</mgrwt>
</event>
<event>
 4    1  0.9654646E-007  0.6952880E+03  0.7818608E-02  0.1001734E+00
         -2   -1    0    0    0  501 -0.00000000000E+00  0.00000000000E+00  0.18877716038E+03  0.18877716040E+03  0.25500000000E-02 0.  1.
          2   -1    0    0  501    0  0.00000000000E+00 -0.00000000000E+00 -0.20422701477E+04  0.20422701477E+04  0.25500000000E-02 0. -1.
    8880023    1    1    2    0    0  0.87199178956E+02  0.20496711206E+03 -0.51419880763E+03  0.86476923735E+03  0.65864270000E+03 0.  1.
    8880022    1    1    2    0    0 -0.87199178956E+02 -0.20496711206E+03 -0.13392941797E+04  0.13662780707E+04  0.15294330000E+03 0.  0.
<mgrwt>
<rscale>  0 0.54896420E+03</rscale>
<asrwt>0</asrwt>
<pdfrwt beam="1">  1        2 0.31419539E+00 0.69528801E+03</pdfrwt>
<pdfrwt beam="2">  1       -2 0.29042641E-01 0.69528801E+03</pdfrwt>
<totfact> 0.71355147E+01</totfact>
</mgrwt>
</event>
<event>
 4    1  0.9654646E-007  0.8800315E+03  0.7818608E-02  0.9558879E-01
          2   -1    0    0  501    0  0.00000000000E+00  0.00000000000E+00  0.18506637401E+04  0.18506637401E+04  0.25500000000E-02 0. -1.
         -2   -1    0    0    0  501 -0.00000000000E+00 -0.00000000000E+00 -0.48149016162E+03  0.48149016162E+03  0.25500000000E-02 0.  1.
    8880023    1    1    2    0    0 -0.35034685533E+03  0.46680008031E+03  0.49885293565E+02  0.88144425960E+03  0.65864270000E+03 0.  0.
    8880022    1    1    2    0    0  0.35034685533E+03 -0.46680008031E+03  0.13192882849E+04  0.14507096421E+04  0.15294330000E+03 0.  0.
<mgrwt>
<rscale>  0 0.80078667E+03</rscale>
<asrwt>0</asrwt>
<pdfrwt beam="1">  1        2 0.28471750E+00 0.88003150E+03</pdfrwt>
<pdfrwt beam="2">  1       -2 0.74075410E-01 0.88003150E+03</pdfrwt>
<totfact> 0.13463859E+01</totfact>
</mgrwt>
</event>
<event>
 4    1  0.9654646E-007  0.7140246E+03  0.7818608E-02  0.9943349E-01
          2   -1    0    0  501    0  0.00000000000E+00  0.00000000000E+00  0.18212853146E+04  0.18212853146E+04  0.25500000000E-02 0. -1.
         -2   -1    0    0    0  501 -0.00000000000E+00 -0.00000000000E+00 -0.15697659101E+03  0.15697659103E+03  0.25500000000E-02 0.  1.
    8880023    1    1    2    0    0 -0.14106765039E+03 -0.23689832539E+03  0.88191977227E+03  0.11347306242E+04  0.65864270000E+03 0.  1.
    8880022    1    1    2    0    0  0.14106765039E+03  0.23689832539E+03  0.78238895136E+03  0.84353128145E+03  0.15294330000E+03 0. -1.
<mgrwt>
<rscale>  0 0.58205634E+03</rscale>
<asrwt>0</asrwt>
<pdfrwt beam="1">  1        2 0.28019775E+00 0.71402458E+03</pdfrwt>
<pdfrwt beam="2">  1       -2 0.24150244E-01 0.71402458E+03</pdfrwt>
<totfact> 0.13136092E+02</totfact>
</mgrwt>
</event>
<event>
 4    1  0.9654646E-007  0.1680085E+04  0.7818608E-02  0.8791940E-01
          2   -1    0    0  501    0  0.00000000000E+00  0.00000000000E+00  0.35599876891E+04  0.35599876891E+04  0.25500000000E-02 0. -1.
         -2   -1    0    0    0  501 -0.00000000000E+00 -0.00000000000E+00 -0.95799836974E+03  0.95799836974E+03  0.25500000000E-02 0.  1.
    8880023    1    1    2    0    0 -0.12618251536E+04 -0.89256574138E+03  0.24873417881E+03  0.16983978388E+04  0.65864270000E+03 0.  0.
    8880022    1    1    2    0    0  0.12618251536E+04  0.89256574138E+03  0.23532551406E+04  0.28195882200E+04  0.15294330000E+03 0.  0.
<mgrwt>
<rscale>  0 0.16474100E+04</rscale>
<asrwt>0</asrwt>
<pdfrwt beam="1">  1        2 0.54769042E+00 0.16800853E+04</pdfrwt>
<pdfrwt beam="2">  1       -2 0.14738436E+00 0.16800853E+04</pdfrwt>
<totfact> 0.21619624E-01</totfact>
</mgrwt>
</event>
<event>
 4    1  0.9654646E-007  0.7171518E+03  0.7818608E-02  0.9932344E-01
         -2   -1    0    0    0  501 -0.00000000000E+00  0.00000000000E+00  0.12580021649E+03  0.12580021651E+03  0.25500000000E-02 0.  1.
          2   -1    0    0  501    0  0.00000000000E+00 -0.00000000000E+00 -0.21907258249E+04  0.21907258249E+04  0.25500000000E-02 0. -1.
    8880023    1    1    2    0    0  0.14531942847E+03  0.24367764958E+03 -0.12656511737E+04  0.14547094668E+04  0.65864270000E+03 0.  1.
    8880022    1    1    2    0    0 -0.14531942847E+03 -0.24367764958E+03 -0.79927443475E+03  0.86181657460E+03  0.15294330000E+03 0. -1.
<mgrwt>
<rscale>  0 0.58719061E+03</rscale>
<asrwt>0</asrwt>
<pdfrwt beam="1">  1        2 0.33703471E+00 0.71715182E+03</pdfrwt>
<pdfrwt beam="2">  1       -2 0.19353881E-01 0.71715182E+03</pdfrwt>
<totfact> 0.12206717E+02</totfact>
</mgrwt>
</event>
<event>
 4    1  0.9654646E-007  0.1487775E+04  0.7818608E-02  0.8918317E-01
         -2   -1    0    0    0  501 -0.00000000000E+00  0.00000000000E+00  0.11036884401E+04  0.11036884401E+04  0.25500000000E-02 0.  1.
          2   -1    0    0  501    0  0.00000000000E+00 -0.00000000000E+00 -0.34932036953E+04  0.34932036953E+04  0.25500000000E-02 0. -1.
    8880023    1    1    2    0    0 -0.39615623304E+03  0.12738617793E+04  0.36554580456E+03  0.15320239996E+04  0.65864270000E+03 0.  0.
    8880022    1    1    2    0    0  0.39615623304E+03 -0.12738617793E+04 -0.27550610598E+04  0.30648681358E+04  0.15294330000E+03 0.  0.
<mgrwt>
<rscale>  0 0.14501203E+04</rscale>
<asrwt>0</asrwt>
<pdfrwt beam="1">  1        2 0.53741595E+00 0.14877748E+04</pdfrwt>
<pdfrwt beam="2">  1       -2 0.16979822E+00 0.14877748E+04</pdfrwt>
<totfact> 0.16733436E-01</totfact>
</mgrwt>
</event>
<event>
 4    1  0.9654646E-007  0.7672086E+03  0.7818608E-02  0.9786790E-01
         -2   -1    0    0    0  501 -0.00000000000E+00  0.00000000000E+00  0.35241022955E+03  0.35241022955E+03  0.25500000000E-02 0.  1.
          2   -1    0    0  501    0  0.00000000000E+00 -0.00000000000E+00 -0.15003170224E+04  0.15003170224E+04  0.25500000000E-02 0. -1.
    8880023    1    1    2    0    0 -0.27535516821E+03 -0.28103090595E+03 -0.16746358325E+03  0.78527262574E+03  0.65864270000E+03 0.  1.
    8880022    1    1    2    0    0  0.27535516821E+03  0.28103090595E+03 -0.98044320962E+03  0.10674546262E+04  0.15294330000E+03 0.  0.
<mgrwt>
<rscale>  0 0.66076292E+03</rscale>
<asrwt>0</asrwt>
<pdfrwt beam="1">  1        2 0.23081800E+00 0.76720861E+03</pdfrwt>
<pdfrwt beam="2">  1       -2 0.54216959E-01 0.76720861E+03</pdfrwt>
<totfact> 0.41475470E+01</totfact>
</mgrwt>
</event>
<event>
 4    1  0.9654646E-007  0.7636523E+03  0.7818608E-02  0.9795742E-01
          2   -1    0    0  501    0  0.00000000000E+00  0.00000000000E+00  0.97510914022E+03  0.97510914022E+03  0.25500000000E-02 0. -1.
         -2   -1    0    0    0  501 -0.00000000000E+00 -0.00000000000E+00 -0.96470585216E+03  0.96470585217E+03  0.25500000000E-02 0.  1.
    8880023    1    1    2    0    0  0.20801638767E+03 -0.32570513764E+03 -0.75182313782E+03  0.10716356149E+04  0.65864270000E+03 0.  0.
    8880022    1    1    2    0    0 -0.20801638767E+03  0.32570513764E+03  0.76222642588E+03  0.86817937752E+03  0.15294330000E+03 0. -1.
<mgrwt>
<rscale>  0 0.65591544E+03</rscale>
<asrwt>0</asrwt>
<pdfrwt beam="1">  1        2 0.15001679E+00 0.76365232E+03</pdfrwt>
<pdfrwt beam="2">  1       -2 0.14841629E+00 0.76365232E+03</pdfrwt>
<totfact> 0.81871518E+00</totfact>
</mgrwt>
</event>
<event>
 4    1  0.9654646E-007  0.7907436E+03  0.7818608E-02  0.9731180E-01
         -2   -1    0    0    0  501 -0.00000000000E+00  0.00000000000E+00  0.90332829979E+03  0.90332829980E+03  0.25500000000E-02 0.  1.
          2   -1    0    0  501    0  0.00000000000E+00 -0.00000000000E+00 -0.78462252437E+03  0.78462252438E+03  0.25500000000E-02 0. -1.
    8880023    1    1    2    0    0  0.43167593744E+03 -0.71562538644E+02  0.62027439809E+03  0.10049954463E+04  0.65864270000E+03 0.  0.
    8880022    1    1    2    0    0 -0.43167593744E+03  0.71562538644E+02 -0.50156862266E+03  0.68295537787E+03  0.15294330000E+03 0.  0.
<mgrwt>
<rscale>  0 0.69190340E+03</rscale>
<asrwt>0</asrwt>
<pdfrwt beam="1">  1        2 0.12071116E+00 0.79074365E+03</pdfrwt>
<pdfrwt beam="2">  1       -2 0.13897359E+00 0.79074365E+03</pdfrwt>
<totfact> 0.13082902E+01</totfact>
</mgrwt>
</event>
<event>
 4    1  0.9654646E-007  0.8619416E+03  0.7818608E-02  0.9590119E-01
          2   -1    0    0  501    0  0.00000000000E+00  0.00000000000E+00  0.27723581949E+04  0.27723581949E+04  0.25500000000E-02 0. -1.
         -2   -1    0    0    0  501 -0.00000000000E+00 -0.00000000000E+00 -0.34850279769E+03  0.34850279770E+03  0.25500000000E-02 0.  1.
    8880023    1    1    2    0    0  0.46243671822E+03  0.30868321383E+03  0.28838893955E+03  0.90890672326E+03  0.65864270000E+03 0.  0.
    8880022    1    1    2    0    0 -0.46243671822E+03 -0.30868321383E+03  0.21354664577E+04  0.22119542694E+04  0.15294330000E+03 0.  0.
<mgrwt>
<rscale>  0 0.77953632E+03</rscale>
<asrwt>0</asrwt>
<pdfrwt beam="1">  1        2 0.42651666E+00 0.86194156E+03</pdfrwt>
<pdfrwt beam="2">  1       -2 0.53615814E-01 0.86194156E+03</pdfrwt>
<totfact> 0.81742001E+00</totfact>
</mgrwt>
</event>
<event>
 4    1  0.9654646E-007  0.1179965E+04  0.7818608E-02  0.9176848E-01
         -2   -1    0    0    0  501 -0.00000000000E+00  0.00000000000E+00  0.21779780217E+04  0.21779780217E+04  0.25500000000E-02 0.  1.
          2   -1    0    0  501    0  0.00000000000E+00 -0.00000000000E+00 -0.12551874801E+04  0.12551874801E+04  0.25500000000E-02 0. -1.
    8880023    1    1    2    0    0 -0.60709286870E+02 -0.97714976906E+03  0.17714831127E+04  0.21284900548E+04  0.65864270000E+03 0.  0.
    8880022    1    1    2    0    0  0.60709286870E+02  0.97714976906E+03 -0.84869257110E+03  0.13046754470E+04  0.15294330000E+03 0.  0.
<mgrwt>
<rscale>  0 0.11295623E+04</rscale>
<asrwt>0</asrwt>
<pdfrwt beam="1">  1        2 0.19310577E+00 0.11799650E+04</pdfrwt>
<pdfrwt beam="2">  1       -2 0.33507354E+00 0.11799650E+04</pdfrwt>
<totfact> 0.33300919E-01</totfact>
</mgrwt>
</event>
<event>
 4    1  0.9654646E-007  0.1659005E+04  0.7818608E-02  0.8804821E-01
         -2   -1    0    0    0  501 -0.00000000000E+00  0.00000000000E+00  0.20225304662E+04  0.20225304662E+04  0.25500000000E-02 0.  1.
          2   -1    0    0  501    0  0.00000000000E+00 -0.00000000000E+00 -0.15530683171E+04  0.15530683171E+04  0.25500000000E-02 0. -1.
    8880023    1    1    2    0    0  0.12746517442E+04 -0.83291671573E+03 -0.53726175154E+03  0.17438313337E+04  0.65864270000E+03 0.  0.
    8880022    1    1    2    0    0 -0.12746517442E+04  0.83291671573E+03  0.10067239007E+04  0.18317674496E+04  0.15294330000E+03 0.  0.
<mgrwt>
<rscale>  0 0.16258532E+04</rscale>
<asrwt>0</asrwt>
<pdfrwt beam="1">  1        2 0.23893359E+00 0.16590050E+04</pdfrwt>
<pdfrwt beam="2">  1       -2 0.31115853E+00 0.16590050E+04</pdfrwt>
<totfact> 0.29758035E-01</totfact>
</mgrwt>
</event>
<event>
 4    1  0.9654646E-007  0.7948870E+03  0.7818608E-02  0.9721962E-01
         -2   -1    0    0    0  501 -0.00000000000E+00  0.00000000000E+00  0.48396970952E+03  0.48396970953E+03  0.25500000000E-02 0.  1.
          2   -1    0    0  501    0  0.00000000000E+00 -0.00000000000E+00 -0.11890015543E+04  0.11890015543E+04  0.25500000000E-02 0. -1.
    8880023    1    1    2    0    0 -0.39359906950E+03 -0.20764127020E+03  0.35389015951E+02  0.79567437644E+03  0.65864270000E+03 0.  0.
    8880022    1    1    2    0    0  0.39359906950E+03  0.20764127020E+03 -0.74042086074E+03  0.87729688740E+03  0.15294330000E+03 0.  0.
<mgrwt>
<rscale>  0 0.69724083E+03</rscale>
<asrwt>0</asrwt>
<pdfrwt beam="1">  1        2 0.18292332E+00 0.79488699E+03</pdfrwt>
<pdfrwt beam="2">  1       -2 0.74456879E-01 0.79488699E+03</pdfrwt>
<totfact> 0.31640593E+01</totfact>
</mgrwt>
</event>
<event>
 4    1  0.9654646E-007  0.8127025E+03  0.7818608E-02  0.9683975E-01
          2   -1    0    0  501    0  0.00000000000E+00  0.00000000000E+00  0.18135302480E+04  0.18135302480E+04  0.25500000000E-02 0. -1.
         -2   -1    0    0    0  501 -0.00000000000E+00 -0.00000000000E+00 -0.66005241085E+03  0.66005241086E+03  0.25500000000E-02 0.  1.
    8880023    1    1    2    0    0  0.44431817666E+03  0.17104529929E+03 -0.35316367101E+03  0.88612071486E+03  0.65864270000E+03 0.  0.
    8880022    1    1    2    0    0 -0.44431817666E+03 -0.17104529929E+03  0.15066415082E+04  0.15874619440E+04  0.15294330000E+03 0.  0.
<mgrwt>
<rscale>  0 0.71978981E+03</rscale>
<asrwt>0</asrwt>
<pdfrwt beam="1">  1        2 0.27900465E+00 0.81270249E+03</pdfrwt>
<pdfrwt beam="2">  1       -2 0.10154653E+00 0.81270249E+03</pdfrwt>
<totfact> 0.69022893E+00</totfact>
</mgrwt>
</event>
<event>
 4    1  0.9654646E-007  0.7333009E+03  0.7818608E-02  0.9879909E-01
          2   -1    0    0  501    0  0.00000000000E+00  0.00000000000E+00  0.30428584190E+03  0.30428584191E+03  0.25500000000E-02 0. -1.
         -2   -1    0    0    0  501 -0.00000000000E+00 -0.00000000000E+00 -0.11287676685E+04  0.11287676685E+04  0.25500000000E-02 0.  1.
    8880023    1    1    2    0    0 -0.28549440407E+03 -0.14970957015E+03 -0.78475029849E+03  0.10740406172E+04  0.65864270000E+03 0.  0.
    8880022    1    1    2    0    0  0.28549440407E+03  0.14970957015E+03 -0.39731528102E+02  0.35901289321E+03  0.15294330000E+03 0.  0.
<mgrwt>
<rscale>  0 0.61244937E+03</rscale>
<asrwt>0</asrwt>
<pdfrwt beam="1">  1        2 0.46813207E-01 0.73330090E+03</pdfrwt>
<pdfrwt beam="2">  1       -2 0.17365656E+00 0.73330090E+03</pdfrwt>
<totfact> 0.22033169E+01</totfact>
</mgrwt>
</event>
<event>
 4    1  0.9654646E-007  0.6587044E+03  0.7818608E-02  0.1025525E+00
          2   -1    0    0  501    0  0.00000000000E+00  0.00000000000E+00  0.20070937252E+04  0.20070937252E+04  0.25500000000E-02 0. -1.
         -2   -1    0    0    0  501 -0.00000000000E+00 -0.00000000000E+00 -0.12083775409E+03  0.12083775412E+03  0.25500000000E-02 0.  1.
    8880023    1    1    2    0    0 -0.72613785713E+01  0.53443012886E+01  0.82515911906E+03  0.10558309842E+04  0.65864270000E+03 0.  1.
    8880022    1    1    2    0    0  0.72613785713E+01 -0.53443012886E+01  0.10610968521E+04  0.10721004951E+04  0.15294330000E+03 0.  0.
<mgrwt>
<rscale>  0 0.45744498E+03</rscale>
<asrwt>0</asrwt>
<pdfrwt beam="1">  1        2 0.30878363E+00 0.65870441E+03</pdfrwt>
<pdfrwt beam="2">  1       -2 0.18590425E-01 0.65870441E+03</pdfrwt>
<totfact> 0.16598981E+02</totfact>
</mgrwt>
</event>
<event>
 4    1  0.9654646E-007  0.6629963E+03  0.7818608E-02  0.1021277E+00
          2   -1    0    0  501    0  0.00000000000E+00  0.00000000000E+00  0.48887810886E+04  0.48887810886E+04  0.25500000000E-02 0. -1.
         -2   -1    0    0    0  501 -0.00000000000E+00 -0.00000000000E+00 -0.17444998366E+03  0.17444998368E+03  0.25500000000E-02 0.  1.
    8880023    1    1    2    0    0  0.61859205470E+02  0.43900964850E+02  0.46344022728E+03  0.80891341103E+03  0.65864270000E+03 0.  1.
    8880022    1    1    2    0    0 -0.61859205470E+02 -0.43900964850E+02  0.42508908777E+04  0.42543176612E+04  0.15294330000E+03 0.  0.
<mgrwt>
<rscale>  0 0.47228567E+03</rscale>
<asrwt>0</asrwt>
<pdfrwt beam="1">  1        2 0.75212019E+00 0.66299628E+03</pdfrwt>
<pdfrwt beam="2">  1       -2 0.26838458E-01 0.66299628E+03</pdfrwt>
<totfact> 0.70788535E-01</totfact>
</mgrwt>
</event>
<event>
 4    1  0.9654646E-007  0.7107278E+03  0.7818608E-02  0.9955308E-01
          2   -1    0    0  501    0  0.00000000000E+00  0.00000000000E+00  0.83842387804E+03  0.83842387805E+03  0.25500000000E-02 0. -1.
         -2   -1    0    0    0  501 -0.00000000000E+00 -0.00000000000E+00 -0.50083738569E+03  0.50083738570E+03  0.25500000000E-02 0.  1.
    8880023    1    1    2    0    0  0.18662952455E+03  0.19103192615E+03 -0.18353957029E+03  0.73404411064E+03  0.65864270000E+03 0.  1.
    8880022    1    1    2    0    0 -0.18662952455E+03 -0.19103192615E+03  0.52112606263E+03  0.60521715311E+03  0.15294330000E+03 0.  0.
<mgrwt>
<rscale>  0 0.57654082E+03</rscale>
<asrwt>0</asrwt>
<pdfrwt beam="1">  1        2 0.12898829E+00 0.71072778E+03</pdfrwt>
<pdfrwt beam="2">  1       -2 0.77051905E-01 0.71072778E+03</pdfrwt>
<totfact> 0.49467479E+01</totfact>
</mgrwt>
</event>
<event>
 4    1  0.9654646E-007  0.7107521E+03  0.7818608E-02  0.9955219E-01
          2   -1    0    0  501    0  0.00000000000E+00  0.00000000000E+00  0.26039986249E+04  0.26039986249E+04  0.25500000000E-02 0. -1.
         -2   -1    0    0    0  501 -0.00000000000E+00 -0.00000000000E+00 -0.27310097596E+03  0.27310097597E+03  0.25500000000E-02 0.  1.
    8880023    1    1    2    0    0  0.17986369040E+03 -0.19750283211E+03  0.22020887537E+03  0.74408364508E+03  0.65864270000E+03 0.  1.
    8880022    1    1    2    0    0 -0.17986369040E+03  0.19750283211E+03  0.21106887736E+04  0.21330159558E+04  0.15294330000E+03 0.  0.
<mgrwt>
<rscale>  0 0.57658188E+03</rscale>
<asrwt>0</asrwt>
<pdfrwt beam="1">  1        2 0.40061517E+00 0.71075208E+03</pdfrwt>
<pdfrwt beam="2">  1       -2 0.42015535E-01 0.71075208E+03</pdfrwt>
<totfact> 0.17158365E+01</totfact>
</mgrwt>
</event>
<event>
 4    1  0.9654646E-007  0.6993768E+03  0.7818608E-02  0.9999796E-01
          2   -1    0    0  501    0  0.00000000000E+00  0.00000000000E+00  0.22112908501E+04  0.22112908501E+04  0.25500000000E-02 0. -1.
         -2   -1    0    0    0  501 -0.00000000000E+00 -0.00000000000E+00 -0.10914536046E+03  0.10914536049E+03  0.25500000000E-02 0.  1.
    8880023    1    1    2    0    0  0.15314129706E+03 -0.17850885729E+03  0.14212647568E+04  0.15840206388E+04  0.65864270000E+03 0.  0.
    8880022    1    1    2    0    0 -0.15314129706E+03  0.17850885729E+03  0.68088073283E+03  0.73641557178E+03  0.15294330000E+03 0.  1.
<mgrwt>
<rscale>  0 0.55659164E+03</rscale>
<asrwt>0</asrwt>
<pdfrwt beam="1">  1        2 0.34019857E+00 0.69937678E+03</pdfrwt>
<pdfrwt beam="2">  1       -2 0.16791595E-01 0.69937678E+03</pdfrwt>
<totfact> 0.15225376E+02</totfact>
</mgrwt>
</event>
<event>
 4    1  0.9654646E-007  0.8425323E+03  0.7818608E-02  0.9625424E-01
         -2   -1    0    0    0  501 -0.00000000000E+00  0.00000000000E+00  0.38150606246E+03  0.38150606247E+03  0.25500000000E-02 0.  1.
          2   -1    0    0  501    0  0.00000000000E+00 -0.00000000000E+00 -0.42291671854E+04  0.42291671854E+04  0.25500000000E-02 0. -1.
    8880023    1    1    2    0    0 -0.51788083265E+03 -0.88599962539E+02 -0.12945961756E+03  0.85242038281E+03  0.65864270000E+03 0.  1.
    8880022    1    1    2    0    0  0.51788083265E+03  0.88599962539E+02 -0.37182015054E+04  0.37582528651E+04  0.15294330000E+03 0.  0.
<mgrwt>
<rscale>  0 0.75636086E+03</rscale>
<asrwt>0</asrwt>
<pdfrwt beam="1">  1        2 0.65064107E+00 0.84253232E+03</pdfrwt>
<pdfrwt beam="2">  1       -2 0.58693243E-01 0.84253232E+03</pdfrwt>
<totfact> 0.65454736E-01</totfact>
</mgrwt>
</event>
<event>
 4    1  0.9654646E-007  0.6802205E+03  0.7818608E-02  0.1009199E+00
         -2   -1    0    0    0  501 -0.00000000000E+00  0.00000000000E+00  0.71052299959E+03  0.71052299960E+03  0.25500000000E-02 0.  1.
          2   -1    0    0  501    0  0.00000000000E+00 -0.00000000000E+00 -0.60734329635E+03  0.60734329635E+03  0.25500000000E-02 0. -1.
    8880023    1    1    2    0    0 -0.15642086799E+03 -0.66499746464E+02  0.51069049191E+03  0.85059078823E+03  0.65864270000E+03 0.  1.
    8880022    1    1    2    0    0  0.15642086799E+03  0.66499746464E+02 -0.40751078867E+03  0.46727550772E+03  0.15294330000E+03 0.  0.
<mgrwt>
<rscale>  0 0.51794141E+03</rscale>
<asrwt>0</asrwt>
<pdfrwt beam="1">  1        2 0.93437430E-01 0.68022049E+03</pdfrwt>
<pdfrwt beam="2">  1       -2 0.10931123E+00 0.68022049E+03</pdfrwt>
<totfact> 0.33208445E+01</totfact>
</mgrwt>
</event>
<event>
 4    1  0.9654646E-007  0.1463477E+04  0.7818608E-02  0.8935866E-01
          2   -1    0    0  501    0  0.00000000000E+00  0.00000000000E+00  0.27406090783E+04  0.27406090783E+04  0.25500000000E-02 0. -1.
         -2   -1    0    0    0  501 -0.00000000000E+00 -0.00000000000E+00 -0.12476151401E+04  0.12476151401E+04  0.25500000000E-02 0.  1.
    8880023    1    1    2    0    0 -0.54740955940E+03 -0.11867174790E+04  0.20833909049E+04  0.25460328885E+04  0.65864270000E+03 0.  0.
    8880022    1    1    2    0    0  0.54740955940E+03  0.11867174790E+04 -0.59039696663E+03  0.14421913299E+04  0.15294330000E+03 0.  0.
<mgrwt>
<rscale>  0 0.14250743E+04</rscale>
<asrwt>0</asrwt>
<pdfrwt beam="1">  1        2 0.42163216E+00 0.14634773E+04</pdfrwt>
<pdfrwt beam="2">  1       -2 0.19194079E+00 0.14634773E+04</pdfrwt>
<totfact> 0.35712753E-01</totfact>
</mgrwt>
</event>
<event>
 4    1  0.9654646E-007  0.1117349E+04  0.7818608E-02  0.9241982E-01
          2   -1    0    0  501    0  0.00000000000E+00  0.00000000000E+00  0.15456331717E+04  0.15456331717E+04  0.25500000000E-02 0. -1.
         -2   -1    0    0    0  501 -0.00000000000E+00 -0.00000000000E+00 -0.67241283659E+03  0.67241283660E+03  0.25500000000E-02 0.  1.
    8880023    1    1    2    0    0 -0.73392385797E+03  0.52537070909E+03  0.39423916502E+03  0.11848600494E+04  0.65864270000E+03 0.  0.
    8880022    1    1    2    0    0  0.73392385797E+03 -0.52537070909E+03  0.47898117008E+03  0.10331859589E+04  0.15294330000E+03 0.  1.
<mgrwt>
<rscale>  0 0.10630419E+04</rscale>
<asrwt>0</asrwt>
<pdfrwt beam="1">  1        2 0.23778972E+00 0.11173490E+04</pdfrwt>
<pdfrwt beam="2">  1       -2 0.10344813E+00 0.11173490E+04</pdfrwt>
<totfact> 0.89707476E+00</totfact>
</mgrwt>
</event>
<event>
 4    1  0.9654646E-007  0.1370622E+04  0.7818608E-02  0.9006853E-01
          2   -1    0    0  501    0  0.00000000000E+00  0.00000000000E+00  0.32773523639E+04  0.32773523640E+04  0.25500000000E-02 0. -1.
         -2   -1    0    0    0  501 -0.00000000000E+00 -0.00000000000E+00 -0.53597937530E+03  0.53597937530E+03  0.25500000000E-02 0.  1.
    8880023    1    1    2    0    0  0.56010165407E+03 -0.10635227480E+04  0.10211147831E+04  0.17091752704E+04  0.65864270000E+03 0.  0.
    8880022    1    1    2    0    0 -0.56010165407E+03  0.10635227480E+04  0.17202582056E+04  0.21041564689E+04  0.15294330000E+03 0.  0.
<mgrwt>
<rscale>  0 0.13290335E+04</rscale>
<asrwt>0</asrwt>
<pdfrwt beam="1">  1        2 0.50420806E+00 0.13706220E+04</pdfrwt>
<pdfrwt beam="2">  1       -2 0.82458365E-01 0.13706220E+04</pdfrwt>
<totfact> 0.14547507E+00</totfact>
</mgrwt>
</event>
<event>
 4    1  0.9654646E-007  0.6979039E+03  0.7818608E-02  0.1000601E+00
          2   -1    0    0  501    0  0.00000000000E+00  0.00000000000E+00  0.17454114558E+04  0.17454114558E+04  0.25500000000E-02 0. -1.
         -2   -1    0    0    0  501 -0.00000000000E+00 -0.00000000000E+00 -0.18869363129E+03  0.18869363131E+03  0.25500000000E-02 0.  1.
    8880023    1    1    2    0    0  0.22566655301E+03 -0.48314027164E+02  0.14958296887E+04  0.16506290626E+04  0.65864270000E+03 0. -1.
    8880022    1    1    2    0    0 -0.22566655301E+03  0.48314027164E+02  0.60888135765E+02  0.28347602449E+03  0.15294330000E+03 0.  0.
<mgrwt>
<rscale>  0 0.55387486E+03</rscale>
<asrwt>0</asrwt>
<pdfrwt beam="1">  1        2 0.26852484E+00 0.69790389E+03</pdfrwt>
<pdfrwt beam="2">  1       -2 0.29029790E-01 0.69790389E+03</pdfrwt>
<totfact> 0.10355368E+02</totfact>
</mgrwt>
</event>
<event>
 4    1  0.9654646E-007  0.6649585E+03  0.7818608E-02  0.1019568E+00
         -2   -1    0    0    0  501 -0.00000000000E+00  0.00000000000E+00  0.91817177607E+02  0.91817177642E+02  0.25500000000E-02 0.  1.
          2   -1    0    0  501    0  0.00000000000E+00 -0.00000000000E+00 -0.20060327780E+04  0.20060327780E+04  0.25500000000E-02 0. -1.
    8880023    1    1    2    0    0  0.48766655907E+02 -0.77339283787E+02 -0.13284310370E+04  0.14855634547E+04  0.65864270000E+03 0.  1.
    8880022    1    1    2    0    0 -0.48766655907E+02  0.77339283787E+02 -0.58578456338E+03  0.61228650096E+03  0.15294330000E+03 0.  0.
<mgrwt>
<rscale>  0 0.47842726E+03</rscale>
<asrwt>0</asrwt>
<pdfrwt beam="1">  1        2 0.30862039E+00 0.66495846E+03</pdfrwt>
<pdfrwt beam="2">  1       -2 0.14125721E-01 0.66495846E+03</pdfrwt>
<totfact> 0.26514122E+02</totfact>
</mgrwt>
</event>
<event>
 4    1  0.9654646E-007  0.9998538E+03  0.7818608E-02  0.9381749E-01
          2   -1    0    0  501    0  0.00000000000E+00  0.00000000000E+00  0.52774925509E+04  0.52774925509E+04  0.25500000000E-02 0. -1.
         -2   -1    0    0    0  501 -0.00000000000E+00 -0.00000000000E+00 -0.17540216052E+03  0.17540216054E+03  0.25500000000E-02 0.  1.
    8880023    1    1    2    0    0 -0.44767810728E+03 -0.60455092613E+03  0.39037538574E+04  0.40297644963E+04  0.65864270000E+03 0. -1.
    8880022    1    1    2    0    0  0.44767810728E+03  0.60455092613E+03  0.11983365330E+04  0.14231302152E+04  0.15294330000E+03 0.  0.
<mgrwt>
<rscale>  0 0.93593017E+03</rscale>
<asrwt>0</asrwt>
<pdfrwt beam="1">  1        2 0.81192185E+00 0.99985385E+03</pdfrwt>
<pdfrwt beam="2">  1       -2 0.26984950E-01 0.99985385E+03</pdfrwt>
<totfact> 0.19836612E-01</totfact>
</mgrwt>
</event>
<event>
 4    1  0.9654646E-007  0.9552526E+03  0.7818608E-02  0.9442597E-01
         -2   -1    0    0    0  501 -0.00000000000E+00  0.00000000000E+00  0.13766376567E+04  0.13766376567E+04  0.25500000000E-02 0.  1.
          2   -1    0    0  501    0  0.00000000000E+00 -0.00000000000E+00 -0.85989250975E+03  0.85989250976E+03  0.25500000000E-02 0. -1.
    8880023    1    1    2    0    0  0.64715016162E+03  0.24473243286E+03  0.99681675088E+03  0.13806343240E+04  0.65864270000E+03 0.  0.
    8880022    1    1    2    0    0 -0.64715016162E+03 -0.24473243286E+03 -0.48007160390E+03  0.85589584254E+03  0.15294330000E+03 0.  0.
<mgrwt>
<rscale>  0 0.88651533E+03</rscale>
<asrwt>0</asrwt>
<pdfrwt beam="1">  1        2 0.13229116E+00 0.95525259E+03</pdfrwt>
<pdfrwt beam="2">  1       -2 0.21179041E+00 0.95525259E+03</pdfrwt>
<totfact> 0.34773660E+00</totfact>
</mgrwt>
</event>
<event>
 4    1  0.9654646E-007  0.8582703E+03  0.7818608E-02  0.9596648E-01
         -2   -1    0    0    0  501 -0.00000000000E+00  0.00000000000E+00  0.79018317136E+03  0.79018317136E+03  0.25500000000E-02 0.  1.
          2   -1    0    0  501    0  0.00000000000E+00 -0.00000000000E+00 -0.11066218639E+04  0.11066218639E+04  0.25500000000E-02 0. -1.
    8880023    1    1    2    0    0 -0.46211509266E+03 -0.29877646702E+03  0.42754922360E+03  0.95886718631E+03  0.65864270000E+03 0.  1.
    8880022    1    1    2    0    0  0.46211509266E+03  0.29877646702E+03 -0.74398791615E+03  0.93793784896E+03  0.15294330000E+03 0.  0.
<mgrwt>
<rscale>  0 0.77518459E+03</rscale>
<asrwt>0</asrwt>
<pdfrwt beam="1">  1        2 0.17024952E+00 0.85827032E+03</pdfrwt>
<pdfrwt beam="2">  1       -2 0.12156664E+00 0.85827032E+03</pdfrwt>
<totfact> 0.11163779E+01</totfact>
</mgrwt>
</event>
<event>
 4    1  0.9654646E-007  0.7682574E+03  0.7818608E-02  0.9784181E-01
         -2   -1    0    0    0  501 -0.00000000000E+00  0.00000000000E+00  0.48501155166E+03  0.48501155166E+03  0.25500000000E-02 0.  1.
          2   -1    0    0  501    0  0.00000000000E+00 -0.00000000000E+00 -0.18458167150E+04  0.18458167150E+04  0.25500000000E-02 0. -1.
    8880023    1    1    2    0    0 -0.34380097076E+03 -0.19547420789E+03  0.13151703209E+03  0.77943326169E+03  0.65864270000E+03 0.  0.
    8880022    1    1    2    0    0  0.34380097076E+03  0.19547420789E+03 -0.14923221955E+04  0.15513950050E+04  0.15294330000E+03 0.  0.
<mgrwt>
<rscale>  0 0.66218459E+03</rscale>
<asrwt>0</asrwt>
<pdfrwt beam="1">  1        2 0.28397180E+00 0.76825743E+03</pdfrwt>
<pdfrwt beam="2">  1       -2 0.74617162E-01 0.76825743E+03</pdfrwt>
<totfact> 0.13521936E+01</totfact>
</mgrwt>
</event>
<event>
 4    1  0.9654646E-007  0.7705132E+03  0.7818608E-02  0.9778613E-01
          2   -1    0    0  501    0  0.00000000000E+00  0.00000000000E+00  0.21383331571E+04  0.21383331571E+04  0.25500000000E-02 0. -1.
         -2   -1    0    0    0  501 -0.00000000000E+00 -0.00000000000E+00 -0.25168366362E+03  0.25168366363E+03  0.25500000000E-02 0.  1.
    8880023    1    1    2    0    0 -0.37501475708E+03 -0.13872410279E+03  0.45299533574E+03  0.89380950162E+03  0.65864270000E+03 0.  1.
    8880022    1    1    2    0    0  0.37501475708E+03  0.13872410279E+03  0.14336541577E+04  0.14962073191E+04  0.15294330000E+03 0.  0.
<mgrwt>
<rscale>  0 0.66523045E+03</rscale>
<asrwt>0</asrwt>
<pdfrwt beam="1">  1        2 0.32897432E+00 0.77051324E+03</pdfrwt>
<pdfrwt beam="2">  1       -2 0.38720565E-01 0.77051324E+03</pdfrwt>
<totfact> 0.36361033E+01</totfact>
</mgrwt>
</event>
<event>
 4    1  0.9654646E-007  0.7819598E+03  0.7818608E-02  0.9751253E-01
         -2   -1    0    0    0  501 -0.00000000000E+00  0.00000000000E+00  0.17416842898E+04  0.17416842898E+04  0.25500000000E-02 0.  1.
          2   -1    0    0  501    0  0.00000000000E+00 -0.00000000000E+00 -0.42749920841E+03  0.42749920842E+03  0.25500000000E-02 0. -1.
    8880023    1    1    2    0    0 -0.24247594546E+03  0.34475542802E+03  0.14232934483E+01  0.78196107403E+03  0.65864270000E+03 0. -1.
    8880022    1    1    2    0    0  0.24247594546E+03 -0.34475542802E+03  0.13127617879E+04  0.13872224242E+04  0.15294330000E+03 0.  0.
<mgrwt>
<rscale>  0 0.68045484E+03</rscale>
<asrwt>0</asrwt>
<pdfrwt beam="1">  1        2 0.65769108E-01 0.78195978E+03</pdfrwt>
<pdfrwt beam="2">  1       -2 0.26795143E+00 0.78195978E+03</pdfrwt>
<totfact> 0.37834595E+00</totfact>
</mgrwt>
</event>
<event>
 4    1  0.9654646E-007  0.8117663E+03  0.7818608E-02  0.9685910E-01
         -2   -1    0    0    0  501 -0.00000000000E+00  0.00000000000E+00  0.73913239525E+03  0.73913239525E+03  0.25500000000E-02 0.  1.
          2   -1    0    0  501    0  0.00000000000E+00 -0.00000000000E+00 -0.14221900036E+04  0.14221900036E+04  0.25500000000E-02 0. -1.
    8880023    1    1    2    0    0 -0.97381738471E+02  0.46440396978E+03  0.44662776807E+03  0.92652081445E+03  0.65864270000E+03 0.  0.
    8880022    1    1    2    0    0  0.97381738471E+02 -0.46440396978E+03 -0.11296853764E+04  0.12348015844E+04  0.15294330000E+03 0.  0.
<mgrwt>
<rscale>  0 0.71861962E+03</rscale>
<asrwt>0</asrwt>
<pdfrwt beam="1">  1        2 0.21879846E+00 0.81176626E+03</pdfrwt>
<pdfrwt beam="2">  1       -2 0.11371268E+00 0.81176626E+03</pdfrwt>
<totfact> 0.86473892E+00</totfact>
</mgrwt>
</event>
<event>
 4    1  0.9654646E-007  0.7088125E+03  0.7818608E-02  0.9962437E-01
         -2   -1    0    0    0  501 -0.00000000000E+00  0.00000000000E+00  0.55580151829E+03  0.55580151830E+03  0.25500000000E-02 0.  1.
          2   -1    0    0  501    0  0.00000000000E+00 -0.00000000000E+00 -0.12235025854E+04  0.12235025854E+04  0.25500000000E-02 0. -1.
    8880023    1    1    2    0    0  0.10800523578E+03  0.23862070856E+03  0.29664507276E+03  0.76838367953E+03  0.65864270000E+03 0.  1.
    8880022    1    1    2    0    0 -0.10800523578E+03 -0.23862070856E+03 -0.96434613986E+03  0.10109204242E+04  0.15294330000E+03 0.  0.
<mgrwt>
<rscale>  0 0.57328426E+03</rscale>
<asrwt>0</asrwt>
<pdfrwt beam="1">  1        2 0.18823117E+00 0.70881251E+03</pdfrwt>
<pdfrwt beam="2">  1       -2 0.85507926E-01 0.70881251E+03</pdfrwt>
<totfact> 0.22324581E+01</totfact>
</mgrwt>
</event>
<event>
 4    1  0.9654646E-007  0.6706652E+03  0.7818608E-02  0.1015190E+00
         -2   -1    0    0    0  501 -0.00000000000E+00  0.00000000000E+00  0.13168372906E+04  0.13168372906E+04  0.25500000000E-02 0.  1.
          2   -1    0    0  501    0  0.00000000000E+00 -0.00000000000E+00 -0.45515262980E+03  0.45515262980E+03  0.25500000000E-02 0. -1.
    8880023    1    1    2    0    0  0.11332875448E+03  0.56019589922E+02  0.12029254219E+04  0.13772513852E+04  0.65864270000E+03 0.  1.
    8880022    1    1    2    0    0 -0.11332875448E+03 -0.56019589922E+02 -0.34124076117E+03  0.39473853516E+03  0.15294330000E+03 0.  0.
<mgrwt>
<rscale>  0 0.49462890E+03</rscale>
<asrwt>0</asrwt>
<pdfrwt beam="1">  1        2 0.70023483E-01 0.67066520E+03</pdfrwt>
<pdfrwt beam="2">  1       -2 0.20259035E+00 0.67066520E+03</pdfrwt>
<totfact> 0.90321163E+00</totfact>
</mgrwt>
</event>
<event>
 4    1  0.9654646E-007  0.7996725E+03  0.7818608E-02  0.9711505E-01
          2   -1    0    0  501    0  0.00000000000E+00  0.00000000000E+00  0.69323773839E+03  0.69323773840E+03  0.25500000000E-02 0. -1.
         -2   -1    0    0    0  501 -0.00000000000E+00 -0.00000000000E+00 -0.82258458360E+03  0.82258458361E+03  0.25500000000E-02 0.  1.
    8880023    1    1    2    0    0  0.20025717218E+02 -0.45306174532E+03 -0.47073914849E+03  0.92793939813E+03  0.65864270000E+03 0.  0.
    8880022    1    1    2    0    0 -0.20025717218E+02  0.45306174532E+03  0.34139230328E+03  0.58788292387E+03  0.15294330000E+03 0. -1.
<mgrwt>
<rscale>  0 0.70335930E+03</rscale>
<asrwt>0</asrwt>
<pdfrwt beam="1">  1        2 0.10665196E+00 0.79967255E+03</pdfrwt>
<pdfrwt beam="2">  1       -2 0.12655148E+00 0.79967255E+03</pdfrwt>
<totfact> 0.19461636E+01</totfact>
</mgrwt>
</event>
<event>
 4    1  0.9654646E-007  0.7753569E+03  0.7818608E-02  0.9766859E-01
          2   -1    0    0  501    0  0.00000000000E+00  0.00000000000E+00  0.14834565678E+04  0.14834565678E+04  0.25500000000E-02 0. -1.
         -2   -1    0    0    0  501 -0.00000000000E+00 -0.00000000000E+00 -0.76458705594E+03  0.76458705595E+03  0.25500000000E-02 0.  1.
    8880023    1    1    2    0    0  0.15246582383E+03 -0.37963438006E+03 -0.52057007757E+03  0.93390122705E+03  0.65864270000E+03 0.  1.
    8880022    1    1    2    0    0 -0.15246582383E+03  0.37963438006E+03  0.12394395894E+04  0.13141423967E+04  0.15294330000E+03 0.  0.
<mgrwt>
<rscale>  0 0.67171814E+03</rscale>
<asrwt>0</asrwt>
<pdfrwt beam="1">  1        2 0.22822409E+00 0.77535688E+03</pdfrwt>
<pdfrwt beam="2">  1       -2 0.11762878E+00 0.77535688E+03</pdfrwt>
<totfact> 0.73887061E+00</totfact>
</mgrwt>
</event>
<event>
 4    1  0.9654646E-007  0.7065198E+03  0.7818608E-02  0.9971159E-01
          2   -1    0    0  501    0  0.00000000000E+00  0.00000000000E+00  0.13752556558E+04  0.13752556558E+04  0.25500000000E-02 0. -1.
         -2   -1    0    0    0  501 -0.00000000000E+00 -0.00000000000E+00 -0.65286520323E+03  0.65286520324E+03  0.25500000000E-02 0.  1.
    8880023    1    1    2    0    0 -0.26026290592E+02 -0.25432776290E+03 -0.43721467980E+03  0.83085911037E+03  0.65864270000E+03 0.  1.
    8880022    1    1    2    0    0  0.26026290592E+02  0.25432776290E+03  0.11596051323E+04  0.11972617486E+04  0.15294330000E+03 0.  0.
<mgrwt>
<rscale>  0 0.56933159E+03</rscale>
<asrwt>0</asrwt>
<pdfrwt beam="1">  1        2 0.21157779E+00 0.70651977E+03</pdfrwt>
<pdfrwt beam="2">  1       -2 0.10044080E+00 0.70651977E+03</pdfrwt>
<totfact> 0.12565485E+01</totfact>
</mgrwt>
</event>
<event>
 4    1  0.9654646E-007  0.7524145E+03  0.7818608E-02  0.9825157E-01
         -2   -1    0    0    0  501 -0.00000000000E+00  0.00000000000E+00  0.84088451443E+03  0.84088451443E+03  0.25500000000E-02 0.  1.
          2   -1    0    0  501    0  0.00000000000E+00 -0.00000000000E+00 -0.58090297737E+03  0.58090297738E+03  0.25500000000E-02 0. -1.
    8880023    1    1    2    0    0  0.13327077017E+02 -0.36351028858E+03  0.55006063042E+03  0.93203768394E+03  0.65864270000E+03 0.  1.
    8880022    1    1    2    0    0 -0.13327077017E+02  0.36351028858E+03 -0.29007909337E+03  0.48974980787E+03  0.15294330000E+03 0.  0.
<mgrwt>
<rscale>  0 0.64029789E+03</rscale>
<asrwt>0</asrwt>
<pdfrwt beam="1">  1        2 0.89369688E-01 0.75241448E+03</pdfrwt>
<pdfrwt beam="2">  1       -2 0.12936685E+00 0.75241448E+03</pdfrwt>
<totfact> 0.22969174E+01</totfact>
</mgrwt>
</event>
<event>
 4    1  0.9654646E-007  0.6778965E+03  0.7818608E-02  0.1010539E+00
         -2   -1    0    0    0  501 -0.00000000000E+00  0.00000000000E+00  0.13407947650E+03  0.13407947652E+03  0.25500000000E-02 0.  1.
          2   -1    0    0  501    0  0.00000000000E+00 -0.00000000000E+00 -0.26793418572E+04  0.26793418572E+04  0.25500000000E-02 0. -1.
    8880023    1    1    2    0    0  0.75539873279E+02  0.14151738535E+03 -0.77628335983E+03  0.10306112283E+04  0.65864270000E+03 0.  1.
    8880022    1    1    2    0    0 -0.75539873279E+02 -0.14151738535E+03 -0.17689790209E+04  0.17828101054E+04  0.15294330000E+03 0.  0.
<mgrwt>
<rscale>  0 0.51260810E+03</rscale>
<asrwt>0</asrwt>
<pdfrwt beam="1">  1        2 0.41220640E+00 0.67789649E+03</pdfrwt>
<pdfrwt beam="2">  1       -2 0.20627614E-01 0.67789649E+03</pdfrwt>
<totfact> 0.58289450E+01</totfact>
</mgrwt>
</event>
<event>
 4    1  0.9654646E-007  0.9544160E+03  0.7818608E-02  0.9443789E-01
         -2   -1    0    0    0  501 -0.00000000000E+00  0.00000000000E+00  0.71632339835E+03  0.71632339836E+03  0.25500000000E-02 0.  1.
          2   -1    0    0  501    0  0.00000000000E+00 -0.00000000000E+00 -0.16702342008E+04  0.16702342008E+04  0.25500000000E-02 0. -1.
    8880023    1    1    2    0    0 -0.36662566633E+03 -0.58539335263E+03  0.25318308455E+03  0.98742677556E+03  0.65864270000E+03 0.  0.
    8880022    1    1    2    0    0  0.36662566633E+03  0.58539335263E+03 -0.12070938870E+04  0.13991308236E+04  0.15294330000E+03 0.  0.
<mgrwt>
<rscale>  0 0.88558015E+03</rscale>
<asrwt>0</asrwt>
<pdfrwt beam="1">  1        2 0.25695911E+00 0.95441603E+03</pdfrwt>
<pdfrwt beam="2">  1       -2 0.11020360E+00 0.95441603E+03</pdfrwt>
<totfact> 0.66722279E+00</totfact>
</mgrwt>
</event>
<event>
 4    1  0.9654646E-007  0.6855188E+03  0.7818608E-02  0.1006360E+00
         -2   -1    0    0    0  501 -0.00000000000E+00  0.00000000000E+00  0.13591087326E+04  0.13591087326E+04  0.25500000000E-02 0.  1.
          2   -1    0    0  501    0  0.00000000000E+00 -0.00000000000E+00 -0.66634131084E+03  0.66634131085E+03  0.25500000000E-02 0. -1.
    8880023    1    1    2    0    0  0.13683300596E+03 -0.13191876208E+03  0.12452659896E+04  0.14214863427E+04  0.65864270000E+03 0.  1.
    8880022    1    1    2    0    0 -0.13683300596E+03  0.13191876208E+03 -0.55249856787E+03  0.60396370075E+03  0.15294330000E+03 0.  0.
<mgrwt>
<rscale>  0 0.52947457E+03</rscale>
<asrwt>0</asrwt>
<pdfrwt beam="1">  1        2 0.10251405E+00 0.68551881E+03</pdfrwt>
<pdfrwt beam="2">  1       -2 0.20909365E+00 0.68551881E+03</pdfrwt>
<totfact> 0.52168862E+00</totfact>
</mgrwt>
</event>
<event>
 4    1  0.9654646E-007  0.8956343E+03  0.7818608E-02  0.9533077E-01
         -2   -1    0    0    0  501 -0.00000000000E+00  0.00000000000E+00  0.20310890753E+03  0.20310890755E+03  0.25500000000E-02 0.  1.
          2   -1    0    0  501    0  0.00000000000E+00 -0.00000000000E+00 -0.29249224219E+04  0.29249224219E+04  0.25500000000E-02 0. -1.
    8880023    1    1    2    0    0 -0.60095164190E+03 -0.84898645825E+02 -0.18432063259E+04  0.20492853442E+04  0.65864270000E+03 0.  0.
    8880022    1    1    2    0    0  0.60095164190E+03  0.84898645825E+02 -0.87860718844E+03  0.10787459852E+04  0.15294330000E+03 0.  0.
<mgrwt>
<rscale>  0 0.81888537E+03</rscale>
<asrwt>0</asrwt>
<pdfrwt beam="1">  1        2 0.44998803E+00 0.89563434E+03</pdfrwt>
<pdfrwt beam="2">  1       -2 0.31247526E-01 0.89563434E+03</pdfrwt>
<totfact> 0.19054214E+01</totfact>
</mgrwt>
</event>
<event>
 4    1  0.9654646E-007  0.1093760E+04  0.7818608E-02  0.9268036E-01
         -2   -1    0    0    0  501 -0.00000000000E+00  0.00000000000E+00  0.19199347475E+04  0.19199347475E+04  0.25500000000E-02 0.  1.
          2   -1    0    0  501    0  0.00000000000E+00 -0.00000000000E+00 -0.62748047930E+03  0.62748047931E+03  0.25500000000E-02 0. -1.
    8880023    1    1    2    0    0  0.86724353083E+03  0.10192648358E+03  0.15405582696E+03  0.11045559080E+04  0.65864270000E+03 0. -1.
    8880022    1    1    2    0    0 -0.86724353083E+03 -0.10192648358E+03  0.11383984412E+04  0.14428593188E+04  0.15294330000E+03 0.  0.
<mgrwt>
<rscale>  0 0.10377956E+04</rscale>
<asrwt>0</asrwt>
<pdfrwt beam="1">  1        2 0.96535461E-01 0.10937598E+04</pdfrwt>
<pdfrwt beam="2">  1       -2 0.29537457E+00 0.10937598E+04</pdfrwt>
<totfact> 0.15838163E+00</totfact>
</mgrwt>
</event>
<event>
 4    1  0.9654646E-007  0.7231581E+03  0.7818608E-02  0.9912041E-01
         -2   -1    0    0    0  501 -0.00000000000E+00  0.00000000000E+00  0.31134137557E+03  0.31134137558E+03  0.25500000000E-02 0.  1.
          2   -1    0    0  501    0  0.00000000000E+00 -0.00000000000E+00 -0.12801736998E+04  0.12801736998E+04  0.25500000000E-02 0. -1.
    8880023    1    1    2    0    0 -0.17030166416E+03 -0.24524422364E+03 -0.19635875436E+03  0.74934261371E+03  0.65864270000E+03 0.  0.
    8880022    1    1    2    0    0  0.17030166416E+03  0.24524422364E+03 -0.77247356990E+03  0.84217246171E+03  0.15294330000E+03 0.  0.
<mgrwt>
<rscale>  0 0.59681239E+03</rscale>
<asrwt>0</asrwt>
<pdfrwt beam="1">  1        2 0.19694980E+00 0.72315807E+03</pdfrwt>
<pdfrwt beam="2">  1       -2 0.47898674E-01 0.72315807E+03</pdfrwt>
<totfact> 0.71518000E+01</totfact>
</mgrwt>
</event>
<event>
 4    1  0.9654646E-007  0.6719158E+03  0.7818608E-02  0.1014325E+00
          2   -1    0    0  501    0  0.00000000000E+00  0.00000000000E+00  0.12628968370E+04  0.12628968370E+04  0.25500000000E-02 0. -1.
         -2   -1    0    0    0  501 -0.00000000000E+00 -0.00000000000E+00 -0.18055279347E+03  0.18055279349E+03  0.25500000000E-02 0.  1.
    8880023    1    1    2    0    0 -0.12738635088E+03 -0.37858959107E+02  0.53210459715E+03  0.85709164723E+03  0.65864270000E+03 0.  1.
    8880022    1    1    2    0    0  0.12738635088E+03  0.37858959107E+02  0.55023944635E+03  0.58635798324E+03  0.15294330000E+03 0.  0.
<mgrwt>
<rscale>  0 0.49791272E+03</rscale>
<asrwt>0</asrwt>
<pdfrwt beam="1">  1        2 0.19429181E+00 0.67191576E+03</pdfrwt>
<pdfrwt beam="2">  1       -2 0.27777354E-01 0.67191576E+03</pdfrwt>
<totfact> 0.20908060E+02</totfact>
</mgrwt>
</event>
<event>
 4    1  0.9654646E-007  0.7111218E+03  0.7818608E-02  0.9953859E-01
          2   -1    0    0  501    0  0.00000000000E+00  0.00000000000E+00  0.90090218420E+03  0.90090218421E+03  0.25500000000E-02 0. -1.
         -2   -1    0    0    0  501 -0.00000000000E+00 -0.00000000000E+00 -0.42521344899E+03  0.42521344900E+03  0.25500000000E-02 0.  1.
    8880023    1    1    2    0    0 -0.23909699388E+03  0.12131232181E+03 -0.53876309020E+02  0.71315981017E+03  0.65864270000E+03 0.  0.
    8880022    1    1    2    0    0  0.23909699388E+03 -0.12131232181E+03  0.52956504423E+03  0.61295582303E+03  0.15294330000E+03 0.  0.
<mgrwt>
<rscale>  0 0.57720592E+03</rscale>
<asrwt>0</asrwt>
<pdfrwt beam="1">  1        2 0.13860034E+00 0.71112183E+03</pdfrwt>
<pdfrwt beam="2">  1       -2 0.65417453E-01 0.71112183E+03</pdfrwt>
<totfact> 0.64136589E+01</totfact>
</mgrwt>
</event>
<event>
 4    1  0.9654646E-007  0.6980196E+03  0.7818608E-02  0.1000552E+00
          2   -1    0    0  501    0  0.00000000000E+00  0.00000000000E+00  0.30784385998E+04  0.30784385998E+04  0.25500000000E-02 0. -1.
         -2   -1    0    0    0  501 -0.00000000000E+00 -0.00000000000E+00 -0.14536542367E+03  0.14536542369E+03  0.25500000000E-02 0.  1.
    8880023    1    1    2    0    0  0.21630909334E+03 -0.81433874912E+02  0.75523763219E+03  0.10284041945E+04  0.65864270000E+03 0.  1.
    8880022    1    1    2    0    0 -0.21630909334E+03  0.81433874912E+02  0.21778355439E+04  0.21953998290E+04  0.15294330000E+03 0.  0.
<mgrwt>
<rscale>  0 0.55408942E+03</rscale>
<asrwt>0</asrwt>
<pdfrwt beam="1">  1        2 0.47360595E+00 0.69801956E+03</pdfrwt>
<pdfrwt beam="2">  1       -2 0.22363911E-01 0.69801956E+03</pdfrwt>
<totfact> 0.29082803E+01</totfact>
</mgrwt>
</event>
<event>
 4    1  0.9654646E-007  0.6815132E+03  0.7818608E-02  0.1008480E+00
          2   -1    0    0  501    0  0.00000000000E+00  0.00000000000E+00  0.74242647315E+03  0.74242647315E+03  0.25500000000E-02 0. -1.
         -2   -1    0    0    0  501 -0.00000000000E+00 -0.00000000000E+00 -0.39770697415E+03  0.39770697416E+03  0.25500000000E-02 0.  1.
    8880023    1    1    2    0    0  0.14937511325E+03 -0.91307870380E+02 -0.48607199536E+02  0.68324440558E+03  0.65864270000E+03 0.  0.
    8880022    1    1    2    0    0 -0.14937511325E+03  0.91307870380E+02  0.39332669853E+03  0.45688904172E+03  0.15294330000E+03 0.  0.
<mgrwt>
<rscale>  0 0.52083102E+03</rscale>
<asrwt>0</asrwt>
<pdfrwt beam="1">  1        2 0.11421946E+00 0.68151321E+03</pdfrwt>
<pdfrwt beam="2">  1       -2 0.61185688E-01 0.68151321E+03</pdfrwt>
<totfact> 0.95998251E+01</totfact>
</mgrwt>
</event>
<event>
 4    1  0.9654646E-007  0.8229204E+03  0.7818608E-02  0.9663267E-01
         -2   -1    0    0    0  501 -0.00000000000E+00  0.00000000000E+00  0.10979706671E+04  0.10979706671E+04  0.25500000000E-02 0.  1.
          2   -1    0    0  501    0  0.00000000000E+00 -0.00000000000E+00 -0.90100421685E+03  0.90100421686E+03  0.25500000000E-02 0. -1.
    8880023    1    1    2    0    0 -0.14177748821E+03 -0.47253254272E+03  0.83883806774E+03  0.11750946218E+04  0.65864270000E+03 0.  1.
    8880022    1    1    2    0    0  0.14177748821E+03  0.47253254272E+03 -0.64187161746E+03  0.82388026217E+03  0.15294330000E+03 0.  0.
<mgrwt>
<rscale>  0 0.73246597E+03</rscale>
<asrwt>0</asrwt>
<pdfrwt beam="1">  1        2 0.13861603E+00 0.82292045E+03</pdfrwt>
<pdfrwt beam="2">  1       -2 0.16891856E+00 0.82292045E+03</pdfrwt>
<totfact> 0.64145599E+00</totfact>
</mgrwt>
</event>
<event>
 4    1  0.9654646E-007  0.9045116E+03  0.7818608E-02  0.9518827E-01
          2   -1    0    0  501    0  0.00000000000E+00  0.00000000000E+00  0.20093592022E+04  0.20093592022E+04  0.25500000000E-02 0. -1.
         -2   -1    0    0    0  501 -0.00000000000E+00 -0.00000000000E+00 -0.92441980952E+03  0.92441980952E+03  0.25500000000E-02 0.  1.
    8880023    1    1    2    0    0  0.95541593151E+02  0.61253807259E+03 -0.63101631633E+03  0.11028702934E+04  0.65864270000E+03 0.  1.
    8880022    1    1    2    0    0 -0.95541593151E+02 -0.61253807259E+03  0.17159557090E+04  0.18309087183E+04  0.15294330000E+03 0.  0.
<mgrwt>
<rscale>  0 0.82909870E+03</rscale>
<asrwt>0</asrwt>
<pdfrwt beam="1">  1        2 0.30913218E+00 0.90451163E+03</pdfrwt>
<pdfrwt beam="2">  1       -2 0.14221843E+00 0.90451163E+03</pdfrwt>
<totfact> 0.23022935E+00</totfact>
</mgrwt>
</event>
<event>
 4    1  0.9654646E-007  0.8873186E+03  0.7818608E-02  0.9546704E-01
         -2   -1    0    0    0  501 -0.00000000000E+00  0.00000000000E+00  0.19806134303E+04  0.19806134303E+04  0.25500000000E-02 0.  1.
          2   -1    0    0  501    0  0.00000000000E+00 -0.00000000000E+00 -0.45405989350E+03  0.45405989351E+03  0.25500000000E-02 0. -1.
    8880023    1    1    2    0    0 -0.30080989939E+03 -0.51287173674E+03  0.15865423879E+04  0.18178148885E+04  0.65864270000E+03 0.  0.
    8880022    1    1    2    0    0  0.30080989939E+03  0.51287173674E+03 -0.59988851145E+02  0.61685843529E+03  0.15294330000E+03 0.  0.
<mgrwt>
<rscale>  0 0.80926395E+03</rscale>
<asrwt>0</asrwt>
<pdfrwt beam="1">  1        2 0.69855368E-01 0.88731856E+03</pdfrwt>
<pdfrwt beam="2">  1       -2 0.30470976E+00 0.88731856E+03</pdfrwt>
<totfact> 0.20927483E+00</totfact>
</mgrwt>
</event>
<event>
 4    1  0.9654646E-007  0.6730801E+03  0.7818608E-02  0.1013545E+00
         -2   -1    0    0    0  501 -0.00000000000E+00  0.00000000000E+00  0.64126184809E+03  0.64126184809E+03  0.25500000000E-02 0.  1.
          2   -1    0    0  501    0  0.00000000000E+00 -0.00000000000E+00 -0.37323589579E+03  0.37323589580E+03  0.25500000000E-02 0. -1.
    8880023    1    1    2    0    0  0.74984311976E+02 -0.11663593279E+03  0.38682059849E+03  0.77631628190E+03  0.65864270000E+03 0.  0.
    8880022    1    1    2    0    0 -0.74984311976E+02  0.11663593279E+03 -0.11879464619E+03  0.23818146200E+03  0.15294330000E+03 0.  1.
<mgrwt>
<rscale>  0 0.50089823E+03</rscale>
<asrwt>0</asrwt>
<pdfrwt beam="1">  1        2 0.57420907E-01 0.67308008E+03</pdfrwt>
<pdfrwt beam="2">  1       -2 0.98655668E-01 0.67308008E+03</pdfrwt>
<totfact> 0.74423410E+01</totfact>
</mgrwt>
</event>
<event>
 4    1  0.9654646E-007  0.6801887E+03  0.7818608E-02  0.1009217E+00
          2   -1    0    0  501    0  0.00000000000E+00  0.00000000000E+00  0.30643051316E+03  0.30643051317E+03  0.25500000000E-02 0. -1.
         -2   -1    0    0    0  501 -0.00000000000E+00 -0.00000000000E+00 -0.89471265414E+03  0.89471265414E+03  0.25500000000E-02 0.  1.
    8880023    1    1    2    0    0  0.16979051031E+03  0.41999803945E+01 -0.67350228870E+03  0.95721575226E+03  0.65864270000E+03 0.  1.
    8880022    1    1    2    0    0 -0.16979051031E+03 -0.41999803945E+01  0.85220147717E+02  0.24392741506E+03  0.15294330000E+03 0.  0.
<mgrwt>
<rscale>  0 0.51786969E+03</rscale>
<asrwt>0</asrwt>
<pdfrwt beam="1">  1        2 0.47143156E-01 0.68018870E+03</pdfrwt>
<pdfrwt beam="2">  1       -2 0.13764810E+00 0.68018870E+03</pdfrwt>
<totfact> 0.40875865E+01</totfact>
</mgrwt>
</event>
<event>
 4    1  0.9654646E-007  0.7771183E+03  0.7818608E-02  0.9762650E-01
         -2   -1    0    0    0  501 -0.00000000000E+00  0.00000000000E+00  0.22646659287E+03  0.22646659288E+03  0.25500000000E-02 0.  1.
          2   -1    0    0  501    0  0.00000000000E+00 -0.00000000000E+00 -0.27499093225E+04  0.27499093225E+04  0.25500000000E-02 0. -1.
    8880023    1    1    2    0    0 -0.17147004919E+03 -0.37510094395E+03 -0.54389441726E+03  0.94854311410E+03  0.65864270000E+03 0.  1.
    8880022    1    1    2    0    0  0.17147004919E+03  0.37510094395E+03 -0.19795483124E+04  0.20278328013E+04  0.15294330000E+03 0. -1.
<mgrwt>
<rscale>  0 0.67406054E+03</rscale>
<asrwt>0</asrwt>
<pdfrwt beam="1">  1        2 0.42306295E+00 0.77711833E+03</pdfrwt>
<pdfrwt beam="2">  1       -2 0.34841016E-01 0.77711833E+03</pdfrwt>
<totfact> 0.20070525E+01</totfact>
</mgrwt>
</event>
<event>
 4    1  0.9654646E-007  0.6648182E+03  0.7818608E-02  0.1019686E+00
          2   -1    0    0  501    0  0.00000000000E+00  0.00000000000E+00  0.17417753975E+03  0.17417753977E+03  0.25500000000E-02 0. -1.
         -2   -1    0    0    0  501 -0.00000000000E+00 -0.00000000000E+00 -0.10326811865E+04  0.10326811865E+04  0.25500000000E-02 0.  1.
    8880023    1    1    2    0    0 -0.76884968181E+02 -0.47557005819E+02 -0.61674797802E+03  0.90684135426E+03  0.65864270000E+03 0. -1.
    8880022    1    1    2    0    0  0.76884968181E+02  0.47557005819E+02 -0.24175566869E+03  0.30001737199E+03  0.15294330000E+03 0.  0.
<mgrwt>
<rscale>  0 0.47799926E+03</rscale>
<asrwt>0</asrwt>
<pdfrwt beam="1">  1        2 0.26796545E-01 0.66481815E+03</pdfrwt>
<pdfrwt beam="2">  1       -2 0.15887402E+00 0.66481815E+03</pdfrwt>
<totfact> 0.52812790E+01</totfact>
</mgrwt>
</event>
<event>
 4    1  0.9654646E-007  0.7351910E+03  0.7818608E-02  0.9874183E-01
          2   -1    0    0  501    0  0.00000000000E+00  0.00000000000E+00  0.87227011662E+03  0.87227011663E+03  0.25500000000E-02 0. -1.
         -2   -1    0    0    0  501 -0.00000000000E+00 -0.00000000000E+00 -0.11041465658E+04  0.11041465658E+04  0.25500000000E-02 0.  1.
    8880023    1    1    2    0    0 -0.26020398897E+03  0.19745745935E+03 -0.93306482922E+03  0.11879039296E+04  0.65864270000E+03 0.  1.
    8880022    1    1    2    0    0  0.26020398897E+03 -0.19745745935E+03  0.70118838003E+03  0.78851275286E+03  0.15294330000E+03 0.  0.
<mgrwt>
<rscale>  0 0.61528943E+03</rscale>
<asrwt>0</asrwt>
<pdfrwt beam="1">  1        2 0.13419540E+00 0.73519098E+03</pdfrwt>
<pdfrwt beam="2">  1       -2 0.16986870E+00 0.73519098E+03</pdfrwt>
<totfact> 0.66769570E+00</totfact>
</mgrwt>
</event>
<event>
 4    1  0.2485382E-006  0.9576056E+03  0.7818608E-02  0.9439255E-01
         -2   -1    0    0    0  501 -0.00000000000E+00  0.00000000000E+00  0.15301189489E+04  0.15301189489E+04  0.25500000000E-02 0.  1.
          2   -1    0    0  501    0  0.00000000000E+00 -0.00000000000E+00 -0.20447062298E+04  0.20447062298E+04  0.25500000000E-02 0. -1.
    8880023    1    1    2    0    0  0.68244803112E+03  0.13214736525E+03  0.13063432676E+04  0.16197349105E+04  0.65864270000E+03 0.  0.
    8880022    1    1    2    0    0 -0.68244803112E+03 -0.13214736525E+03 -0.18209305485E+04  0.19550902682E+04  0.15294330000E+03 0.  0.
<mgrwt>
<rscale>  0 0.88914393E+03</rscale>
<asrwt>0</asrwt>
<pdfrwt beam="1">  1        2 0.31457019E+00 0.95760558E+03</pdfrwt>
<pdfrwt beam="2">  1       -2 0.23540292E+00 0.95760558E+03</pdfrwt>
<totfact> 0.50381923E-01</totfact>
</mgrwt>
</event>
<event>
 4    1  0.9654646E-007  0.9147438E+03  0.7818608E-02  0.9502766E-01
          2   -1    0    0  501    0  0.00000000000E+00  0.00000000000E+00  0.20479136679E+04  0.20479136679E+04  0.25500000000E-02 0. -1.
         -2   -1    0    0    0  501 -0.00000000000E+00 -0.00000000000E+00 -0.35285435023E+03  0.35285435023E+03  0.25500000000E-02 0.  1.
    8880023    1    1    2    0    0  0.40663456146E+03  0.48743646138E+03  0.50891061347E+03  0.10467789591E+04  0.65864270000E+03 0.  0.
    8880022    1    1    2    0    0 -0.40663456146E+03 -0.48743646138E+03  0.11861487042E+04  0.13539890590E+04  0.15294330000E+03 0.  0.
<mgrwt>
<rscale>  0 0.84080213E+03</rscale>
<asrwt>0</asrwt>
<pdfrwt beam="1">  1        2 0.31506364E+00 0.91474378E+03</pdfrwt>
<pdfrwt beam="2">  1       -2 0.54285284E-01 0.91474378E+03</pdfrwt>
<totfact> 0.20349655E+01</totfact>
</mgrwt>
</event>
<event>
 4    1  0.9654646E-007  0.7674312E+03  0.7818608E-02  0.9786235E-01
          2   -1    0    0  501    0  0.00000000000E+00  0.00000000000E+00  0.25342121402E+04  0.25342121402E+04  0.25500000000E-02 0. -1.
         -2   -1    0    0    0  501 -0.00000000000E+00 -0.00000000000E+00 -0.13969575574E+03  0.13969575576E+03  0.25500000000E-02 0.  1.
    8880023    1    1    2    0    0  0.32379819034E+03  0.22426573684E+03  0.15529865855E+04  0.17322580437E+04  0.65864270000E+03 0. -1.
    8880022    1    1    2    0    0 -0.32379819034E+03 -0.22426573684E+03  0.84152979893E+03  0.94164985227E+03  0.15294330000E+03 0.  1.
<mgrwt>
<rscale>  0 0.66106490E+03</rscale>
<asrwt>0</asrwt>
<pdfrwt beam="1">  1        2 0.38987876E+00 0.76743117E+03</pdfrwt>
<pdfrwt beam="2">  1       -2 0.21491656E-01 0.76743117E+03</pdfrwt>
<totfact> 0.64895302E+01</totfact>
</mgrwt>
</event>
<event>
 4    1  0.9654646E-007  0.6711093E+03  0.7818608E-02  0.1014880E+00
         -2   -1    0    0    0  501 -0.00000000000E+00  0.00000000000E+00  0.18146019699E+03  0.18146019701E+03  0.25500000000E-02 0.  1.
          2   -1    0    0  501    0  0.00000000000E+00 -0.00000000000E+00 -0.28297997365E+04  0.28297997365E+04  0.25500000000E-02 0. -1.
    8880023    1    1    2    0    0 -0.80402950967E+02 -0.10056288897E+03 -0.45958023700E+03  0.81338903956E+03  0.65864270000E+03 0.  1.
    8880022    1    1    2    0    0  0.80402950967E+02  0.10056288897E+03 -0.21887593025E+04  0.21978708940E+04  0.15294330000E+03 0.  0.
<mgrwt>
<rscale>  0 0.49580467E+03</rscale>
<asrwt>0</asrwt>
<pdfrwt beam="1">  1        2 0.43535377E+00 0.67110933E+03</pdfrwt>
<pdfrwt beam="2">  1       -2 0.27916955E-01 0.67110933E+03</pdfrwt>
<totfact> 0.27708933E+01</totfact>
</mgrwt>
</event>
<event>
 4    1  0.9654646E-007  0.6734747E+03  0.7818608E-02  0.1013285E+00
          2   -1    0    0  501    0  0.00000000000E+00  0.00000000000E+00  0.91710705824E+03  0.91710705825E+03  0.25500000000E-02 0. -1.
         -2   -1    0    0    0  501 -0.00000000000E+00 -0.00000000000E+00 -0.99630845532E+03  0.99630845532E+03  0.25500000000E-02 0.  1.
    8880023    1    1    2    0    0 -0.14004427027E+03 -0.12064953087E+02 -0.86748316426E+03  0.10982236599E+04  0.65864270000E+03 0.  1.
    8880022    1    1    2    0    0  0.14004427027E+03  0.12064953087E+02  0.78828176718E+03  0.81519185362E+03  0.15294330000E+03 0.  0.
<mgrwt>
<rscale>  0 0.50189524E+03</rscale>
<asrwt>0</asrwt>
<pdfrwt beam="1">  1        2 0.14109339E+00 0.67347470E+03</pdfrwt>
<pdfrwt beam="2">  1       -2 0.15327822E+00 0.67347470E+03</pdfrwt>
<totfact> 0.83004190E+00</totfact>
</mgrwt>
</event>
<event>
 4    1  0.9654646E-007  0.6677932E+03  0.7818608E-02  0.1017297E+00
          2   -1    0    0  501    0  0.00000000000E+00  0.00000000000E+00  0.10397829276E+04  0.10397829276E+04  0.25500000000E-02 0. -1.
         -2   -1    0    0    0  501 -0.00000000000E+00 -0.00000000000E+00 -0.29440785251E+03  0.29440785252E+03  0.25500000000E-02 0.  1.
    8880023    1    1    2    0    0 -0.27764791768E+02  0.10661453816E+03  0.11675973769E+03  0.67792373171E+03  0.65864270000E+03 0.  1.
    8880022    1    1    2    0    0  0.27764791768E+02 -0.10661453816E+03  0.62861533738E+03  0.65626704840E+03  0.15294330000E+03 0.  0.
<mgrwt>
<rscale>  0 0.48674855E+03</rscale>
<asrwt>0</asrwt>
<pdfrwt beam="1">  1        2 0.15996660E+00 0.66779319E+03</pdfrwt>
<pdfrwt beam="2">  1       -2 0.45293516E-01 0.66779319E+03</pdfrwt>
<totfact> 0.11199784E+02</totfact>
</mgrwt>
</event>
<event>
 4    1  0.9654646E-007  0.7877746E+03  0.7818608E-02  0.9737881E-01
         -2   -1    0    0    0  501 -0.00000000000E+00  0.00000000000E+00  0.85930393821E+03  0.85930393821E+03  0.25500000000E-02 0.  1.
          2   -1    0    0  501    0  0.00000000000E+00 -0.00000000000E+00 -0.13981767023E+04  0.13981767023E+04  0.25500000000E-02 0. -1.
    8880023    1    1    2    0    0 -0.69376441323E+02 -0.42657413239E+03  0.62563246086E+03  0.10059844747E+04  0.65864270000E+03 0.  1.
    8880022    1    1    2    0    0  0.69376441323E+02  0.42657413239E+03 -0.11645052250E+04  0.12514961658E+04  0.15294330000E+03 0.  0.
<mgrwt>
<rscale>  0 0.68805455E+03</rscale>
<asrwt>0</asrwt>
<pdfrwt beam="1">  1        2 0.21510411E+00 0.78777458E+03</pdfrwt>
<pdfrwt beam="2">  1       -2 0.13220061E+00 0.78777458E+03</pdfrwt>
<totfact> 0.61471631E+00</totfact>
</mgrwt>
</event>
<event>
 4    1  0.9654646E-007  0.9414420E+03  0.7818608E-02  0.9462536E-01
         -2   -1    0    0    0  501 -0.00000000000E+00  0.00000000000E+00  0.53487245206E+03  0.53487245207E+03  0.25500000000E-02 0.  1.
          2   -1    0    0  501    0  0.00000000000E+00 -0.00000000000E+00 -0.21896264280E+04  0.21896264280E+04  0.25500000000E-02 0. -1.
    8880023    1    1    2    0    0 -0.59013088283E+01 -0.67265745800E+03 -0.10617819576E+02  0.94150189888E+03  0.65864270000E+03 0.  1.
    8880022    1    1    2    0    0  0.59013088283E+01  0.67265745800E+03 -0.16441361564E+04  0.17829969812E+04  0.15294330000E+03 0.  0.
<mgrwt>
<rscale>  0 0.87103183E+03</rscale>
<asrwt>0</asrwt>
<pdfrwt beam="1">  1        2 0.33686560E+00 0.94144203E+03</pdfrwt>
<pdfrwt beam="2">  1       -2 0.82288070E-01 0.94144203E+03</pdfrwt>
<totfact> 0.68702925E+00</totfact>
</mgrwt>
</event>
<event>
 4    1  0.9654646E-007  0.8356910E+03  0.7818608E-02  0.9638359E-01
         -2   -1    0    0    0  501 -0.00000000000E+00  0.00000000000E+00  0.37551198550E+03  0.37551198551E+03  0.25500000000E-02 0.  1.
          2   -1    0    0  501    0  0.00000000000E+00 -0.00000000000E+00 -0.17753448821E+04  0.17753448821E+04  0.25500000000E-02 0. -1.
    8880023    1    1    2    0    0  0.47978863308E+03 -0.18539725980E+03 -0.23459756635E+03  0.86799510412E+03  0.65864270000E+03 0.  1.
    8880022    1    1    2    0    0 -0.47978863308E+03  0.18539725980E+03 -0.11652353303E+04  0.12828617635E+04  0.15294330000E+03 0.  0.
<mgrwt>
<rscale>  0 0.74808509E+03</rscale>
<asrwt>0</asrwt>
<pdfrwt beam="1">  1        2 0.27312998E+00 0.83569102E+03</pdfrwt>
<pdfrwt beam="2">  1       -2 0.57771076E-01 0.83569102E+03</pdfrwt>
<totfact> 0.25434319E+01</totfact>
</mgrwt>
</event>
<event>
 4    1  0.9654646E-007  0.9798028E+03  0.7818608E-02  0.9408472E-01
          2   -1    0    0  501    0  0.00000000000E+00  0.00000000000E+00  0.14152340033E+04  0.14152340033E+04  0.25500000000E-02 0. -1.
         -2   -1    0    0    0  501 -0.00000000000E+00 -0.00000000000E+00 -0.82519833943E+03  0.82519833943E+03  0.25500000000E-02 0.  1.
    8880023    1    1    2    0    0  0.59341169398E+03  0.41721199737E+03 -0.35249679218E+03  0.10412816545E+04  0.65864270000E+03 0.  0.
    8880022    1    1    2    0    0 -0.59341169398E+03 -0.41721199737E+03  0.94253245601E+03  0.11991506882E+04  0.15294330000E+03 0.  0.
<mgrwt>
<rscale>  0 0.91381723E+03</rscale>
<asrwt>0</asrwt>
<pdfrwt beam="1">  1        2 0.21772831E+00 0.97980278E+03</pdfrwt>
<pdfrwt beam="2">  1       -2 0.12695359E+00 0.97980278E+03</pdfrwt>
<totfact> 0.65090649E+00</totfact>
</mgrwt>
</event>
<event>
 4    1  0.9654646E-007  0.7970939E+03  0.7818608E-02  0.9717115E-01
          2   -1    0    0  501    0  0.00000000000E+00  0.00000000000E+00  0.13278802794E+04  0.13278802794E+04  0.25500000000E-02 0. -1.
         -2   -1    0    0    0  501 -0.00000000000E+00 -0.00000000000E+00 -0.55951330047E+03  0.55951330048E+03  0.25500000000E-02 0.  1.
    8880023    1    1    2    0    0 -0.26220954921E+03  0.36440997583E+03 -0.18881619470E+03  0.81915214693E+03  0.65864270000E+03 0.  1.
    8880022    1    1    2    0    0  0.26220954921E+03 -0.36440997583E+03  0.95718317364E+03  0.10682414330E+04  0.15294330000E+03 0.  0.
<mgrwt>
<rscale>  0 0.70006841E+03</rscale>
<asrwt>0</asrwt>
<pdfrwt beam="1">  1        2 0.20428927E+00 0.79709390E+03</pdfrwt>
<pdfrwt beam="2">  1       -2 0.86078971E-01 0.79709390E+03</pdfrwt>
<totfact> 0.18935327E+01</totfact>
</mgrwt>
</event>
<event>
 4    1  0.9654646E-007  0.9013805E+03  0.7818608E-02  0.9523819E-01
          2   -1    0    0  501    0  0.00000000000E+00  0.00000000000E+00  0.16573549573E+04  0.16573549573E+04  0.25500000000E-02 0. -1.
         -2   -1    0    0    0  501 -0.00000000000E+00 -0.00000000000E+00 -0.91383875178E+03  0.91383875178E+03  0.25500000000E-02 0.  1.
    8880023    1    1    2    0    0  0.10783682276E+03  0.60584469808E+03  0.13957687508E+04  0.16615225519E+04  0.65864270000E+03 0.  0.
    8880022    1    1    2    0    0 -0.10783682276E+03 -0.60584469808E+03 -0.65225254522E+03  0.90967115723E+03  0.15294330000E+03 0.  0.
<mgrwt>
<rscale>  0 0.82550286E+03</rscale>
<asrwt>0</asrwt>
<pdfrwt beam="1">  1        2 0.25497768E+00 0.90138049E+03</pdfrwt>
<pdfrwt beam="2">  1       -2 0.14059058E+00 0.90138049E+03</pdfrwt>
<totfact> 0.37042808E+00</totfact>
</mgrwt>
</event>
<event>
 4    1  0.9654646E-007  0.7645715E+03  0.7818608E-02  0.9793413E-01
          2   -1    0    0  501    0  0.00000000000E+00  0.00000000000E+00  0.10425819525E+04  0.10425819525E+04  0.25500000000E-02 0. -1.
         -2   -1    0    0    0  501 -0.00000000000E+00 -0.00000000000E+00 -0.84892938243E+03  0.84892938244E+03  0.25500000000E-02 0.  1.
    8880023    1    1    2    0    0 -0.30264019769E+03 -0.24324540145E+03 -0.61520244669E+03  0.98134788493E+03  0.65864270000E+03 0.  1.
    8880022    1    1    2    0    0  0.30264019769E+03  0.24324540145E+03  0.80885501676E+03  0.91016345001E+03  0.15294330000E+03 0.  0.
<mgrwt>
<rscale>  0 0.65717246E+03</rscale>
<asrwt>0</asrwt>
<pdfrwt beam="1">  1        2 0.16039722E+00 0.76457153E+03</pdfrwt>
<pdfrwt beam="2">  1       -2 0.13060452E+00 0.76457153E+03</pdfrwt>
<totfact> 0.10320232E+01</totfact>
</mgrwt>
</event>
<event>
 4    1  0.9654646E-007  0.9072905E+03  0.7818608E-02  0.9514428E-01
         -2   -1    0    0    0  501 -0.00000000000E+00  0.00000000000E+00  0.15571637663E+04  0.15571637663E+04  0.25500000000E-02 0.  1.
          2   -1    0    0  501    0  0.00000000000E+00 -0.00000000000E+00 -0.11348321960E+04  0.11348321960E+04  0.25500000000E-02 0. -1.
    8880023    1    1    2    0    0 -0.42980882086E+03 -0.45236073474E+03  0.13116629677E+04  0.15948779903E+04  0.65864270000E+03 0.  1.
    8880022    1    1    2    0    0  0.42980882086E+03  0.45236073474E+03 -0.88933139745E+03  0.10971179719E+04  0.15294330000E+03 0.  0.
<mgrwt>
<rscale>  0 0.83228420E+03</rscale>
<asrwt>0</asrwt>
<pdfrwt beam="1">  1        2 0.17458957E+00 0.90729051E+03</pdfrwt>
<pdfrwt beam="2">  1       -2 0.23956365E+00 0.90729051E+03</pdfrwt>
<totfact> 0.15585421E+00</totfact>
</mgrwt>
</event>
<event>
 4    1  0.9654646E-007  0.7085092E+03  0.7818608E-02  0.9963579E-01
          2   -1    0    0  501    0  0.00000000000E+00  0.00000000000E+00  0.14673054015E+04  0.14673054015E+04  0.25500000000E-02 0. -1.
         -2   -1    0    0    0  501 -0.00000000000E+00 -0.00000000000E+00 -0.25788156947E+03  0.25788156948E+03  0.25500000000E-02 0.  1.
    8880023    1    1    2    0    0 -0.35716521672E+02  0.25864907207E+03  0.30479195036E+03  0.77128681544E+03  0.65864270000E+03 0.  1.
    8880022    1    1    2    0    0  0.35716521672E+02 -0.25864907207E+03  0.90463188168E+03  0.95390015555E+03  0.15294330000E+03 0.  0.
<mgrwt>
<rscale>  0 0.57276474E+03</rscale>
<asrwt>0</asrwt>
<pdfrwt beam="1">  1        2 0.22573929E+00 0.70850915E+03</pdfrwt>
<pdfrwt beam="2">  1       -2 0.39674089E-01 0.70850915E+03</pdfrwt>
<totfact> 0.81448970E+01</totfact>
</mgrwt>
</event>
<event>
 4    1  0.9654646E-007  0.6660724E+03  0.7818608E-02  0.1018650E+00
          2   -1    0    0  501    0  0.00000000000E+00  0.00000000000E+00  0.19753181531E+03  0.19753181533E+03  0.25500000000E-02 0. -1.
         -2   -1    0    0    0  501 -0.00000000000E+00 -0.00000000000E+00 -0.10735598756E+04  0.10735598756E+04  0.25500000000E-02 0.  1.
    8880023    1    1    2    0    0  0.44831769047E+02  0.88500611901E+02 -0.86044398255E+03  0.10881251303E+04  0.65864270000E+03 0.  1.
    8880022    1    1    2    0    0 -0.44831769047E+02 -0.88500611901E+02 -0.15584077755E+02  0.18296656065E+03  0.15294330000E+03 0.  0.
<mgrwt>
<rscale>  0 0.48176888E+03</rscale>
<asrwt>0</asrwt>
<pdfrwt beam="1">  1        2 0.30389511E-01 0.66607241E+03</pdfrwt>
<pdfrwt beam="2">  1       -2 0.16516305E+00 0.66607241E+03</pdfrwt>
<totfact> 0.41203181E+01</totfact>
</mgrwt>
</event>
<event>
 4    1  0.9654646E-007  0.7269170E+03  0.7818608E-02  0.9899840E-01
          2   -1    0    0  501    0  0.00000000000E+00  0.00000000000E+00  0.71148808105E+03  0.71148808106E+03  0.25500000000E-02 0. -1.
         -2   -1    0    0    0  501 -0.00000000000E+00 -0.00000000000E+00 -0.48997951467E+03  0.48997951468E+03  0.25500000000E-02 0.  1.
    8880023    1    1    2    0    0  0.30711094196E+03 -0.16762163695E+02 -0.96588250511E+02  0.73330593697E+03  0.65864270000E+03 0.  0.
    8880022    1    1    2    0    0 -0.30711094196E+03  0.16762163695E+02  0.31809681689E+03  0.46816165876E+03  0.15294330000E+03 0.  0.
<mgrwt>
<rscale>  0 0.60269023E+03</rscale>
<asrwt>0</asrwt>
<pdfrwt beam="1">  1        2 0.10945970E+00 0.72691699E+03</pdfrwt>
<pdfrwt beam="2">  1       -2 0.75381464E-01 0.72691699E+03</pdfrwt>
<totfact> 0.64279377E+01</totfact>
</mgrwt>
</event>
<event>
 4    1  0.9654646E-007  0.6843518E+03  0.7818608E-02  0.1006962E+00
          2   -1    0    0  501    0  0.00000000000E+00  0.00000000000E+00  0.10136287766E+04  0.10136287766E+04  0.25500000000E-02 0. -1.
         -2   -1    0    0    0  501 -0.00000000000E+00 -0.00000000000E+00 -0.29975964414E+03  0.29975964415E+03  0.25500000000E-02 0.  1.
    8880023    1    1    2    0    0  0.47858200813E+02  0.17954611657E+03  0.15041064862E+03  0.70068593881E+03  0.65864270000E+03 0.  0.
    8880022    1    1    2    0    0 -0.47858200813E+02 -0.17954611657E+03  0.56345848388E+03  0.61270248199E+03  0.15294330000E+03 0.  0.
<mgrwt>
<rscale>  0 0.52700178E+03</rscale>
<asrwt>0</asrwt>
<pdfrwt beam="1">  1        2 0.15594289E+00 0.68435183E+03</pdfrwt>
<pdfrwt beam="2">  1       -2 0.46116868E-01 0.68435183E+03</pdfrwt>
<totfact> 0.11205805E+02</totfact>
</mgrwt>
</event>
<event>
 4    1  0.9654646E-007  0.6588847E+03  0.7818608E-02  0.1025329E+00
          2   -1    0    0  501    0  0.00000000000E+00  0.00000000000E+00  0.41221657341E+03  0.41221657342E+03  0.25500000000E-02 0. -1.
         -2   -1    0    0    0  501 -0.00000000000E+00 -0.00000000000E+00 -0.70480929477E+03  0.70480929478E+03  0.25500000000E-02 0.  1.
    8880023    1    1    2    0    0  0.14736663937E+02  0.10081962267E+02 -0.52208920517E+03  0.84065817051E+03  0.65864270000E+03 0.  1.
    8880022    1    1    2    0    0 -0.14736663937E+02 -0.10081962267E+02  0.22949648381E+03  0.27636769768E+03  0.15294330000E+03 0.  0.
<mgrwt>
<rscale>  0 0.45811506E+03</rscale>
<asrwt>0</asrwt>
<pdfrwt beam="1">  1        2 0.63417934E-01 0.65888468E+03</pdfrwt>
<pdfrwt beam="2">  1       -2 0.10843220E+00 0.65888468E+03</pdfrwt>
<totfact> 0.53185951E+01</totfact>
</mgrwt>
</event>
<event>
 4    1  0.9654646E-007  0.7215912E+03  0.7818608E-02  0.9917238E-01
          2   -1    0    0  501    0  0.00000000000E+00  0.00000000000E+00  0.55305871156E+03  0.55305871156E+03  0.25500000000E-02 0. -1.
         -2   -1    0    0    0  501 -0.00000000000E+00 -0.00000000000E+00 -0.90494961909E+03  0.90494961909E+03  0.25500000000E-02 0.  1.
    8880023    1    1    2    0    0  0.12222936374E+03  0.26822319364E+03 -0.67975993915E+03  0.99134629676E+03  0.65864270000E+03 0.  1.
    8880022    1    1    2    0    0 -0.12222936374E+03 -0.26822319364E+03  0.32786903162E+03  0.46666203389E+03  0.15294330000E+03 0.  0.
<mgrwt>
<rscale>  0 0.59433081E+03</rscale>
<asrwt>0</asrwt>
<pdfrwt beam="1">  1        2 0.85085956E-01 0.72159123E+03</pdfrwt>
<pdfrwt beam="2">  1       -2 0.13922302E+00 0.72159123E+03</pdfrwt>
<totfact> 0.20246826E+01</totfact>
</mgrwt>
</event>
<event>
 4    1  0.9654646E-007  0.7493286E+03  0.7818608E-02  0.9833562E-01
         -2   -1    0    0    0  501 -0.00000000000E+00  0.00000000000E+00  0.33826800913E+03  0.33826800914E+03  0.25500000000E-02 0.  1.
          2   -1    0    0  501    0  0.00000000000E+00 -0.00000000000E+00 -0.12398608519E+04  0.12398608519E+04  0.25500000000E-02 0. -1.
    8880023    1    1    2    0    0  0.29977673349E+03  0.19446592696E+03 -0.19918294839E+03  0.77534968878E+03  0.65864270000E+03 0.  1.
    8880022    1    1    2    0    0 -0.29977673349E+03 -0.19446592696E+03 -0.70240989438E+03  0.80277917227E+03  0.15294330000E+03 0. -1.
<mgrwt>
<rscale>  0 0.63592104E+03</rscale>
<asrwt>0</asrwt>
<pdfrwt beam="1">  1        2 0.19074782E+00 0.74932856E+03</pdfrwt>
<pdfrwt beam="2">  1       -2 0.52041233E-01 0.74932856E+03</pdfrwt>
<totfact> 0.63612409E+01</totfact>
</mgrwt>
</event>
<event>
 4    1  0.9654646E-007  0.6975675E+03  0.7818608E-02  0.1000745E+00
         -2   -1    0    0    0  501 -0.00000000000E+00  0.00000000000E+00  0.14371429711E+03  0.14371429713E+03  0.25500000000E-02 0.  1.
          2   -1    0    0  501    0  0.00000000000E+00 -0.00000000000E+00 -0.16509886756E+04  0.16509886756E+04  0.25500000000E-02 0. -1.
    8880023    1    1    2    0    0 -0.22702016008E+03  0.35384899775E+02 -0.11086398062E+04  0.13098407042E+04  0.65864270000E+03 0.  1.
    8880022    1    1    2    0    0  0.22702016008E+03 -0.35384899775E+02 -0.39863457229E+03  0.48486226854E+03  0.15294330000E+03 0. -1.
<mgrwt>
<rscale>  0 0.55324967E+03</rscale>
<asrwt>0</asrwt>
<pdfrwt beam="1">  1        2 0.25399824E+00 0.69756752E+03</pdfrwt>
<pdfrwt beam="2">  1       -2 0.22109893E-01 0.69756752E+03</pdfrwt>
<totfact> 0.19070917E+02</totfact>
</mgrwt>
</event>
<event>
 4    1  0.9654646E-007  0.6662683E+03  0.7818608E-02  0.1018492E+00
          2   -1    0    0  501    0  0.00000000000E+00  0.00000000000E+00  0.37372675275E+03  0.37372675276E+03  0.25500000000E-02 0. -1.
         -2   -1    0    0    0  501 -0.00000000000E+00 -0.00000000000E+00 -0.12715508885E+04  0.12715508885E+04  0.25500000000E-02 0.  1.
    8880023    1    1    2    0    0 -0.87840369078E+02 -0.48860725003E+02 -0.11527582696E+04  0.13314522655E+04  0.65864270000E+03 0.  1.
    8880022    1    1    2    0    0  0.87840369078E+02  0.48860725003E+02  0.25493413382E+03  0.31382537579E+03  0.15294330000E+03 0.  0.
<mgrwt>
<rscale>  0 0.48234670E+03</rscale>
<asrwt>0</asrwt>
<pdfrwt beam="1">  1        2 0.57496424E-01 0.66626834E+03</pdfrwt>
<pdfrwt beam="2">  1       -2 0.19562321E+00 0.66626834E+03</pdfrwt>
<totfact> 0.12526017E+01</totfact>
</mgrwt>
</event>
<event>
 4    1  0.9654646E-007  0.6711549E+03  0.7818608E-02  0.1014848E+00
         -2   -1    0    0    0  501 -0.00000000000E+00  0.00000000000E+00  0.67458233622E+03  0.67458233622E+03  0.25500000000E-02 0.  1.
          2   -1    0    0  501    0  0.00000000000E+00 -0.00000000000E+00 -0.10473400893E+04  0.10473400893E+04  0.25500000000E-02 0. -1.
    8880023    1    1    2    0    0  0.11730776365E+03  0.53643374397E+02  0.49337117953E+03  0.83298502393E+03  0.65864270000E+03 0.  1.
    8880022    1    1    2    0    0 -0.11730776365E+03 -0.53643374397E+02 -0.86612893263E+03  0.88893740161E+03  0.15294330000E+03 0.  0.
<mgrwt>
<rscale>  0 0.49592476E+03</rscale>
<asrwt>0</asrwt>
<pdfrwt beam="1">  1        2 0.16112924E+00 0.67115492E+03</pdfrwt>
<pdfrwt beam="2">  1       -2 0.10378190E+00 0.67115492E+03</pdfrwt>
<totfact> 0.18233694E+01</totfact>
</mgrwt>
</event>
<event>
 4    1  0.9654646E-007  0.7218409E+03  0.7818608E-02  0.9916405E-01
          2   -1    0    0  501    0  0.00000000000E+00  0.00000000000E+00  0.22498163136E+03  0.22498163137E+03  0.25500000000E-02 0. -1.
         -2   -1    0    0    0  501 -0.00000000000E+00 -0.00000000000E+00 -0.21796877562E+04  0.21796877562E+04  0.25500000000E-02 0.  1.
    8880023    1    1    2    0    0 -0.26382475810E+03 -0.13281789036E+03 -0.19419911524E+04  0.20718069257E+04  0.65864270000E+03 0.  1.
    8880022    1    1    2    0    0  0.26382475810E+03  0.13281789036E+03 -0.12714972413E+02  0.33286246187E+03  0.15294330000E+03 0.  0.
<mgrwt>
<rscale>  0 0.59472755E+03</rscale>
<asrwt>0</asrwt>
<pdfrwt beam="1">  1        2 0.34612560E-01 0.72184091E+03</pdfrwt>
<pdfrwt beam="2">  1       -2 0.33533656E+00 0.72184091E+03</pdfrwt>
<totfact> 0.30635996E+00</totfact>
</mgrwt>
</event>
<event>
 4    1  0.9654646E-007  0.6734666E+03  0.7818608E-02  0.1013291E+00
          2   -1    0    0  501    0  0.00000000000E+00  0.00000000000E+00  0.54706873088E+03  0.54706873089E+03  0.25500000000E-02 0. -1.
         -2   -1    0    0    0  501 -0.00000000000E+00 -0.00000000000E+00 -0.39816608343E+03  0.39816608344E+03  0.25500000000E-02 0.  1.
    8880023    1    1    2    0    0  0.35536329869E+02 -0.13595652807E+03  0.24465310906E+03  0.71652798850E+03  0.65864270000E+03 0.  0.
    8880022    1    1    2    0    0 -0.35536329869E+02  0.13595652807E+03 -0.95750461609E+02  0.22870682583E+03  0.15294330000E+03 0.  0.
<mgrwt>
<rscale>  0 0.50187477E+03</rscale>
<asrwt>0</asrwt>
<pdfrwt beam="1">  1        2 0.84164420E-01 0.67346657E+03</pdfrwt>
<pdfrwt beam="2">  1       -2 0.61256320E-01 0.67346657E+03</pdfrwt>
<totfact> 0.13931307E+02</totfact>
</mgrwt>
</event>
<event>
 4    1  0.9654646E-007  0.7422158E+03  0.7818608E-02  0.9853539E-01
         -2   -1    0    0    0  501 -0.00000000000E+00  0.00000000000E+00  0.67552360612E+03  0.67552360612E+03  0.25500000000E-02 0.  1.
          2   -1    0    0  501    0  0.00000000000E+00 -0.00000000000E+00 -0.47968362927E+03  0.47968362928E+03  0.25500000000E-02 0. -1.
    8880023    1    1    2    0    0 -0.54908329813E+02  0.33772639443E+03  0.23223772829E+02  0.74257901402E+03  0.65864270000E+03 0.  0.
    8880022    1    1    2    0    0  0.54908329813E+02 -0.33772639443E+03  0.17261620402E+03  0.41262822138E+03  0.15294330000E+03 0.  0.
<mgrwt>
<rscale>  0 0.62566796E+03</rscale>
<asrwt>0</asrwt>
<pdfrwt beam="1">  1        2 0.73797481E-01 0.74221577E+03</pdfrwt>
<pdfrwt beam="2">  1       -2 0.10392671E+00 0.74221577E+03</pdfrwt>
<totfact> 0.49277432E+01</totfact>
</mgrwt>
</event>
<event>
 4    1  0.9654646E-007  0.7140245E+03  0.7818608E-02  0.9943349E-01
         -2   -1    0    0    0  501 -0.00000000000E+00  0.00000000000E+00  0.62085033164E+03  0.62085033165E+03  0.25500000000E-02 0.  1.
          2   -1    0    0  501    0  0.00000000000E+00 -0.00000000000E+00 -0.63618901783E+03  0.63618901784E+03  0.25500000000E-02 0. -1.
    8880023    1    1    2    0    0  0.20729653290E+03  0.18179378531E+03  0.33243153392E+03  0.78761777782E+03  0.65864270000E+03 0.  1.
    8880022    1    1    2    0    0 -0.20729653290E+03 -0.18179378531E+03 -0.34777022011E+03  0.46942157166E+03  0.15294330000E+03 0.  0.
<mgrwt>
<rscale>  0 0.58205627E+03</rscale>
<asrwt>0</asrwt>
<pdfrwt beam="1">  1        2 0.97875234E-01 0.71402454E+03</pdfrwt>
<pdfrwt beam="2">  1       -2 0.95515435E-01 0.71402454E+03</pdfrwt>
<totfact> 0.43147596E+01</totfact>
</mgrwt>
</event>
<event>
 4    1  0.9654646E-007  0.6605812E+03  0.7818608E-02  0.1023569E+00
          2   -1    0    0  501    0  0.00000000000E+00  0.00000000000E+00  0.12027714261E+04  0.12027714261E+04  0.25500000000E-02 0. -1.
         -2   -1    0    0    0  501 -0.00000000000E+00 -0.00000000000E+00 -0.15553504493E+03  0.15553504495E+03  0.25500000000E-02 0.  1.
    8880023    1    1    2    0    0 -0.11930450723E+01  0.50555810111E+02  0.63743727223E+03  0.91798354865E+03  0.65864270000E+03 0.  1.
    8880022    1    1    2    0    0  0.11930450723E+01 -0.50555810111E+02  0.40979910892E+03  0.44032292239E+03  0.15294330000E+03 0.  0.
<mgrwt>
<rscale>  0 0.46420484E+03</rscale>
<asrwt>0</asrwt>
<pdfrwt beam="1">  1        2 0.18504177E+00 0.66058120E+03</pdfrwt>
<pdfrwt beam="2">  1       -2 0.23928467E-01 0.66058120E+03</pdfrwt>
<totfact> 0.29714297E+02</totfact>
</mgrwt>
</event>
<event>
 4    1  0.9654646E-007  0.8499379E+03  0.7818608E-02  0.9611719E-01
         -2   -1    0    0    0  501 -0.00000000000E+00  0.00000000000E+00  0.32682934967E+03  0.32682934968E+03  0.25500000000E-02 0.  1.
          2   -1    0    0  501    0  0.00000000000E+00 -0.00000000000E+00 -0.17694924901E+04  0.17694924901E+04  0.25500000000E-02 0. -1.
    8880023    1    1    2    0    0 -0.17105956397E+03  0.50923750201E+03 -0.46107652821E+03  0.96694673018E+03  0.65864270000E+03 0.  0.
    8880022    1    1    2    0    0  0.17105956397E+03 -0.50923750201E+03 -0.98158661219E+03  0.11293751096E+04  0.15294330000E+03 0.  0.
<mgrwt>
<rscale>  0 0.76525384E+03</rscale>
<asrwt>0</asrwt>
<pdfrwt beam="1">  1        2 0.27222961E+00 0.84993789E+03</pdfrwt>
<pdfrwt beam="2">  1       -2 0.50281439E-01 0.84993789E+03</pdfrwt>
<totfact> 0.34102491E+01</totfact>
</mgrwt>
</event>
<event>
 4    1  0.9654646E-007  0.9501144E+03  0.7818608E-02  0.9449950E-01
         -2   -1    0    0    0  501 -0.00000000000E+00  0.00000000000E+00  0.57527333531E+03  0.57527333532E+03  0.25500000000E-02 0.  1.
          2   -1    0    0  501    0  0.00000000000E+00 -0.00000000000E+00 -0.23517298566E+04  0.23517298566E+04  0.25500000000E-02 0. -1.
    8880023    1    1    2    0    0  0.65743420642E+03  0.19153951122E+03  0.69048777997E+02  0.95262010274E+03  0.65864270000E+03 0.  1.
    8880022    1    1    2    0    0 -0.65743420642E+03 -0.19153951122E+03 -0.18455052993E+04  0.19743830892E+04  0.15294330000E+03 0.  0.
<mgrwt>
<rscale>  0 0.88076594E+03</rscale>
<asrwt>0</asrwt>
<pdfrwt beam="1">  1        2 0.36180459E+00 0.95011438E+03</pdfrwt>
<pdfrwt beam="2">  1       -2 0.88503591E-01 0.95011438E+03</pdfrwt>
<totfact> 0.47167935E+00</totfact>
</mgrwt>
</event>
<event>
 4    1  0.9654646E-007  0.8151267E+03  0.7818608E-02  0.9678995E-01
          2   -1    0    0  501    0  0.00000000000E+00  0.00000000000E+00  0.10711378017E+04  0.10711378017E+04  0.25500000000E-02 0. -1.
         -2   -1    0    0    0  501 -0.00000000000E+00 -0.00000000000E+00 -0.48897848691E+03  0.48897848692E+03  0.25500000000E-02 0.  1.
    8880023    1    1    2    0    0 -0.10954767947E+03 -0.46756889280E+03  0.34520439836E+02  0.81585735924E+03  0.65864270000E+03 0.  1.
    8880022    1    1    2    0    0  0.10954767947E+03  0.46756889280E+03  0.54763887493E+03  0.74425892936E+03  0.15294330000E+03 0.  0.
<mgrwt>
<rscale>  0 0.72281282E+03</rscale>
<asrwt>0</asrwt>
<pdfrwt beam="1">  1        2 0.16479043E+00 0.81512672E+03</pdfrwt>
<pdfrwt beam="2">  1       -2 0.75227461E-01 0.81512672E+03</pdfrwt>
<totfact> 0.36397273E+01</totfact>
</mgrwt>
</event>
<event>
 4    1  0.9654646E-007  0.9744078E+03  0.7818608E-02  0.9415834E-01
          2   -1    0    0  501    0  0.00000000000E+00  0.00000000000E+00  0.17544595110E+04  0.17544595110E+04  0.25500000000E-02 0. -1.
         -2   -1    0    0    0  501 -0.00000000000E+00 -0.00000000000E+00 -0.49364185922E+03  0.49364185922E+03  0.25500000000E-02 0.  1.
    8880023    1    1    2    0    0  0.32986844769E+03  0.63784566526E+03  0.26300406191E+03  0.10092777756E+04  0.65864270000E+03 0.  1.
    8880022    1    1    2    0    0 -0.32986844769E+03 -0.63784566526E+03  0.99781358989E+03  0.12388235946E+04  0.15294330000E+03 0. -1.
<mgrwt>
<rscale>  0 0.90784013E+03</rscale>
<asrwt>0</asrwt>
<pdfrwt beam="1">  1        2 0.26991685E+00 0.97440776E+03</pdfrwt>
<pdfrwt beam="2">  1       -2 0.75944901E-01 0.97440776E+03</pdfrwt>
<totfact> 0.14236021E+01</totfact>
</mgrwt>
</event>
<event>
 4    1  0.9654646E-007  0.7320228E+03  0.7818608E-02  0.9883825E-01
         -2   -1    0    0    0  501 -0.00000000000E+00  0.00000000000E+00  0.60479824665E+03  0.60479824666E+03  0.25500000000E-02 0.  1.
          2   -1    0    0  501    0  0.00000000000E+00 -0.00000000000E+00 -0.62559938949E+03  0.62559938949E+03  0.25500000000E-02 0. -1.
    8880023    1    1    2    0    0  0.18967642322E+03  0.25704097001E+03  0.26165961442E+03  0.77738225209E+03  0.65864270000E+03 0.  1.
    8880022    1    1    2    0    0 -0.18967642322E+03 -0.25704097001E+03 -0.28246075726E+03  0.45301538406E+03  0.15294330000E+03 0.  0.
<mgrwt>
<rscale>  0 0.61051660E+03</rscale>
<asrwt>0</asrwt>
<pdfrwt beam="1">  1        2 0.96246061E-01 0.73202282E+03</pdfrwt>
<pdfrwt beam="2">  1       -2 0.93045883E-01 0.73202282E+03</pdfrwt>
<totfact> 0.46750941E+01</totfact>
</mgrwt>
</event>
<event>
 4    1  0.9654646E-007  0.6905937E+03  0.7818608E-02  0.1003872E+00
         -2   -1    0    0    0  501 -0.00000000000E+00  0.00000000000E+00  0.40051953529E+03  0.40051953530E+03  0.25500000000E-02 0.  1.
          2   -1    0    0  501    0  0.00000000000E+00 -0.00000000000E+00 -0.57432787349E+03  0.57432787349E+03  0.25500000000E-02 0. -1.
    8880023    1    1    2    0    0 -0.12963731746E+03  0.16218388372E+03 -0.60705539289E+02  0.69325667323E+03  0.65864270000E+03 0.  0.
    8880022    1    1    2    0    0  0.12963731746E+03 -0.16218388372E+03 -0.11310279890E+03  0.28159073556E+03  0.15294330000E+03 0.  1.
<mgrwt>
<rscale>  0 0.53984684E+03</rscale>
<asrwt>0</asrwt>
<pdfrwt beam="1">  1        2 0.88358135E-01 0.69059370E+03</pdfrwt>
<pdfrwt beam="2">  1       -2 0.61618390E-01 0.69059370E+03</pdfrwt>
<totfact> 0.12976039E+02</totfact>
</mgrwt>
</event>
<event>
 4    1  0.9654646E-007  0.7958986E+03  0.7818608E-02  0.9719735E-01
          2   -1    0    0  501    0  0.00000000000E+00  0.00000000000E+00  0.25950856594E+04  0.25950856594E+04  0.25500000000E-02 0. -1.
         -2   -1    0    0    0  501 -0.00000000000E+00 -0.00000000000E+00 -0.44714597453E+03  0.44714597454E+03  0.25500000000E-02 0.  1.
    8880023    1    1    2    0    0  0.32289933809E+03  0.30883722041E+03 -0.46782628510E+02  0.79727236992E+03  0.65864270000E+03 0.  0.
    8880022    1    1    2    0    0 -0.32289933809E+03 -0.30883722041E+03  0.21947223133E+04  0.22449592640E+04  0.15294330000E+03 0.  0.
<mgrwt>
<rscale>  0 0.69853827E+03</rscale>
<asrwt>0</asrwt>
<pdfrwt beam="1">  1        2 0.39924395E+00 0.79589862E+03</pdfrwt>
<pdfrwt beam="2">  1       -2 0.68791689E-01 0.79589862E+03</pdfrwt>
<totfact> 0.61765558E+00</totfact>
</mgrwt>
</event>
<event>
 4    1  0.9654646E-007  0.8036354E+03  0.7818608E-02  0.9702990E-01
          2   -1    0    0  501    0  0.00000000000E+00  0.00000000000E+00  0.10962646242E+04  0.10962646242E+04  0.25500000000E-02 0. -1.
         -2   -1    0    0    0  501 -0.00000000000E+00 -0.00000000000E+00 -0.63302655804E+03  0.63302655804E+03  0.25500000000E-02 0.  1.
    8880023    1    1    2    0    0  0.20648978218E+03  0.41155992610E+03  0.80370483651E+03  0.11365611613E+04  0.65864270000E+03 0. -1.
    8880022    1    1    2    0    0 -0.20648978218E+03 -0.41155992610E+03 -0.34046677038E+03  0.59273002089E+03  0.15294330000E+03 0.  0.
<mgrwt>
<rscale>  0 0.70839043E+03</rscale>
<asrwt>0</asrwt>
<pdfrwt beam="1">  1        2 0.16865609E+00 0.80363537E+03</pdfrwt>
<pdfrwt beam="2">  1       -2 0.97388702E-01 0.80363537E+03</pdfrwt>
<totfact> 0.19489155E+01</totfact>
</mgrwt>
</event>
<event>
 4    1  0.9654646E-007  0.8471546E+03  0.7818608E-02  0.9616834E-01
         -2   -1    0    0    0  501 -0.00000000000E+00  0.00000000000E+00  0.56104806213E+03  0.56104806214E+03  0.25500000000E-02 0.  1.
          2   -1    0    0  501    0  0.00000000000E+00 -0.00000000000E+00 -0.23586213251E+04  0.23586213251E+04  0.25500000000E-02 0. -1.
    8880023    1    1    2    0    0 -0.20894114029E+03 -0.49010634661E+03  0.17984138595E+03  0.86603334893E+03  0.65864270000E+03 0.  1.
    8880022    1    1    2    0    0  0.20894114029E+03  0.49010634661E+03 -0.19774146489E+04  0.20536360383E+04  0.15294330000E+03 0.  0.
<mgrwt>
<rscale>  0 0.76191913E+03</rscale>
<asrwt>0</asrwt>
<pdfrwt beam="1">  1        2 0.36286481E+00 0.84715455E+03</pdfrwt>
<pdfrwt beam="2">  1       -2 0.86315088E-01 0.84715455E+03</pdfrwt>
<totfact> 0.50262252E+00</totfact>
</mgrwt>
</event>
<event>
 4    1  0.9654646E-007  0.1102944E+04  0.7818608E-02  0.9257785E-01
          2   -1    0    0  501    0  0.00000000000E+00  0.00000000000E+00  0.32731512958E+04  0.32731512958E+04  0.25500000000E-02 0. -1.
         -2   -1    0    0    0  501 -0.00000000000E+00 -0.00000000000E+00 -0.41628773881E+03  0.41628773882E+03  0.25500000000E-02 0.  1.
    8880023    1    1    2    0    0  0.37125206455E+03 -0.80302375990E+03  0.24829120102E+04  0.27168617026E+04  0.65864270000E+03 0. -1.
    8880022    1    1    2    0    0 -0.37125206455E+03  0.80302375990E+03  0.37395154679E+03  0.97257733202E+03  0.15294330000E+03 0.  0.
<mgrwt>
<rscale>  0 0.10476386E+04</rscale>
<asrwt>0</asrwt>
<pdfrwt beam="1">  1        2 0.50356172E+00 0.11029440E+04</pdfrwt>
<pdfrwt beam="2">  1       -2 0.64044270E-01 0.11029440E+04</pdfrwt>
<totfact> 0.26529065E+00</totfact>
</mgrwt>
</event>
<event>
 4    1  0.9654646E-007  0.7263556E+03  0.7818608E-02  0.9901640E-01
          2   -1    0    0  501    0  0.00000000000E+00  0.00000000000E+00  0.37377440741E+04  0.37377440741E+04  0.25500000000E-02 0. -1.
         -2   -1    0    0    0  501 -0.00000000000E+00 -0.00000000000E+00 -0.12832864174E+03  0.12832864176E+03  0.25500000000E-02 0.  1.
    8880023    1    1    2    0    0 -0.33690386670E+02  0.30437999042E+03  0.10091498180E+04  0.12433727447E+04  0.65864270000E+03 0.  0.
    8880022    1    1    2    0    0  0.33690386670E+02 -0.30437999042E+03  0.26002656144E+04  0.26226999712E+04  0.15294330000E+03 0.  0.
<mgrwt>
<rscale>  0 0.60181888E+03</rscale>
<asrwt>0</asrwt>
<pdfrwt beam="1">  1        2 0.57503753E+00 0.72635558E+03</pdfrwt>
<pdfrwt beam="2">  1       -2 0.19742869E-01 0.72635558E+03</pdfrwt>
<totfact> 0.13059037E+01</totfact>
</mgrwt>
</event>
<event>
 4    1  0.9654646E-007  0.7417940E+03  0.7818608E-02  0.9854752E-01
         -2   -1    0    0    0  501 -0.00000000000E+00  0.00000000000E+00  0.19354485894E+03  0.19354485895E+03  0.25500000000E-02 0.  1.
          2   -1    0    0  501    0  0.00000000000E+00 -0.00000000000E+00 -0.25217917974E+04  0.25217917974E+04  0.25500000000E-02 0. -1.
    8880023    1    1    2    0    0  0.33518893700E+03  0.64004424580E+02 -0.62041575064E+03  0.96704400095E+03  0.65864270000E+03 0.  1.
    8880022    1    1    2    0    0 -0.33518893700E+03 -0.64004424580E+02 -0.17078311879E+04  0.17482926554E+04  0.15294330000E+03 0.  0.
<mgrwt>
<rscale>  0 0.62505232E+03</rscale>
<asrwt>0</asrwt>
<pdfrwt beam="1">  1        2 0.38796795E+00 0.74179404E+03</pdfrwt>
<pdfrwt beam="2">  1       -2 0.29776134E-01 0.74179404E+03</pdfrwt>
<totfact> 0.36698461E+01</totfact>
</mgrwt>
</event>
<event>
 4    1  0.9654646E-007  0.8175870E+03  0.7818608E-02  0.9673985E-01
          2   -1    0    0  501    0  0.00000000000E+00  0.00000000000E+00  0.41953254186E+04  0.41953254186E+04  0.25500000000E-02 0. -1.
         -2   -1    0    0    0  501 -0.00000000000E+00 -0.00000000000E+00 -0.34160686386E+03  0.34160686387E+03  0.25500000000E-02 0.  1.
    8880023    1    1    2    0    0 -0.40737440034E+03  0.26207698688E+03  0.19158096847E+03  0.83973312597E+03  0.65864270000E+03 0.  1.
    8880022    1    1    2    0    0  0.40737440034E+03 -0.26207698688E+03  0.36621375863E+04  0.36971991565E+04  0.15294330000E+03 0.  0.
<mgrwt>
<rscale>  0 0.72587063E+03</rscale>
<asrwt>0</asrwt>
<pdfrwt beam="1">  1        2 0.64543468E+00 0.81758697E+03</pdfrwt>
<pdfrwt beam="2">  1       -2 0.52554902E-01 0.81758697E+03</pdfrwt>
<totfact> 0.88556030E-01</totfact>
</mgrwt>
</event>
<event>
 4    1  0.9967109E-007  0.6895296E+03  0.7818608E-02  0.1004377E+00
         -2   -1    0    0    0  501 -0.00000000000E+00  0.00000000000E+00  0.15248299253E+04  0.15248299253E+04  0.25500000000E-02 0.  1.
          2   -1    0    0  501    0  0.00000000000E+00 -0.00000000000E+00 -0.12746724364E+04  0.12746724364E+04  0.25500000000E-02 0. -1.
    8880023    1    1    2    0    0  0.14463703006E+03  0.14394767300E+03  0.14325837568E+04  0.15898890620E+04  0.65864270000E+03 0.  1.
    8880022    1    1    2    0    0 -0.14463703006E+03 -0.14394767300E+03 -0.11824262679E+04  0.12096132998E+04  0.15294330000E+03 0.  0.
<mgrwt>
<rscale>  0 0.53771968E+03</rscale>
<asrwt>0</asrwt>
<pdfrwt beam="1">  1        2 0.19610345E+00 0.68952956E+03</pdfrwt>
<pdfrwt beam="2">  1       -2 0.23458922E+00 0.68952956E+03</pdfrwt>
<totfact> 0.14329831E+00</totfact>
</mgrwt>
</event>
<event>
 4    1  0.1013743E-006  0.7633491E+03  0.7818608E-02  0.9796513E-01
         -2   -1    0    0    0  501 -0.00000000000E+00  0.00000000000E+00  0.76342199710E+03  0.76342199710E+03  0.25500000000E-02 0.  1.
          2   -1    0    0  501    0  0.00000000000E+00 -0.00000000000E+00 -0.28720977998E+04  0.28720977998E+04  0.25500000000E-02 0. -1.
    8880023    1    1    2    0    0 -0.16719014199E+03  0.34776304919E+03  0.55240689410E+03  0.94226072022E+03  0.65864270000E+03 0.  1.
    8880022    1    1    2    0    0  0.16719014199E+03 -0.34776304919E+03 -0.26610826968E+04  0.26932590767E+04  0.15294330000E+03 0.  0.
<mgrwt>
<rscale>  0 0.65550018E+03</rscale>
<asrwt>0</asrwt>
<pdfrwt beam="1">  1        2 0.44186119E+00 0.76334913E+03</pdfrwt>
<pdfrwt beam="2">  1       -2 0.11744954E+00 0.76334913E+03</pdfrwt>
<totfact> 0.12410532E+00</totfact>
</mgrwt>
</event>
<event>
 4    1  0.9654646E-007  0.1001130E+04  0.7818608E-02  0.9380081E-01
          2   -1    0    0  501    0  0.00000000000E+00  0.00000000000E+00  0.20709777817E+04  0.20709777817E+04  0.25500000000E-02 0. -1.
         -2   -1    0    0    0  501 -0.00000000000E+00 -0.00000000000E+00 -0.48186966557E+03  0.48186966558E+03  0.25500000000E-02 0.  1.
    8880023    1    1    2    0    0 -0.33659912162E+03 -0.67464974374E+03  0.28871111868E+03  0.10419287700E+04  0.65864270000E+03 0.  0.
    8880022    1    1    2    0    0  0.33659912162E+03  0.67464974374E+03  0.13003969974E+04  0.15109186773E+04  0.15294330000E+03 0.  0.
<mgrwt>
<rscale>  0 0.93733253E+03</rscale>
<asrwt>0</asrwt>
<pdfrwt beam="1">  1        2 0.31861197E+00 0.10011301E+04</pdfrwt>
<pdfrwt beam="2">  1       -2 0.74133794E-01 0.10011301E+04</pdfrwt>
<totfact> 0.10028446E+01</totfact>
</mgrwt>
</event>
<event>
 4    1  0.9654646E-007  0.8058002E+03  0.7818608E-02  0.9698392E-01
         -2   -1    0    0    0  501 -0.00000000000E+00  0.00000000000E+00  0.28778890674E+03  0.28778890676E+03  0.25500000000E-02 0.  1.
          2   -1    0    0  501    0  0.00000000000E+00 -0.00000000000E+00 -0.38851576015E+04  0.38851576015E+04  0.25500000000E-02 0. -1.
    8880023    1    1    2    0    0  0.46064022335E+03 -0.57570978670E+02 -0.33251749276E+03  0.87171206382E+03  0.65864270000E+03 0.  1.
    8880022    1    1    2    0    0 -0.46064022335E+03  0.57570978670E+02 -0.32648512020E+04  0.33012344444E+04  0.15294330000E+03 0.  0.
<mgrwt>
<rscale>  0 0.71112597E+03</rscale>
<asrwt>0</asrwt>
<pdfrwt beam="1">  1        2 0.59771652E+00 0.80580025E+03</pdfrwt>
<pdfrwt beam="2">  1       -2 0.44275219E-01 0.80580025E+03</pdfrwt>
<totfact> 0.22268057E+00</totfact>
</mgrwt>
</event>
<event>
 4    1  0.9654646E-007  0.7063938E+03  0.7818608E-02  0.9971644E-01
          2   -1    0    0  501    0  0.00000000000E+00  0.00000000000E+00  0.11429488651E+04  0.11429488651E+04  0.25500000000E-02 0. -1.
         -2   -1    0    0    0  501 -0.00000000000E+00 -0.00000000000E+00 -0.65398190748E+03  0.65398190749E+03  0.25500000000E-02 0.  1.
    8880023    1    1    2    0    0  0.21955377602E+03  0.13030009389E+03 -0.43271316269E+03  0.82839173249E+03  0.65864270000E+03 0.  1.
    8880022    1    1    2    0    0 -0.21955377602E+03 -0.13030009389E+03  0.92168012031E+03  0.96853904011E+03  0.15294330000E+03 0.  0.
<mgrwt>
<rscale>  0 0.56911261E+03</rscale>
<asrwt>0</asrwt>
<pdfrwt beam="1">  1        2 0.17583828E+00 0.70639379E+03</pdfrwt>
<pdfrwt beam="2">  1       -2 0.10061260E+00 0.70639379E+03</pdfrwt>
<totfact> 0.17086845E+01</totfact>
</mgrwt>
</event>
<event>
 4    1  0.9654646E-007  0.8937899E+03  0.7818608E-02  0.9536075E-01
          2   -1    0    0  501    0  0.00000000000E+00  0.00000000000E+00  0.13215054816E+04  0.13215054816E+04  0.25500000000E-02 0. -1.
         -2   -1    0    0    0  501 -0.00000000000E+00 -0.00000000000E+00 -0.62863385639E+03  0.62863385640E+03  0.25500000000E-02 0.  1.
    8880023    1    1    2    0    0 -0.55215943837E+03 -0.24529602976E+03 -0.14542382206E+03  0.90554319713E+03  0.65864270000E+03 0.  0.
    8880022    1    1    2    0    0  0.55215943837E+03  0.24529602976E+03  0.83829544728E+03  0.10445961409E+04  0.15294330000E+03 0.  0.
<mgrwt>
<rscale>  0 0.81675600E+03</rscale>
<asrwt>0</asrwt>
<pdfrwt beam="1">  1        2 0.20330854E+00 0.89378990E+03</pdfrwt>
<pdfrwt beam="2">  1       -2 0.96712901E-01 0.89378990E+03</pdfrwt>
<totfact> 0.14426803E+01</totfact>
</mgrwt>
</event>
<event>
 4    1  0.9654646E-007  0.7697881E+03  0.7818608E-02  0.9780396E-01
          2   -1    0    0  501    0  0.00000000000E+00  0.00000000000E+00  0.11028195426E+04  0.11028195426E+04  0.25500000000E-02 0. -1.
         -2   -1    0    0    0  501 -0.00000000000E+00 -0.00000000000E+00 -0.42804917734E+03  0.42804917735E+03  0.25500000000E-02 0.  1.
    8880023    1    1    2    0    0 -0.14156497712E+03 -0.37245522144E+03  0.46301794962E+02  0.77117935476E+03  0.65864270000E+03 0.  1.
    8880022    1    1    2    0    0  0.14156497712E+03  0.37245522144E+03  0.62846857026E+03  0.75968936517E+03  0.15294330000E+03 0. -1.
<mgrwt>
<rscale>  0 0.66425311E+03</rscale>
<asrwt>0</asrwt>
<pdfrwt beam="1">  1        2 0.16966454E+00 0.76978811E+03</pdfrwt>
<pdfrwt beam="2">  1       -2 0.65853721E-01 0.76978811E+03</pdfrwt>
<totfact> 0.46744091E+01</totfact>
</mgrwt>
</event>
<event>
 4    1  0.9654646E-007  0.9896776E+03  0.7818608E-02  0.9395189E-01
         -2   -1    0    0    0  501 -0.00000000000E+00  0.00000000000E+00  0.83346571171E+03  0.83346571172E+03  0.25500000000E-02 0.  1.
          2   -1    0    0  501    0  0.00000000000E+00 -0.00000000000E+00 -0.92765047944E+03  0.92765047944E+03  0.25500000000E-02 0. -1.
    8880023    1    1    2    0    0 -0.21187816145E+03  0.70764338971E+03  0.58750656664E+02  0.99141987484E+03  0.65864270000E+03 0.  0.
    8880022    1    1    2    0    0  0.21187816145E+03 -0.70764338971E+03 -0.15293542439E+03  0.76969631632E+03  0.15294330000E+03 0.  0.
<mgrwt>
<rscale>  0 0.92472682E+03</rscale>
<asrwt>0</asrwt>
<pdfrwt beam="1">  1        2 0.14271546E+00 0.98967759E+03</pdfrwt>
<pdfrwt beam="2">  1       -2 0.12822549E+00 0.98967759E+03</pdfrwt>
<totfact> 0.12545860E+01</totfact>
</mgrwt>
</event>
<event>
 4    1  0.9654646E-007  0.1262387E+04  0.7818608E-02  0.9098741E-01
         -2   -1    0    0    0  501 -0.00000000000E+00  0.00000000000E+00  0.60235280939E+03  0.60235280940E+03  0.25500000000E-02 0.  1.
          2   -1    0    0  501    0  0.00000000000E+00 -0.00000000000E+00 -0.25556962169E+04  0.25556962169E+04  0.25500000000E-02 0. -1.
    8880023    1    1    2    0    0  0.40972135109E+03 -0.99596144226E+03 -0.53612743644E+03  0.13715150799E+04  0.65864270000E+03 0.  0.
    8880022    1    1    2    0    0 -0.40972135109E+03  0.99596144226E+03 -0.14172159711E+04  0.17865339464E+04  0.15294330000E+03 0.  0.
<mgrwt>
<rscale>  0 0.12162610E+04</rscale>
<asrwt>0</asrwt>
<pdfrwt beam="1">  1        2 0.39318403E+00 0.12623870E+04</pdfrwt>
<pdfrwt beam="2">  1       -2 0.92669665E-01 0.12623870E+04</pdfrwt>
<totfact> 0.31209399E+00</totfact>
</mgrwt>
</event>
<event>
 4    1  0.9654646E-007  0.7565930E+03  0.7818608E-02  0.9814009E-01
          2   -1    0    0  501    0  0.00000000000E+00  0.00000000000E+00  0.98238226156E+03  0.98238226156E+03  0.25500000000E-02 0. -1.
         -2   -1    0    0    0  501 -0.00000000000E+00 -0.00000000000E+00 -0.62583721648E+03  0.62583721649E+03  0.25500000000E-02 0.  1.
    8880023    1    1    2    0    0 -0.40888241100E+02 -0.37006876402E+03 -0.31960720501E+03  0.82132923369E+03  0.65864270000E+03 0.  1.
    8880022    1    1    2    0    0  0.40888241100E+02  0.37006876402E+03  0.67615225009E+03  0.78689024436E+03  0.15294330000E+03 0.  0.
<mgrwt>
<rscale>  0 0.64616128E+03</rscale>
<asrwt>0</asrwt>
<pdfrwt beam="1">  1        2 0.15113573E+00 0.75659298E+03</pdfrwt>
<pdfrwt beam="2">  1       -2 0.96282649E-01 0.75659298E+03</pdfrwt>
<totfact> 0.23715728E+01</totfact>
</mgrwt>
</event>
<event>
 4    1  0.9654646E-007  0.7557460E+03  0.7818608E-02  0.9816248E-01
         -2   -1    0    0    0  501 -0.00000000000E+00  0.00000000000E+00  0.26773841886E+03  0.26773841887E+03  0.25500000000E-02 0.  1.
          2   -1    0    0  501    0  0.00000000000E+00 -0.00000000000E+00 -0.16503931998E+04  0.16503931998E+04  0.25500000000E-02 0. -1.
    8880023    1    1    2    0    0 -0.17928498063E+02 -0.37016269751E+03 -0.39616663689E+03  0.85328779677E+03  0.65864270000E+03 0.  1.
    8880022    1    1    2    0    0  0.17928498063E+02  0.37016269751E+03 -0.98648814407E+03  0.10648438219E+04  0.15294330000E+03 0. -1.
<mgrwt>
<rscale>  0 0.64497846E+03</rscale>
<asrwt>0</asrwt>
<pdfrwt beam="1">  1        2 0.25390664E+00 0.75574603E+03</pdfrwt>
<pdfrwt beam="2">  1       -2 0.41190527E-01 0.75574603E+03</pdfrwt>
<totfact> 0.59663026E+01</totfact>
</mgrwt>
</event>
<event>
 4    1  0.9654646E-007  0.9794716E+03  0.7818608E-02  0.9408922E-01
         -2   -1    0    0    0  501 -0.00000000000E+00  0.00000000000E+00  0.85228457809E+03  0.85228457810E+03  0.25500000000E-02 0.  1.
          2   -1    0    0  501    0  0.00000000000E+00 -0.00000000000E+00 -0.11464313081E+04  0.11464313081E+04  0.25500000000E-02 0. -1.
    8880023    1    1    2    0    0 -0.32918767471E+03 -0.64590232926E+03  0.32623459994E+03  0.10323727837E+04  0.65864270000E+03 0.  0.
    8880022    1    1    2    0    0  0.32918767471E+03  0.64590232926E+03 -0.62038132992E+03  0.96634310245E+03  0.15294330000E+03 0.  0.
<mgrwt>
<rscale>  0 0.91345063E+03</rscale>
<asrwt>0</asrwt>
<pdfrwt beam="1">  1        2 0.17637405E+00 0.97947157E+03</pdfrwt>
<pdfrwt beam="2">  1       -2 0.13112070E+00 0.97947157E+03</pdfrwt>
<totfact> 0.86179375E+00</totfact>
</mgrwt>
</event>
<event>
 4    1  0.1178143E-006  0.8149932E+03  0.7818608E-02  0.9679269E-01
          2   -1    0    0  501    0  0.00000000000E+00  0.00000000000E+00  0.18565399282E+04  0.18565399282E+04  0.25500000000E-02 0. -1.
         -2   -1    0    0    0  501 -0.00000000000E+00 -0.00000000000E+00 -0.99702644627E+03  0.99702644627E+03  0.25500000000E-02 0.  1.
    8880023    1    1    2    0    0  0.11574334468E+02 -0.47986421617E+03 -0.78624468470E+03  0.11324286033E+04  0.65864270000E+03 0.  0.
    8880022    1    1    2    0    0 -0.11574334468E+02  0.47986421617E+03  0.16457581667E+04  0.17211377712E+04  0.15294330000E+03 0.  0.
<mgrwt>
<rscale>  0 0.72264652E+03</rscale>
<asrwt>0</asrwt>
<pdfrwt beam="1">  1        2 0.28562152E+00 0.81499315E+03</pdfrwt>
<pdfrwt beam="2">  1       -2 0.15338869E+00 0.81499315E+03</pdfrwt>
<totfact> 0.23188937E+00</totfact>
</mgrwt>
</event>
<event>
 4    1  0.9654646E-007  0.7033211E+03  0.7818608E-02  0.9983693E-01
          2   -1    0    0  501    0  0.00000000000E+00  0.00000000000E+00  0.56480020318E+03  0.56480020318E+03  0.25500000000E-02 0. -1.
         -2   -1    0    0    0  501 -0.00000000000E+00 -0.00000000000E+00 -0.55283099330E+03  0.55283099331E+03  0.25500000000E-02 0.  1.
    8880023    1    1    2    0    0 -0.19869655713E+03  0.14618510504E+03 -0.22976929459E+03  0.73990171087E+03  0.65864270000E+03 0.  0.
    8880022    1    1    2    0    0  0.19869655713E+03 -0.14618510504E+03  0.24173850446E+03  0.37772948562E+03  0.15294330000E+03 0.  0.
<mgrwt>
<rscale>  0 0.56371082E+03</rscale>
<asrwt>0</asrwt>
<pdfrwt beam="1">  1        2 0.86892339E-01 0.70332113E+03</pdfrwt>
<pdfrwt beam="2">  1       -2 0.85050922E-01 0.70332113E+03</pdfrwt>
<totfact> 0.65140710E+01</totfact>
</mgrwt>
</event>
<event>
 4    1  0.9654646E-007  0.1013712E+04  0.7818608E-02  0.9363834E-01
          2   -1    0    0  501    0  0.00000000000E+00  0.00000000000E+00  0.14370903284E+04  0.14370903284E+04  0.25500000000E-02 0. -1.
         -2   -1    0    0    0  501 -0.00000000000E+00 -0.00000000000E+00 -0.63320633732E+03  0.63320633733E+03  0.25500000000E-02 0.  1.
    8880023    1    1    2    0    0 -0.76420226081E+03 -0.98977602422E+02  0.10558648077E+03  0.10191959441E+04  0.65864270000E+03 0.  1.
    8880022    1    1    2    0    0  0.76420226081E+03  0.98977602422E+02  0.69829751035E+03  0.10511007217E+04  0.15294330000E+03 0. -1.
<mgrwt>
<rscale>  0 0.95112713E+03</rscale>
<asrwt>0</asrwt>
<pdfrwt beam="1">  1        2 0.22109082E+00 0.10137119E+04</pdfrwt>
<pdfrwt beam="2">  1       -2 0.97416360E-01 0.10137119E+04</pdfrwt>
<totfact> 0.12036470E+01</totfact>
</mgrwt>
</event>
<event>
 4    1  0.9654646E-007  0.7814125E+03  0.7818608E-02  0.9752529E-01
          2   -1    0    0  501    0  0.00000000000E+00  0.00000000000E+00  0.57271386158E+03  0.57271386159E+03  0.25500000000E-02 0. -1.
         -2   -1    0    0    0  501 -0.00000000000E+00 -0.00000000000E+00 -0.75411496393E+03  0.75411496393E+03  0.25500000000E-02 0.  1.
    8880023    1    1    2    0    0  0.15497072012E+02 -0.42018459271E+03  0.11543723557E+03  0.78989316544E+03  0.65864270000E+03 0. -1.
    8880022    1    1    2    0    0 -0.15497072012E+02  0.42018459271E+03 -0.29683833791E+03  0.53693566008E+03  0.15294330000E+03 0.  0.
<mgrwt>
<rscale>  0 0.67973513E+03</rscale>
<asrwt>0</asrwt>
<pdfrwt beam="1">  1        2 0.88109825E-01 0.78141248E+03</pdfrwt>
<pdfrwt beam="2">  1       -2 0.11601769E+00 0.78141248E+03</pdfrwt>
<totfact> 0.30578666E+01</totfact>
</mgrwt>
</event>
<event>
 4    1  0.9654646E-007  0.7311867E+03  0.7818608E-02  0.9886406E-01
          2   -1    0    0  501    0  0.00000000000E+00  0.00000000000E+00  0.19176564340E+04  0.19176564340E+04  0.25500000000E-02 0. -1.
         -2   -1    0    0    0  501 -0.00000000000E+00 -0.00000000000E+00 -0.21467995254E+03  0.21467995255E+03  0.25500000000E-02 0.  1.
    8880023    1    1    2    0    0  0.29041507307E+03 -0.12838583434E+03  0.51805642678E+03  0.89611188181E+03  0.65864270000E+03 0.  1.
    8880022    1    1    2    0    0 -0.29041507307E+03  0.12838583434E+03  0.11849200547E+04  0.12362245048E+04  0.15294330000E+03 0.  0.
<mgrwt>
<rscale>  0 0.60924672E+03</rscale>
<asrwt>0</asrwt>
<pdfrwt beam="1">  1        2 0.29502406E+00 0.73118674E+03</pdfrwt>
<pdfrwt beam="2">  1       -2 0.33027686E-01 0.73118674E+03</pdfrwt>
<totfact> 0.65363961E+01</totfact>
</mgrwt>
</event>
<event>
 4    1  0.9654646E-007  0.1243368E+04  0.7818608E-02  0.9116077E-01
          2   -1    0    0  501    0  0.00000000000E+00  0.00000000000E+00  0.29460516002E+04  0.29460516002E+04  0.25500000000E-02 0. -1.
         -2   -1    0    0    0  501 -0.00000000000E+00 -0.00000000000E+00 -0.45445777782E+03  0.45445777782E+03  0.25500000000E-02 0.  1.
    8880023    1    1    2    0    0 -0.10538212182E+04  0.40173838793E+02  0.12277788735E+04  0.17473992863E+04  0.65864270000E+03 0. -1.
    8880022    1    1    2    0    0  0.10538212182E+04 -0.40173838793E+02  0.12638149489E+04  0.16531100917E+04  0.15294330000E+03 0.  1.
<mgrwt>
<rscale>  0 0.11963279E+04</rscale>
<asrwt>0</asrwt>
<pdfrwt beam="1">  1        2 0.45323872E+00 0.12433677E+04</pdfrwt>
<pdfrwt beam="2">  1       -2 0.69916580E-01 0.12433677E+04</pdfrwt>
<totfact> 0.34682915E+00</totfact>
</mgrwt>
</event>
<event>
 4    1  0.9654646E-007  0.7489204E+03  0.7818608E-02  0.9834685E-01
         -2   -1    0    0    0  501 -0.00000000000E+00  0.00000000000E+00  0.62937597507E+03  0.62937597507E+03  0.25500000000E-02 0.  1.
          2   -1    0    0  501    0  0.00000000000E+00 -0.00000000000E+00 -0.11770311618E+04  0.11770311618E+04  0.25500000000E-02 0. -1.
    8880023    1    1    2    0    0  0.11075437163E+03  0.33882896706E+03  0.35138483615E+03  0.82725637447E+03  0.65864270000E+03 0.  1.
    8880022    1    1    2    0    0 -0.11075437163E+03 -0.33882896706E+03 -0.89904002285E+03  0.97915076237E+03  0.15294330000E+03 0.  0.
<mgrwt>
<rscale>  0 0.63533907E+03</rscale>
<asrwt>0</asrwt>
<pdfrwt beam="1">  1        2 0.18108172E+00 0.74892043E+03</pdfrwt>
<pdfrwt beam="2">  1       -2 0.96827073E-01 0.74892043E+03</pdfrwt>
<totfact> 0.17758093E+01</totfact>
</mgrwt>
</event>
<event>
 4    1  0.9654646E-007  0.9878725E+03  0.7818608E-02  0.9397599E-01
          2   -1    0    0  501    0  0.00000000000E+00  0.00000000000E+00  0.13186401736E+04  0.13186401736E+04  0.25500000000E-02 0. -1.
         -2   -1    0    0    0  501 -0.00000000000E+00 -0.00000000000E+00 -0.14940103672E+04  0.14940103672E+04  0.25500000000E-02 0.  1.
    8880023    1    1    2    0    0  0.16745073966E+03 -0.71696730487E+03  0.10074866470E+04  0.14110001476E+04  0.65864270000E+03 0.  0.
    8880022    1    1    2    0    0 -0.16745073966E+03  0.71696730487E+03 -0.11828568406E+04  0.14016503932E+04  0.15294330000E+03 0.  1.
<mgrwt>
<rscale>  0 0.92273545E+03</rscale>
<asrwt>0</asrwt>
<pdfrwt beam="1">  1        2 0.20286772E+00 0.98787250E+03</pdfrwt>
<pdfrwt beam="2">  1       -2 0.22984775E+00 0.98787250E+03</pdfrwt>
<totfact> 0.13769226E+00</totfact>
</mgrwt>
</event>
<event>
 4    1  0.9654646E-007  0.1152334E+04  0.7818608E-02  0.9204910E-01
          2   -1    0    0  501    0  0.00000000000E+00  0.00000000000E+00  0.79154446498E+03  0.79154446499E+03  0.25500000000E-02 0. -1.
         -2   -1    0    0    0  501 -0.00000000000E+00 -0.00000000000E+00 -0.17825510201E+04  0.17825510201E+04  0.25500000000E-02 0.  1.
    8880023    1    1    2    0    0  0.39571570343E+03 -0.85876160188E+03 -0.11208006346E+04  0.16075032428E+04  0.65864270000E+03 0.  0.
    8880022    1    1    2    0    0 -0.39571570343E+03  0.85876160188E+03  0.12979407948E+03  0.96659224231E+03  0.15294330000E+03 0.  0.
<mgrwt>
<rscale>  0 0.11002888E+04</rscale>
<asrwt>0</asrwt>
<pdfrwt beam="1">  1        2 0.12177607E+00 0.11523336E+04</pdfrwt>
<pdfrwt beam="2">  1       -2 0.27423862E+00 0.11523336E+04</pdfrwt>
<totfact> 0.15688314E+00</totfact>
</mgrwt>
</event>
<event>
 4    1  0.9654646E-007  0.6875959E+03  0.7818608E-02  0.1005317E+00
          2   -1    0    0  501    0  0.00000000000E+00  0.00000000000E+00  0.32799057686E+04  0.32799057686E+04  0.25500000000E-02 0. -1.
         -2   -1    0    0    0  501 -0.00000000000E+00 -0.00000000000E+00 -0.17784149960E+03  0.17784149962E+03  0.25500000000E-02 0.  1.
    8880023    1    1    2    0    0 -0.19030319398E+03 -0.52560869975E+02  0.51606220695E+03  0.85971411434E+03  0.65864270000E+03 0.  1.
    8880022    1    1    2    0    0  0.19030319398E+03  0.52560869975E+02  0.25860020621E+04  0.25980331539E+04  0.15294330000E+03 0.  0.
<mgrwt>
<rscale>  0 0.53379143E+03</rscale>
<asrwt>0</asrwt>
<pdfrwt beam="1">  1        2 0.50460087E+00 0.68759593E+03</pdfrwt>
<pdfrwt beam="2">  1       -2 0.27360232E-01 0.68759593E+03</pdfrwt>
<totfact> 0.15116647E+01</totfact>
</mgrwt>
</event>
<event>
 4    1  0.9654646E-007  0.8510236E+03  0.7818608E-02  0.9609735E-01
          2   -1    0    0  501    0  0.00000000000E+00  0.00000000000E+00  0.55172553810E+03  0.55172553811E+03  0.25500000000E-02 0. -1.
         -2   -1    0    0    0  501 -0.00000000000E+00 -0.00000000000E+00 -0.33937128464E+04  0.33937128464E+04  0.25500000000E-02 0.  1.
    8880023    1    1    2    0    0  0.30545962445E+03 -0.44398805451E+03 -0.31794997215E+04  0.32914221333E+04  0.65864270000E+03 0.  1.
    8880022    1    1    2    0    0 -0.30545962445E+03  0.44398805451E+03  0.33751241318E+03  0.65401625116E+03  0.15294330000E+03 0.  0.
<mgrwt>
<rscale>  0 0.76655221E+03</rscale>
<asrwt>0</asrwt>
<pdfrwt beam="1">  1        2 0.84880854E-01 0.85102361E+03</pdfrwt>
<pdfrwt beam="2">  1       -2 0.52210965E+00 0.85102361E+03</pdfrwt>
<totfact> 0.68621719E-02</totfact>
</mgrwt>
</event>
<event>
 4    1  0.9654646E-007  0.7122075E+03  0.7818608E-02  0.9949893E-01
          2   -1    0    0  501    0  0.00000000000E+00  0.00000000000E+00  0.12027206515E+04  0.12027206515E+04  0.25500000000E-02 0. -1.
         -2   -1    0    0    0  501 -0.00000000000E+00 -0.00000000000E+00 -0.88829717688E+03  0.88829717689E+03  0.25500000000E-02 0.  1.
    8880023    1    1    2    0    0 -0.21571101225E+03  0.16400619041E+03 -0.71884284152E+03  0.10119162556E+04  0.65864270000E+03 0.  1.
    8880022    1    1    2    0    0  0.21571101225E+03 -0.16400619041E+03  0.10332663161E+04  0.10791015728E+04  0.15294330000E+03 0.  0.
<mgrwt>
<rscale>  0 0.57902997E+03</rscale>
<asrwt>0</asrwt>
<pdfrwt beam="1">  1        2 0.18503395E+00 0.71220747E+03</pdfrwt>
<pdfrwt beam="2">  1       -2 0.13666110E+00 0.71220747E+03</pdfrwt>
<totfact> 0.74007609E+00</totfact>
</mgrwt>
</event>
<event>
 4    1  0.9654646E-007  0.7155546E+03  0.7818608E-02  0.9937925E-01
         -2   -1    0    0    0  501 -0.00000000000E+00  0.00000000000E+00  0.31960167557E+03  0.31960167558E+03  0.25500000000E-02 0.  1.
          2   -1    0    0  501    0  0.00000000000E+00 -0.00000000000E+00 -0.13211090999E+04  0.13211090999E+04  0.25500000000E-02 0. -1.
    8880023    1    1    2    0    0  0.27776854754E+03  0.32447254762E+02 -0.14946420071E+03  0.73099790964E+03  0.65864270000E+03 0.  1.
    8880022    1    1    2    0    0 -0.27776854754E+03 -0.32447254762E+02 -0.85204322358E+03  0.90971286580E+03  0.15294330000E+03 0.  0.
<mgrwt>
<rscale>  0 0.58457968E+03</rscale>
<asrwt>0</asrwt>
<pdfrwt beam="1">  1        2 0.20324755E+00 0.71555461E+03</pdfrwt>
<pdfrwt beam="2">  1       -2 0.49169489E-01 0.71555461E+03</pdfrwt>
<totfact> 0.64292776E+01</totfact>
</mgrwt>
</event>
<event>
 4    1  0.9654646E-007  0.6686206E+03  0.7818608E-02  0.1016672E+00
          2   -1    0    0  501    0  0.00000000000E+00  0.00000000000E+00  0.11527755798E+04  0.11527755798E+04  0.25500000000E-02 0. -1.
         -2   -1    0    0    0  501 -0.00000000000E+00 -0.00000000000E+00 -0.22589557778E+03  0.22589557779E+03  0.25500000000E-02 0.  1.
    8880023    1    1    2    0    0 -0.68141171666E+02  0.92736707161E+02  0.31795091707E+03  0.74036903505E+03  0.65864270000E+03 0.  1.
    8880022    1    1    2    0    0  0.68141171666E+02 -0.92736707161E+02  0.60892908497E+03  0.63830212257E+03  0.15294330000E+03 0.  0.
<mgrwt>
<rscale>  0 0.48907087E+03</rscale>
<asrwt>0</asrwt>
<pdfrwt beam="1">  1        2 0.17735009E+00 0.66862061E+03</pdfrwt>
<pdfrwt beam="2">  1       -2 0.34753165E-01 0.66862061E+03</pdfrwt>
<totfact> 0.15991064E+02</totfact>
</mgrwt>
</event>
<event>
 4    1  0.9654646E-007  0.7478805E+03  0.7818608E-02  0.9837559E-01
          2   -1    0    0  501    0  0.00000000000E+00  0.00000000000E+00  0.11663582238E+04  0.11663582238E+04  0.25500000000E-02 0. -1.
         -2   -1    0    0    0  501 -0.00000000000E+00 -0.00000000000E+00 -0.28594909793E+03  0.28594909794E+03  0.25500000000E-02 0.  1.
    8880023    1    1    2    0    0  0.18274500832E+03 -0.30351164994E+03  0.70731768483E+03  0.10293801889E+04  0.65864270000E+03 0.  0.
    8880022    1    1    2    0    0 -0.18274500832E+03  0.30351164994E+03  0.17309144099E+03  0.42292713282E+03  0.15294330000E+03 0.  0.
<mgrwt>
<rscale>  0 0.63385285E+03</rscale>
<asrwt>0</asrwt>
<pdfrwt beam="1">  1        2 0.17943973E+00 0.74788052E+03</pdfrwt>
<pdfrwt beam="2">  1       -2 0.43992168E-01 0.74788052E+03</pdfrwt>
<totfact> 0.98703120E+01</totfact>
</mgrwt>
</event>
<event>
 4    1  0.1172670E-006  0.1097510E+04  0.7818608E-02  0.9263833E-01
          2   -1    0    0  501    0  0.00000000000E+00  0.00000000000E+00  0.20330535762E+04  0.20330535762E+04  0.25500000000E-02 0. -1.
         -2   -1    0    0    0  501 -0.00000000000E+00 -0.00000000000E+00 -0.12534445189E+04  0.12534445189E+04  0.25500000000E-02 0.  1.
    8880023    1    1    2    0    0 -0.30525608347E+03  0.82312645727E+03 -0.87736436602E+03  0.14050967505E+04  0.65864270000E+03 0.  0.
    8880022    1    1    2    0    0  0.30525608347E+03 -0.82312645727E+03  0.16569734233E+04  0.18814013447E+04  0.15294330000E+03 0.  0.
<mgrwt>
<rscale>  0 0.10418172E+04</rscale>
<asrwt>0</asrwt>
<pdfrwt beam="1">  1        2 0.31277747E+00 0.10975102E+04</pdfrwt>
<pdfrwt beam="2">  1       -2 0.19283762E+00 0.10975102E+04</pdfrwt>
<totfact> 0.93561426E-01</totfact>
</mgrwt>
</event>
<event>
 4    1  0.9654646E-007  0.8083053E+03  0.7818608E-02  0.9693118E-01
          2   -1    0    0  501    0  0.00000000000E+00  0.00000000000E+00  0.12552922535E+04  0.12552922535E+04  0.25500000000E-02 0. -1.
         -2   -1    0    0    0  501 -0.00000000000E+00 -0.00000000000E+00 -0.48639392352E+03  0.48639392353E+03  0.25500000000E-02 0.  1.
    8880023    1    1    2    0    0  0.66425357178E+01 -0.46851168062E+03 -0.23334162868E+02  0.80864207631E+03  0.65864270000E+03 0.  0.
    8880022    1    1    2    0    0 -0.66425357178E+01  0.46851168062E+03  0.79223249284E+03  0.93304410072E+03  0.15294330000E+03 0.  0.
<mgrwt>
<rscale>  0 0.71428040E+03</rscale>
<asrwt>0</asrwt>
<pdfrwt beam="1">  1        2 0.19312188E+00 0.80830534E+03</pdfrwt>
<pdfrwt beam="2">  1       -2 0.74829835E-01 0.80830534E+03</pdfrwt>
<totfact> 0.28561489E+01</totfact>
</mgrwt>
</event>
<event>
 4    1  0.9654646E-007  0.6891126E+03  0.7818608E-02  0.1004577E+00
          2   -1    0    0  501    0  0.00000000000E+00  0.00000000000E+00  0.22413095996E+03  0.22413095998E+03  0.25500000000E-02 0. -1.
         -2   -1    0    0    0  501 -0.00000000000E+00 -0.00000000000E+00 -0.14705155613E+04  0.14705155613E+04  0.25500000000E-02 0.  1.
    8880023    1    1    2    0    0  0.14631084043E+03 -0.14021076627E+03 -0.12645358303E+04  0.14401135349E+04  0.65864270000E+03 0.  1.
    8880022    1    1    2    0    0 -0.14631084043E+03  0.14021076627E+03  0.18151229017E+02  0.25453298634E+03  0.15294330000E+03 0.  0.
<mgrwt>
<rscale>  0 0.53687956E+03</rscale>
<asrwt>0</asrwt>
<pdfrwt beam="1">  1        2 0.34481687E-01 0.68911257E+03</pdfrwt>
<pdfrwt beam="2">  1       -2 0.22623316E+00 0.68911257E+03</pdfrwt>
<totfact> 0.14106632E+01</totfact>
</mgrwt>
</event>
<event>
 4    1  0.9654646E-007  0.6832428E+03  0.7818608E-02  0.1007546E+00
         -2   -1    0    0    0  501 -0.00000000000E+00  0.00000000000E+00  0.64998286632E+03  0.64998286633E+03  0.25500000000E-02 0.  1.
          2   -1    0    0  501    0  0.00000000000E+00 -0.00000000000E+00 -0.14226983936E+04  0.14226983936E+04  0.25500000000E-02 0. -1.
    8880023    1    1    2    0    0 -0.10121026929E+03 -0.15088734794E+03  0.45586254045E+03  0.82135946602E+03  0.65864270000E+03 0.  1.
    8880022    1    1    2    0    0  0.10121026929E+03  0.15088734794E+03 -0.12285780677E+04  0.12513217939E+04  0.15294330000E+03 0.  0.
<mgrwt>
<rscale>  0 0.52461809E+03</rscale>
<asrwt>0</asrwt>
<pdfrwt beam="1">  1        2 0.21887667E+00 0.68324279E+03</pdfrwt>
<pdfrwt beam="2">  1       -2 0.99997365E-01 0.68324279E+03</pdfrwt>
<totfact> 0.11978397E+01</totfact>
</mgrwt>
</event>
<event>
 4    1  0.9654646E-007  0.9106058E+03  0.7818608E-02  0.9509216E-01
         -2   -1    0    0    0  501 -0.00000000000E+00  0.00000000000E+00  0.22400872880E+03  0.22400872882E+03  0.25500000000E-02 0.  1.
          2   -1    0    0  501    0  0.00000000000E+00 -0.00000000000E+00 -0.27645530705E+04  0.27645530705E+04  0.25500000000E-02 0. -1.
    8880023    1    1    2    0    0  0.62756514239E+03 -0.39430535089E+02 -0.12702277879E+04  0.15629080634E+04  0.65864270000E+03 0.  1.
    8880022    1    1    2    0    0 -0.62756514239E+03  0.39430535089E+02 -0.12703165538E+04  0.14256537360E+04  0.15294330000E+03 0. -1.
<mgrwt>
<rscale>  0 0.83607769E+03</rscale>
<asrwt>0</asrwt>
<pdfrwt beam="1">  1        2 0.42531583E+00 0.91060583E+03</pdfrwt>
<pdfrwt beam="2">  1       -2 0.34462883E-01 0.91060583E+03</pdfrwt>
<totfact> 0.19714458E+01</totfact>
</mgrwt>
</event>
<event>
 4    1  0.9654646E-007  0.1081425E+04  0.7818608E-02  0.9282024E-01
         -2   -1    0    0    0  501 -0.00000000000E+00  0.00000000000E+00  0.11355336300E+04  0.11355336300E+04  0.25500000000E-02 0.  1.
          2   -1    0    0  501    0  0.00000000000E+00 -0.00000000000E+00 -0.91491459664E+03  0.91491459664E+03  0.25500000000E-02 0. -1.
    8880023    1    1    2    0    0  0.42126053385E+03  0.74713472130E+03 -0.17166295281E+03  0.10949653441E+04  0.65864270000E+03 0.  1.
    8880022    1    1    2    0    0 -0.42126053385E+03 -0.74713472130E+03  0.39228198618E+03  0.95548288255E+03  0.15294330000E+03 0. -1.
<mgrwt>
<rscale>  0 0.10245475E+04</rscale>
<asrwt>0</asrwt>
<pdfrwt beam="1">  1        2 0.14075609E+00 0.10814254E+04</pdfrwt>
<pdfrwt beam="2">  1       -2 0.17469748E+00 0.10814254E+04</pdfrwt>
<totfact> 0.55656751E+00</totfact>
</mgrwt>
</event>
<event>
 4    1  0.9654646E-007  0.8824376E+03  0.7818608E-02  0.9554834E-01
         -2   -1    0    0    0  501 -0.00000000000E+00  0.00000000000E+00  0.14724389257E+04  0.14724389257E+04  0.25500000000E-02 0.  1.
          2   -1    0    0  501    0  0.00000000000E+00 -0.00000000000E+00 -0.10115883984E+04  0.10115883984E+04  0.25500000000E-02 0. -1.
    8880023    1    1    2    0    0 -0.27708369176E+03 -0.51779394692E+03  0.12240445660E+04  0.15089669478E+04  0.65864270000E+03 0.  1.
    8880022    1    1    2    0    0  0.27708369176E+03  0.51779394692E+03 -0.76319403866E+03  0.97506037627E+03  0.15294330000E+03 0.  0.
<mgrwt>
<rscale>  0 0.80359074E+03</rscale>
<asrwt>0</asrwt>
<pdfrwt beam="1">  1        2 0.15562899E+00 0.88243762E+03</pdfrwt>
<pdfrwt beam="2">  1       -2 0.22652906E+00 0.88243762E+03</pdfrwt>
<totfact> 0.22462043E+00</totfact>
</mgrwt>
</event>
<event>
 4    1  0.9654646E-007  0.6966405E+03  0.7818608E-02  0.1001143E+00
          2   -1    0    0  501    0  0.00000000000E+00  0.00000000000E+00  0.93091501653E+03  0.93091501653E+03  0.25500000000E-02 0. -1.
         -2   -1    0    0    0  501 -0.00000000000E+00 -0.00000000000E+00 -0.49277941229E+03  0.49277941229E+03  0.25500000000E-02 0.  1.
    8880023    1    1    2    0    0  0.28781378792E+01  0.22691283210E+03 -0.20381874000E+03  0.72584433737E+03  0.65864270000E+03 0.  0.
    8880022    1    1    2    0    0 -0.28781378792E+01 -0.22691283210E+03  0.64195434424E+03  0.69785009146E+03  0.15294330000E+03 0.  0.
<mgrwt>
<rscale>  0 0.55151717E+03</rscale>
<asrwt>0</asrwt>
<pdfrwt beam="1">  1        2 0.14321769E+00 0.69664045E+03</pdfrwt>
<pdfrwt beam="2">  1       -2 0.75812218E-01 0.69664045E+03</pdfrwt>
<totfact> 0.44443553E+01</totfact>
</mgrwt>
</event>
<event>
 4    1  0.9654646E-007  0.6666269E+03  0.7818608E-02  0.1018206E+00
          2   -1    0    0  501    0  0.00000000000E+00  0.00000000000E+00  0.10908703736E+04  0.10908703736E+04  0.25500000000E-02 0. -1.
         -2   -1    0    0    0  501 -0.00000000000E+00 -0.00000000000E+00 -0.33740525543E+03  0.33740525544E+03  0.25500000000E-02 0.  1.
    8880023    1    1    2    0    0 -0.52086513548E+02  0.88702600654E+02  0.14620151077E+02  0.66678715595E+03  0.65864270000E+03 0.  1.
    8880022    1    1    2    0    0  0.52086513548E+02 -0.88702600654E+02  0.73884496713E+03  0.76148847314E+03  0.15294330000E+03 0.  0.
<mgrwt>
<rscale>  0 0.48339654E+03</rscale>
<asrwt>0</asrwt>
<pdfrwt beam="1">  1        2 0.16782621E+00 0.66662685E+03</pdfrwt>
<pdfrwt beam="2">  1       -2 0.51908501E-01 0.66662685E+03</pdfrwt>
<totfact> 0.79089320E+01</totfact>
</mgrwt>
</event>
<event>
 4    1  0.9654646E-007  0.6923197E+03  0.7818608E-02  0.1003069E+00
         -2   -1    0    0    0  501 -0.00000000000E+00  0.00000000000E+00  0.17411143762E+03  0.17411143764E+03  0.25500000000E-02 0.  1.
          2   -1    0    0  501    0  0.00000000000E+00 -0.00000000000E+00 -0.29219705478E+04  0.29219705478E+04  0.25500000000E-02 0. -1.
    8880023    1    1    2    0    0 -0.16412372600E+03  0.13623439113E+03 -0.55430839573E+03  0.88688466590E+03  0.65864270000E+03 0.  1.
    8880022    1    1    2    0    0  0.16412372600E+03 -0.13623439113E+03 -0.21935507145E+04  0.22091973195E+04  0.15294330000E+03 0.  0.
<mgrwt>
<rscale>  0 0.54324786E+03</rscale>
<asrwt>0</asrwt>
<pdfrwt beam="1">  1        2 0.44953389E+00 0.69231973E+03</pdfrwt>
<pdfrwt beam="2">  1       -2 0.26786377E-01 0.69231973E+03</pdfrwt>
<totfact> 0.26229995E+01</totfact>
</mgrwt>
</event>
<event>
 4    1  0.9654646E-007  0.7962936E+03  0.7818608E-02  0.9718868E-01
         -2   -1    0    0    0  501 -0.00000000000E+00  0.00000000000E+00  0.32919047264E+03  0.32919047265E+03  0.25500000000E-02 0.  1.
          2   -1    0    0  501    0  0.00000000000E+00 -0.00000000000E+00 -0.15629909797E+04  0.15629909797E+04  0.25500000000E-02 0. -1.
    8880023    1    1    2    0    0  0.44725767575E+03  0.15294167360E+02 -0.31027940931E+03  0.85460918447E+03  0.65864270000E+03 0.  0.
    8880022    1    1    2    0    0 -0.44725767575E+03 -0.15294167360E+02 -0.92352109777E+03  0.10375722679E+04  0.15294330000E+03 0.  0.
<mgrwt>
<rscale>  0 0.69904428E+03</rscale>
<asrwt>0</asrwt>
<pdfrwt beam="1">  1        2 0.24046015E+00 0.79629363E+03</pdfrwt>
<pdfrwt beam="2">  1       -2 0.50644689E-01 0.79629363E+03</pdfrwt>
<totfact> 0.43905000E+01</totfact>
</mgrwt>
</event>
<event>
 4    1  0.9654646E-007  0.6829712E+03  0.7818608E-02  0.1007691E+00
          2   -1    0    0  501    0  0.00000000000E+00  0.00000000000E+00  0.19972954517E+04  0.19972954517E+04  0.25500000000E-02 0. -1.
         -2   -1    0    0    0  501 -0.00000000000E+00 -0.00000000000E+00 -0.65413326299E+03  0.65413326300E+03  0.25500000000E-02 0.  1.
    8880023    1    1    2    0    0  0.14726876041E+03  0.10464868528E+03 -0.46602725908E+03  0.82681983987E+03  0.65864270000E+03 0.  1.
    8880022    1    1    2    0    0 -0.14726876041E+03 -0.10464868528E+03  0.18091894478E+04  0.18246088748E+04  0.15294330000E+03 0.  0.
<mgrwt>
<rscale>  0 0.52402912E+03</rscale>
<asrwt>0</asrwt>
<pdfrwt beam="1">  1        2 0.30727622E+00 0.68297119E+03</pdfrwt>
<pdfrwt beam="2">  1       -2 0.10063589E+00 0.68297119E+03</pdfrwt>
<totfact> 0.57160752E+00</totfact>
</mgrwt>
</event>
<event>
 4    1  0.9654646E-007  0.6765371E+03  0.7818608E-02  0.1011354E+00
         -2   -1    0    0    0  501 -0.00000000000E+00  0.00000000000E+00  0.21099400732E+03  0.21099400734E+03  0.25500000000E-02 0.  1.
          2   -1    0    0  501    0  0.00000000000E+00 -0.00000000000E+00 -0.26083629971E+04  0.26083629971E+04  0.25500000000E-02 0. -1.
    8880023    1    1    2    0    0 -0.15427711748E+03  0.95294904352E+01 -0.35231828585E+03  0.76277822529E+03  0.65864270000E+03 0.  1.
    8880022    1    1    2    0    0  0.15427711748E+03 -0.95294904352E+01 -0.20450507039E+04  0.20565787791E+04  0.15294330000E+03 0.  0.
<mgrwt>
<rscale>  0 0.50939874E+03</rscale>
<asrwt>0</asrwt>
<pdfrwt beam="1">  1        2 0.40128659E+00 0.67653710E+03</pdfrwt>
<pdfrwt beam="2">  1       -2 0.32460618E-01 0.67653710E+03</pdfrwt>
<totfact> 0.28163246E+01</totfact>
</mgrwt>
</event>
<event>
 4    1  0.9654646E-007  0.7357493E+03  0.7818608E-02  0.9872506E-01
          2   -1    0    0  501    0  0.00000000000E+00  0.00000000000E+00  0.18326858488E+04  0.18326858488E+04  0.25500000000E-02 0. -1.
         -2   -1    0    0    0  501 -0.00000000000E+00 -0.00000000000E+00 -0.34084145576E+03  0.34084145577E+03  0.25500000000E-02 0.  1.
    8880023    1    1    2    0    0  0.29545096700E+03 -0.14221671772E+03  0.10856922694E+03  0.74371658043E+03  0.65864270000E+03 0.  1.
    8880022    1    1    2    0    0 -0.29545096700E+03  0.14221671772E+03  0.13832751661E+04  0.14298107241E+04  0.15294330000E+03 0.  0.
<mgrwt>
<rscale>  0 0.61612438E+03</rscale>
<asrwt>0</asrwt>
<pdfrwt beam="1">  1        2 0.28195167E+00 0.73574933E+03</pdfrwt>
<pdfrwt beam="2">  1       -2 0.52437148E-01 0.73574933E+03</pdfrwt>
<totfact> 0.29288607E+01</totfact>
</mgrwt>
</event>
<event>
 4    1  0.9654646E-007  0.8515490E+03  0.7818608E-02  0.9608777E-01
          2   -1    0    0  501    0  0.00000000000E+00  0.00000000000E+00  0.19493842649E+04  0.19493842649E+04  0.25500000000E-02 0. -1.
         -2   -1    0    0    0  501 -0.00000000000E+00 -0.00000000000E+00 -0.44022791590E+03  0.44022791590E+03  0.25500000000E-02 0.  1.
    8880023    1    1    2    0    0 -0.52929098720E+03 -0.10571885190E+03  0.16083916050E+04  0.18199063674E+04  0.65864270000E+03 0.  0.
    8880022    1    1    2    0    0  0.52929098720E+03  0.10571885190E+03 -0.99235256000E+02  0.56970581341E+03  0.15294330000E+03 0.  0.
<mgrwt>
<rscale>  0 0.76717997E+03</rscale>
<asrwt>0</asrwt>
<pdfrwt beam="1">  1        2 0.29990527E+00 0.85154896E+03</pdfrwt>
<pdfrwt beam="2">  1       -2 0.67727372E-01 0.85154896E+03</pdfrwt>
<totfact> 0.14520005E+01</totfact>
</mgrwt>
</event>
<event>
 4    1  0.9654646E-007  0.9186006E+03  0.7818608E-02  0.9496808E-01
         -2   -1    0    0    0  501 -0.00000000000E+00  0.00000000000E+00  0.41595877457E+03  0.41595877458E+03  0.25500000000E-02 0.  1.
          2   -1    0    0  501    0  0.00000000000E+00 -0.00000000000E+00 -0.21449740271E+04  0.21449740271E+04  0.25500000000E-02 0. -1.
    8880023    1    1    2    0    0  0.63872877030E+03  0.45192914168E+02 -0.26555703429E+03  0.95621524053E+03  0.65864270000E+03 0.  0.
    8880022    1    1    2    0    0 -0.63872877030E+03 -0.45192914168E+02 -0.14634582182E+04  0.16047175611E+04  0.15294330000E+03 0.  0.
<mgrwt>
<rscale>  0 0.84519558E+03</rscale>
<asrwt>0</asrwt>
<pdfrwt beam="1">  1        2 0.32999600E+00 0.91860059E+03</pdfrwt>
<pdfrwt beam="2">  1       -2 0.63993659E-01 0.91860059E+03</pdfrwt>
<totfact> 0.12706314E+01</totfact>
</mgrwt>
</event>
<event>
 4    1  0.9654646E-007  0.7891054E+03  0.7818608E-02  0.9734867E-01
         -2   -1    0    0    0  501 -0.00000000000E+00  0.00000000000E+00  0.15573436276E+04  0.15573436276E+04  0.25500000000E-02 0.  1.
          2   -1    0    0  501    0  0.00000000000E+00 -0.00000000000E+00 -0.54987472601E+03  0.54987472602E+03  0.25500000000E-02 0. -1.
    8880023    1    1    2    0    0  0.43454277746E+03  0.70501145031E+01  0.13288423352E+04  0.15454802773E+04  0.65864270000E+03 0.  1.
    8880022    1    1    2    0    0 -0.43454277746E+03 -0.70501145031E+01 -0.32137343358E+03  0.56173807631E+03  0.15294330000E+03 0.  0.
<mgrwt>
<rscale>  0 0.68978227E+03</rscale>
<asrwt>0</asrwt>
<pdfrwt beam="1">  1        2 0.84596111E-01 0.78910540E+03</pdfrwt>
<pdfrwt beam="2">  1       -2 0.23959133E+00 0.78910540E+03</pdfrwt>
<totfact> 0.41934225E+00</totfact>
</mgrwt>
</event>
<event>
 4    1  0.9654646E-007  0.1398978E+04  0.7818608E-02  0.8984477E-01
         -2   -1    0    0    0  501 -0.00000000000E+00  0.00000000000E+00  0.94096235633E+03  0.94096235634E+03  0.25500000000E-02 0.  1.
          2   -1    0    0  501    0  0.00000000000E+00 -0.00000000000E+00 -0.29150944928E+04  0.29150944928E+04  0.25500000000E-02 0. -1.
    8880023    1    1    2    0    0 -0.66296466779E+03  0.10410601770E+04 -0.21851463520E+04  0.25946104194E+04  0.65864270000E+03 0.  0.
    8880022    1    1    2    0    0  0.66296466779E+03 -0.10410601770E+04  0.21101421553E+03  0.12614464297E+04  0.15294330000E+03 0.  0.
<mgrwt>
<rscale>  0 0.13584216E+04</rscale>
<asrwt>0</asrwt>
<pdfrwt beam="1">  1        2 0.44847607E+00 0.13989777E+04</pdfrwt>
<pdfrwt beam="2">  1       -2 0.14476344E+00 0.13989777E+04</pdfrwt>
<totfact> 0.62059293E-01</totfact>
</mgrwt>
</event>
<event>
 4    1  0.9654646E-007  0.6661845E+03  0.7818608E-02  0.1018560E+00
         -2   -1    0    0    0  501 -0.00000000000E+00  0.00000000000E+00  0.51282419287E+03  0.51282419287E+03  0.25500000000E-02 0.  1.
          2   -1    0    0  501    0  0.00000000000E+00 -0.00000000000E+00 -0.13526156430E+04  0.13526156430E+04  0.25500000000E-02 0. -1.
    8880023    1    1    2    0    0 -0.85948680526E+02  0.51033109792E+02  0.28595439095E+03  0.72496322248E+03  0.65864270000E+03 0.  1.
    8880022    1    1    2    0    0  0.85948680526E+02 -0.51033109792E+02 -0.11257458411E+04  0.11404766134E+04  0.15294330000E+03 0.  0.
<mgrwt>
<rscale>  0 0.48209973E+03</rscale>
<asrwt>0</asrwt>
<pdfrwt beam="1">  1        2 0.20809471E+00 0.66618448E+03</pdfrwt>
<pdfrwt beam="2">  1       -2 0.78896030E-01 0.66618448E+03</pdfrwt>
<totfact> 0.22674008E+01</totfact>
</mgrwt>
</event>
<event>
 4    1  0.9654646E-007  0.6786216E+03  0.7818608E-02  0.1010114E+00
          2   -1    0    0  501    0  0.00000000000E+00  0.00000000000E+00  0.22784589707E+04  0.22784589707E+04  0.25500000000E-02 0. -1.
         -2   -1    0    0    0  501 -0.00000000000E+00 -0.00000000000E+00 -0.89410547677E+02  0.89410547714E+02  0.25500000000E-02 0.  1.
    8880023    1    1    2    0    0 -0.11469344432E+03 -0.11645787085E+03  0.16226084147E+04  0.17588022332E+04  0.65864270000E+03 0. -1.
    8880022    1    1    2    0    0  0.11469344432E+03  0.11645787085E+03  0.56644000834E+03  0.60906728521E+03  0.15294330000E+03 0. -1.
<mgrwt>
<rscale>  0 0.51429210E+03</rscale>
<asrwt>0</asrwt>
<pdfrwt beam="1">  1        2 0.35053215E+00 0.67862156E+03</pdfrwt>
<pdfrwt beam="2">  1       -2 0.13755469E-01 0.67862156E+03</pdfrwt>
<totfact> 0.19635120E+02</totfact>
</mgrwt>
</event>
<event>
 4    1  0.9654646E-007  0.6624485E+03  0.7818608E-02  0.1021777E+00
         -2   -1    0    0    0  501 -0.00000000000E+00  0.00000000000E+00  0.22739672327E+03  0.22739672328E+03  0.25500000000E-02 0.  1.
          2   -1    0    0  501    0  0.00000000000E+00 -0.00000000000E+00 -0.23957900134E+04  0.23957900134E+04  0.25500000000E-02 0. -1.
    8880023    1    1    2    0    0  0.63621544703E+02 -0.31306430000E+02 -0.26683450297E+03  0.71416990398E+03  0.65864270000E+03 0.  0.
    8880022    1    1    2    0    0 -0.63621544703E+02  0.31306430000E+02 -0.19015587872E+04  0.19090168327E+04  0.15294330000E+03 0. -1.
<mgrwt>
<rscale>  0 0.47050694E+03</rscale>
<asrwt>0</asrwt>
<pdfrwt beam="1">  1        2 0.36858306E+00 0.66244849E+03</pdfrwt>
<pdfrwt beam="2">  1       -2 0.34984113E-01 0.66244849E+03</pdfrwt>
<totfact> 0.32317343E+01</totfact>
</mgrwt>
</event>
<event>
 4    1  0.9654646E-007  0.6595257E+03  0.7818608E-02  0.1024648E+00
         -2   -1    0    0    0  501 -0.00000000000E+00  0.00000000000E+00  0.10036090840E+04  0.10036090840E+04  0.25500000000E-02 0.  1.
          2   -1    0    0  501    0  0.00000000000E+00 -0.00000000000E+00 -0.16620230369E+03  0.16620230371E+03  0.25500000000E-02 0. -1.
    8880023    1    1    2    0    0 -0.12703249996E+02  0.31664409964E+02  0.69392610077E+03  0.95734405885E+03  0.65864270000E+03 0.  0.
    8880022    1    1    2    0    0  0.12703249996E+02 -0.31664409964E+02  0.14348067952E+03  0.21246732885E+03  0.15294330000E+03 0. -1.
<mgrwt>
<rscale>  0 0.46046091E+03</rscale>
<asrwt>0</asrwt>
<pdfrwt beam="1">  1        2 0.25569585E-01 0.65952575E+03</pdfrwt>
<pdfrwt beam="2">  1       -2 0.15440140E+00 0.65952575E+03</pdfrwt>
<totfact> 0.60177077E+01</totfact>
</mgrwt>
</event>
<event>
 4    1  0.9654646E-007  0.7194475E+03  0.7818608E-02  0.9924460E-01
         -2   -1    0    0    0  501 -0.00000000000E+00  0.00000000000E+00  0.32955284891E+03  0.32955284892E+03  0.25500000000E-02 0.  1.
          2   -1    0    0  501    0  0.00000000000E+00 -0.00000000000E+00 -0.13004017899E+04  0.13004017899E+04  0.25500000000E-02 0. -1.
    8880023    1    1    2    0    0  0.28423518087E+03 -0.54817244212E+02 -0.13463782302E+03  0.73193723635E+03  0.65864270000E+03 0.  1.
    8880022    1    1    2    0    0 -0.28423518087E+03  0.54817244212E+02 -0.83621111797E+03  0.89801740247E+03  0.15294330000E+03 0.  0.
<mgrwt>
<rscale>  0 0.59090372E+03</rscale>
<asrwt>0</asrwt>
<pdfrwt beam="1">  1        2 0.20006181E+00 0.71944755E+03</pdfrwt>
<pdfrwt beam="2">  1       -2 0.50700439E-01 0.71944755E+03</pdfrwt>
<totfact> 0.62059977E+01</totfact>
</mgrwt>
</event>
<event>
 4    1  0.9654646E-007  0.8225365E+03  0.7818608E-02  0.9664032E-01
         -2   -1    0    0    0  501 -0.00000000000E+00  0.00000000000E+00  0.13075897968E+04  0.13075897968E+04  0.25500000000E-02 0.  1.
          2   -1    0    0  501    0  0.00000000000E+00 -0.00000000000E+00 -0.65702391538E+03  0.65702391539E+03  0.25500000000E-02 0. -1.
    8880023    1    1    2    0    0 -0.38252216272E+03 -0.31053655302E+03 -0.30615242606E+03  0.87766489618E+03  0.65864270000E+03 0.  0.
    8880022    1    1    2    0    0  0.38252216272E+03  0.31053655302E+03  0.95671830747E+03  0.10869488160E+04  0.15294330000E+03 0.  0.
<mgrwt>
<rscale>  0 0.73199272E+03</rscale>
<asrwt>0</asrwt>
<pdfrwt beam="1">  1        2 0.10108060E+00 0.82253654E+03</pdfrwt>
<pdfrwt beam="2">  1       -2 0.20116766E+00 0.82253654E+03</pdfrwt>
<totfact> 0.58674941E+00</totfact>
</mgrwt>
</event>
<event>
 4    1  0.9654646E-007  0.7658101E+03  0.7818608E-02  0.9790292E-01
          2   -1    0    0  501    0  0.00000000000E+00  0.00000000000E+00  0.15392588809E+04  0.15392588809E+04  0.25500000000E-02 0. -1.
         -2   -1    0    0    0  501 -0.00000000000E+00 -0.00000000000E+00 -0.35192706786E+03  0.35192706787E+03  0.25500000000E-02 0.  1.
    8880023    1    1    2    0    0  0.24774438045E+03 -0.30212184466E+03  0.16120809269E+03  0.78259385538E+03  0.65864270000E+03 0.  1.
    8880022    1    1    2    0    0 -0.24774438045E+03  0.30212184466E+03  0.10261237203E+04  0.11085920934E+04  0.15294330000E+03 0.  0.
<mgrwt>
<rscale>  0 0.65886168E+03</rscale>
<asrwt>0</asrwt>
<pdfrwt beam="1">  1        2 0.23680906E+00 0.76581009E+03</pdfrwt>
<pdfrwt beam="2">  1       -2 0.54142625E-01 0.76581009E+03</pdfrwt>
<totfact> 0.39576358E+01</totfact>
</mgrwt>
</event>
<event>
 4    1  0.9654646E-007  0.1298519E+04  0.7818608E-02  0.9066840E-01
          2   -1    0    0  501    0  0.00000000000E+00  0.00000000000E+00  0.20070834446E+04  0.20070834446E+04  0.25500000000E-02 0. -1.
         -2   -1    0    0    0  501 -0.00000000000E+00 -0.00000000000E+00 -0.12425792885E+04  0.12425792885E+04  0.25500000000E-02 0.  1.
    8880023    1    1    2    0    0 -0.83908404248E+03 -0.74045939200E+03  0.14356858336E+04  0.19358063334E+04  0.65864270000E+03 0. -1.
    8880022    1    1    2    0    0  0.83908404248E+03  0.74045939200E+03 -0.67118167751E+03  0.13138563996E+04  0.15294330000E+03 0.  0.
<mgrwt>
<rscale>  0 0.12540253E+04</rscale>
<asrwt>0</asrwt>
<pdfrwt beam="1">  1        2 0.30878207E+00 0.12985193E+04</pdfrwt>
<pdfrwt beam="2">  1       -2 0.19116605E+00 0.12985193E+04</pdfrwt>
<totfact> 0.96779775E-01</totfact>
</mgrwt>
</event>
<event>
 4    1  0.9654646E-007  0.7091804E+03  0.7818608E-02  0.9961057E-01
         -2   -1    0    0    0  501 -0.00000000000E+00  0.00000000000E+00  0.28159931229E+03  0.28159931230E+03  0.25500000000E-02 0.  1.
          2   -1    0    0  501    0  0.00000000000E+00 -0.00000000000E+00 -0.10762640951E+04  0.10762640951E+04  0.25500000000E-02 0. -1.
    8880023    1    1    2    0    0 -0.13254733463E+03  0.22706341082E+03 -0.77875606365E+03  0.10532795457E+04  0.65864270000E+03 0. -1.
    8880022    1    1    2    0    0  0.13254733463E+03 -0.22706341082E+03 -0.15908719158E+02  0.30458386171E+03  0.15294330000E+03 0.  0.
<mgrwt>
<rscale>  0 0.57391285E+03</rscale>
<asrwt>0</asrwt>
<pdfrwt beam="1">  1        2 0.16557909E+00 0.70918037E+03</pdfrwt>
<pdfrwt beam="2">  1       -2 0.43322972E-01 0.70918037E+03</pdfrwt>
<totfact> 0.11574643E+02</totfact>
</mgrwt>
</event>
<event>
 4    1  0.9654646E-007  0.1455758E+04  0.7818608E-02  0.8941525E-01
         -2   -1    0    0    0  501 -0.00000000000E+00  0.00000000000E+00  0.18550887755E+04  0.18550887755E+04  0.25500000000E-02 0.  1.
          2   -1    0    0  501    0  0.00000000000E+00 -0.00000000000E+00 -0.16613610937E+04  0.16613610937E+04  0.25500000000E-02 0. -1.
    8880023    1    1    2    0    0 -0.11490231035E+04  0.60429064598E+03  0.11840314501E+04  0.18764759413E+04  0.65864270000E+03 0.  0.
    8880022    1    1    2    0    0  0.11490231035E+04 -0.60429064598E+03 -0.99030376840E+03  0.16399739278E+04  0.15294330000E+03 0.  0.
<mgrwt>
<rscale>  0 0.14171105E+04</rscale>
<asrwt>0</asrwt>
<pdfrwt beam="1">  1        2 0.25559401E+00 0.14557580E+04</pdfrwt>
<pdfrwt beam="2">  1       -2 0.28539827E+00 0.14557580E+04</pdfrwt>
<totfact> 0.37972580E-01</totfact>
</mgrwt>
</event>
<event>
 4    1  0.9654646E-007  0.9204387E+03  0.7818608E-02  0.9493987E-01
         -2   -1    0    0    0  501 -0.00000000000E+00  0.00000000000E+00  0.56710841541E+03  0.56710841542E+03  0.25500000000E-02 0.  1.
          2   -1    0    0  501    0  0.00000000000E+00 -0.00000000000E+00 -0.13493281052E+04  0.13493281052E+04  0.25500000000E-02 0. -1.
    8880023    1    1    2    0    0  0.27890339751E+03 -0.57931866386E+03 -0.38143272238E+02  0.92122870934E+03  0.65864270000E+03 0.  1.
    8880022    1    1    2    0    0 -0.27890339751E+03  0.57931866386E+03 -0.74407641751E+03  0.99520781123E+03  0.15294330000E+03 0. -1.
<mgrwt>
<rscale>  0 0.84728614E+03</rscale>
<asrwt>0</asrwt>
<pdfrwt beam="1">  1        2 0.20758894E+00 0.92043871E+03</pdfrwt>
<pdfrwt beam="2">  1       -2 0.87247449E-01 0.92043871E+03</pdfrwt>
<totfact> 0.17620096E+01</totfact>
</mgrwt>
</event>
<event>
 4    1  0.9654646E-007  0.9836835E+03  0.7818608E-02  0.9403223E-01
          2   -1    0    0  501    0  0.00000000000E+00  0.00000000000E+00  0.30457408404E+04  0.30457408404E+04  0.25500000000E-02 0. -1.
         -2   -1    0    0    0  501 -0.00000000000E+00 -0.00000000000E+00 -0.47498111083E+03  0.47498111084E+03  0.25500000000E-02 0.  1.
    8880023    1    1    2    0    0  0.23940623515E+03  0.69029534919E+03  0.15946183116E+03  0.99652460903E+03  0.65864270000E+03 0.  1.
    8880022    1    1    2    0    0 -0.23940623515E+03 -0.69029534919E+03  0.24112978984E+04  0.25241973422E+04  0.15294330000E+03 0.  0.
<mgrwt>
<rscale>  0 0.91810924E+03</rscale>
<asrwt>0</asrwt>
<pdfrwt beam="1">  1        2 0.46857551E+00 0.98368350E+03</pdfrwt>
<pdfrwt beam="2">  1       -2 0.73074018E-01 0.98368350E+03</pdfrwt>
<totfact> 0.28263019E+00</totfact>
</mgrwt>
</event>
<event>
 4    1  0.9654646E-007  0.7604900E+03  0.7818608E-02  0.9803841E-01
          2   -1    0    0  501    0  0.00000000000E+00  0.00000000000E+00  0.20040231631E+04  0.20040231631E+04  0.25500000000E-02 0. -1.
         -2   -1    0    0    0  501 -0.00000000000E+00 -0.00000000000E+00 -0.21024902940E+03  0.21024902941E+03  0.25500000000E-02 0.  1.
    8880023    1    1    2    0    0 -0.29382804407E+03 -0.24124649658E+03  0.65384860225E+03  0.10029272120E+04  0.65864270000E+03 0.  0.
    8880022    1    1    2    0    0  0.29382804407E+03  0.24124649658E+03  0.11399255314E+04  0.12113449805E+04  0.15294330000E+03 0.  0.
<mgrwt>
<rscale>  0 0.65156839E+03</rscale>
<asrwt>0</asrwt>
<pdfrwt beam="1">  1        2 0.30831127E+00 0.76048997E+03</pdfrwt>
<pdfrwt beam="2">  1       -2 0.32346003E-01 0.76048997E+03</pdfrwt>
<totfact> 0.60792014E+01</totfact>
</mgrwt>
</event>
<event>
 4    1  0.9654646E-007  0.8815337E+03  0.7818608E-02  0.9556351E-01
         -2   -1    0    0    0  501 -0.00000000000E+00  0.00000000000E+00  0.60163559486E+03  0.60163559486E+03  0.25500000000E-02 0.  1.
          2   -1    0    0  501    0  0.00000000000E+00 -0.00000000000E+00 -0.94427502848E+03  0.94427502849E+03  0.25500000000E-02 0. -1.
    8880023    1    1    2    0    0  0.58247009432E+03 -0.63404076922E+02 -0.77721635064E+02  0.88495330191E+03  0.65864270000E+03 0.  0.
    8880022    1    1    2    0    0 -0.58247009432E+03  0.63404076922E+02 -0.26491779856E+03  0.66095732143E+03  0.15294330000E+03 0.  0.
<mgrwt>
<rscale>  0 0.80253792E+03</rscale>
<asrwt>0</asrwt>
<pdfrwt beam="1">  1        2 0.14527308E+00 0.88153372E+03</pdfrwt>
<pdfrwt beam="2">  1       -2 0.92559323E-01 0.88153372E+03</pdfrwt>
<totfact> 0.27226451E+01</totfact>
</mgrwt>
</event>
<event>
 4    1  0.9654646E-007  0.1382454E+04  0.7818608E-02  0.8997438E-01
          2   -1    0    0  501    0  0.00000000000E+00  0.00000000000E+00  0.11850765505E+04  0.11850765505E+04  0.25500000000E-02 0. -1.
         -2   -1    0    0    0  501 -0.00000000000E+00 -0.00000000000E+00 -0.18460097175E+04  0.18460097175E+04  0.25500000000E-02 0.  1.
    8880023    1    1    2    0    0 -0.76534864641E+02  0.12130584078E+04 -0.10606633100E+04  0.17424652506E+04  0.65864270000E+03 0.  0.
    8880022    1    1    2    0    0  0.76534864641E+02 -0.12130584078E+04  0.39973014300E+03  0.12886210174E+04  0.15294330000E+03 0.  0.
<mgrwt>
<rscale>  0 0.13413029E+04</rscale>
<asrwt>0</asrwt>
<pdfrwt beam="1">  1        2 0.18231947E+00 0.13824538E+04</pdfrwt>
<pdfrwt beam="2">  1       -2 0.28400150E+00 0.13824538E+04</pdfrwt>
<totfact> 0.73558770E-01</totfact>
</mgrwt>
</event>
<event>
 4    1  0.9654646E-007  0.8334583E+03  0.7818608E-02  0.9642641E-01
         -2   -1    0    0    0  501 -0.00000000000E+00  0.00000000000E+00  0.11175856731E+04  0.11175856731E+04  0.25500000000E-02 0.  1.
          2   -1    0    0  501    0  0.00000000000E+00 -0.00000000000E+00 -0.10616364786E+04  0.10616364786E+04  0.25500000000E-02 0. -1.
    8880023    1    1    2    0    0 -0.43761600925E+03 -0.26331502567E+03  0.87084901788E+03  0.12054172690E+04  0.65864270000E+03 0.  0.
    8880022    1    1    2    0    0  0.43761600925E+03  0.26331502567E+03 -0.81489982335E+03  0.97380488262E+03  0.15294330000E+03 0.  0.
<mgrwt>
<rscale>  0 0.74537095E+03</rscale>
<asrwt>0</asrwt>
<pdfrwt beam="1">  1        2 0.16332869E+00 0.83345833E+03</pdfrwt>
<pdfrwt beam="2">  1       -2 0.17193626E+00 0.83345833E+03</pdfrwt>
<totfact> 0.48008640E+00</totfact>
</mgrwt>
</event>
<event>
 4    1  0.9654646E-007  0.7002915E+03  0.7818608E-02  0.9995994E-01
          2   -1    0    0  501    0  0.00000000000E+00  0.00000000000E+00  0.87217383785E+03  0.87217383786E+03  0.25500000000E-02 0. -1.
         -2   -1    0    0    0  501 -0.00000000000E+00 -0.00000000000E+00 -0.43046988397E+03  0.43046988398E+03  0.25500000000E-02 0.  1.
    8880023    1    1    2    0    0 -0.67544772587E+02 -0.22811322863E+03 -0.84378172965E+02  0.70535652242E+03  0.65864270000E+03 0.  0.
    8880022    1    1    2    0    0  0.67544772587E+02  0.22811322863E+03  0.52608212685E+03  0.59728719942E+03  0.15294330000E+03 0.  0.
<mgrwt>
<rscale>  0 0.55826232E+03</rscale>
<asrwt>0</asrwt>
<pdfrwt beam="1">  1        2 0.13418059E+00 0.70029147E+03</pdfrwt>
<pdfrwt beam="2">  1       -2 0.66226137E-01 0.70029147E+03</pdfrwt>
<totfact> 0.65382476E+01</totfact>
</mgrwt>
</event>
<event>
 4    1  0.9654646E-007  0.9516780E+03  0.7818608E-02  0.9447704E-01
          2   -1    0    0  501    0  0.00000000000E+00  0.00000000000E+00  0.26426279512E+04  0.26426279512E+04  0.25500000000E-02 0. -1.
         -2   -1    0    0    0  501 -0.00000000000E+00 -0.00000000000E+00 -0.31467930810E+03  0.31467930811E+03  0.25500000000E-02 0.  1.
    8880023    1    1    2    0    0 -0.21815810422E+03  0.65137385617E+03  0.69279546120E+03  0.11771391661E+04  0.65864270000E+03 0.  0.
    8880022    1    1    2    0    0  0.21815810422E+03 -0.65137385617E+03  0.16351531819E+04  0.17801680932E+04  0.15294330000E+03 0.  0.
<mgrwt>
<rscale>  0 0.88251696E+03</rscale>
<asrwt>0</asrwt>
<pdfrwt beam="1">  1        2 0.40655812E+00 0.95167803E+03</pdfrwt>
<pdfrwt beam="2">  1       -2 0.48412204E-01 0.95167803E+03</pdfrwt>
<totfact> 0.11854146E+01</totfact>
</mgrwt>
</event>
<event>
 4    1  0.9654646E-007  0.8344652E+03  0.7818608E-02  0.9640706E-01
          2   -1    0    0  501    0  0.00000000000E+00  0.00000000000E+00  0.30209437480E+04  0.30209437480E+04  0.25500000000E-02 0. -1.
         -2   -1    0    0    0  501 -0.00000000000E+00 -0.00000000000E+00 -0.21955421750E+03  0.21955421751E+03  0.25500000000E-02 0.  1.
    8880023    1    1    2    0    0  0.36605070900E+03 -0.35850925715E+03  0.75473602452E+03  0.11251482933E+04  0.65864270000E+03 0.  0.
    8880022    1    1    2    0    0 -0.36605070900E+03  0.35850925715E+03  0.20466535060E+04  0.21153496722E+04  0.15294330000E+03 0.  0.
<mgrwt>
<rscale>  0 0.74659581E+03</rscale>
<asrwt>0</asrwt>
<pdfrwt beam="1">  1        2 0.46476055E+00 0.83446523E+03</pdfrwt>
<pdfrwt beam="2">  1       -2 0.33777574E-01 0.83446523E+03</pdfrwt>
<totfact> 0.14501473E+01</totfact>
</mgrwt>
</event>
<event>
 4    1  0.9654646E-007  0.6989879E+03  0.7818608E-02  0.1000143E+00
         -2   -1    0    0    0  501 -0.00000000000E+00  0.00000000000E+00  0.20763108744E+03  0.20763108746E+03  0.25500000000E-02 0.  1.
          2   -1    0    0  501    0  0.00000000000E+00 -0.00000000000E+00 -0.14917199441E+04  0.14917199441E+04  0.25500000000E-02 0. -1.
    8880023    1    1    2    0    0 -0.19342069178E+03  0.13176626747E+03 -0.47969829810E+03  0.84775856039E+03  0.65864270000E+03 0.  0.
    8880022    1    1    2    0    0  0.19342069178E+03 -0.13176626747E+03 -0.80439055858E+03  0.85159247119E+03  0.15294330000E+03 0.  0.
<mgrwt>
<rscale>  0 0.55587762E+03</rscale>
<asrwt>0</asrwt>
<pdfrwt beam="1">  1        2 0.22949537E+00 0.69898793E+03</pdfrwt>
<pdfrwt beam="2">  1       -2 0.31943245E-01 0.69898793E+03</pdfrwt>
<totfact> 0.11948731E+02</totfact>
</mgrwt>
</event>
<event>
 4    1  0.9654646E-007  0.1020300E+04  0.7818608E-02  0.9355468E-01
         -2   -1    0    0    0  501 -0.00000000000E+00  0.00000000000E+00  0.85242120223E+03  0.85242120224E+03  0.25500000000E-02 0.  1.
          2   -1    0    0  501    0  0.00000000000E+00 -0.00000000000E+00 -0.18200986252E+04  0.18200986252E+04  0.25500000000E-02 0. -1.
    8880023    1    1    2    0    0  0.77429302779E+03 -0.87593816863E+02  0.39602145969E+03  0.10944613161E+04  0.65864270000E+03 0.  0.
    8880022    1    1    2    0    0 -0.77429302779E+03  0.87593816863E+02 -0.13636988827E+04  0.15780585114E+04  0.15294330000E+03 0.  0.
<mgrwt>
<rscale>  0 0.95832920E+03</rscale>
<asrwt>0</asrwt>
<pdfrwt beam="1">  1        2 0.28001517E+00 0.10203002E+04</pdfrwt>
<pdfrwt beam="2">  1       -2 0.13114172E+00 0.10203002E+04</pdfrwt>
<totfact> 0.35500064E+00</totfact>
</mgrwt>
</event>
<event>
 4    1  0.9654646E-007  0.7111141E+03  0.7818608E-02  0.9953887E-01
          2   -1    0    0  501    0  0.00000000000E+00  0.00000000000E+00  0.32431926305E+04  0.32431926305E+04  0.25500000000E-02 0. -1.
         -2   -1    0    0    0  501 -0.00000000000E+00 -0.00000000000E+00 -0.17782362965E+03  0.17782362967E+03  0.25500000000E-02 0.  1.
    8880023    1    1    2    0    0 -0.25184519753E+03 -0.91907748160E+02  0.58304864566E+03  0.91958086494E+03  0.65864270000E+03 0.  1.
    8880022    1    1    2    0    0  0.25184519753E+03  0.91907748160E+02  0.24823203552E+04  0.25014353952E+04  0.15294330000E+03 0.  0.
<mgrwt>
<rscale>  0 0.57719287E+03</rscale>
<asrwt>0</asrwt>
<pdfrwt beam="1">  1        2 0.49895269E+00 0.71111409E+03</pdfrwt>
<pdfrwt beam="2">  1       -2 0.27357483E-01 0.71111409E+03</pdfrwt>
<totfact> 0.15892772E+01</totfact>
</mgrwt>
</event>
<event>
 4    1  0.9654646E-007  0.6859874E+03  0.7818608E-02  0.1006121E+00
          2   -1    0    0  501    0  0.00000000000E+00  0.00000000000E+00  0.50693041273E+03  0.50693041274E+03  0.25500000000E-02 0. -1.
         -2   -1    0    0    0  501 -0.00000000000E+00 -0.00000000000E+00 -0.88484678424E+03  0.88484678425E+03  0.25500000000E-02 0.  1.
    8880023    1    1    2    0    0 -0.36568862531E+02 -0.18823179373E+03 -0.70452283417E+03  0.98332655817E+03  0.65864270000E+03 0.  1.
    8880022    1    1    2    0    0  0.36568862531E+02  0.18823179373E+03  0.32660646266E+03  0.40845063881E+03  0.15294330000E+03 0.  0.
<mgrwt>
<rscale>  0 0.53045764E+03</rscale>
<asrwt>0</asrwt>
<pdfrwt beam="1">  1        2 0.77989295E-01 0.68598739E+03</pdfrwt>
<pdfrwt beam="2">  1       -2 0.13613027E+00 0.68598739E+03</pdfrwt>
<totfact> 0.23835013E+01</totfact>
</mgrwt>
</event>
<event>
 4    1  0.9654646E-007  0.9391887E+03  0.7818608E-02  0.9465843E-01
          2   -1    0    0  501    0  0.00000000000E+00  0.00000000000E+00  0.96284123980E+03  0.96284123980E+03  0.25500000000E-02 0. -1.
         -2   -1    0    0    0  501 -0.00000000000E+00 -0.00000000000E+00 -0.81967710032E+03  0.81967710032E+03  0.25500000000E-02 0.  1.
    8880023    1    1    2    0    0 -0.66935594565E+03  0.15093231187E+02 -0.27479169661E+03  0.97856316628E+03  0.65864270000E+03 0.  1.
    8880022    1    1    2    0    0  0.66935594565E+03 -0.15093231187E+02  0.41795583610E+03  0.80395517384E+03  0.15294330000E+03 0.  0.
<mgrwt>
<rscale>  0 0.86849617E+03</rscale>
<asrwt>0</asrwt>
<pdfrwt beam="1">  1        2 0.14812942E+00 0.93918869E+03</pdfrwt>
<pdfrwt beam="2">  1       -2 0.12610417E+00 0.93918869E+03</pdfrwt>
<totfact> 0.12457736E+01</totfact>
</mgrwt>
</event>
<event>
 4    1  0.9654646E-007  0.6829852E+03  0.7818608E-02  0.1007683E+00
         -2   -1    0    0    0  501 -0.00000000000E+00  0.00000000000E+00  0.44736503199E+03  0.44736503200E+03  0.25500000000E-02 0.  1.
          2   -1    0    0  501    0  0.00000000000E+00 -0.00000000000E+00 -0.66608125277E+03  0.66608125277E+03  0.25500000000E-02 0. -1.
    8880023    1    1    2    0    0 -0.74435829906E+02 -0.16467527530E+03  0.12674486506E+03  0.69464602939E+03  0.65864270000E+03 0.  0.
    8880022    1    1    2    0    0  0.74435829906E+02  0.16467527530E+03 -0.34546108583E+03  0.41880025538E+03  0.15294330000E+03 0.  0.
<mgrwt>
<rscale>  0 0.52405965E+03</rscale>
<asrwt>0</asrwt>
<pdfrwt beam="1">  1        2 0.10247404E+00 0.68298525E+03</pdfrwt>
<pdfrwt beam="2">  1       -2 0.68825390E-01 0.68298525E+03</pdfrwt>
<totfact> 0.85520089E+01</totfact>
</mgrwt>
</event>
<event>
 4    1  0.9654646E-007  0.8112967E+03  0.7818608E-02  0.9686882E-01
         -2   -1    0    0    0  501 -0.00000000000E+00  0.00000000000E+00  0.16997347758E+03  0.16997347760E+03  0.25500000000E-02 0.  1.
          2   -1    0    0  501    0  0.00000000000E+00 -0.00000000000E+00 -0.34637146248E+04  0.34637146248E+04  0.25500000000E-02 0. -1.
    8880023    1    1    2    0    0 -0.35935335795E+03  0.30863782178E+03 -0.10057912772E+04  0.12922145490E+04  0.65864270000E+03 0.  1.
    8880022    1    1    2    0    0  0.35935335795E+03 -0.30863782178E+03 -0.22879498700E+04  0.23414735535E+04  0.15294330000E+03 0.  0.
<mgrwt>
<rscale>  0 0.71803216E+03</rscale>
<asrwt>0</asrwt>
<pdfrwt beam="1">  1        2 0.53287912E+00 0.81129671E+03</pdfrwt>
<pdfrwt beam="2">  1       -2 0.26149768E-01 0.81129671E+03</pdfrwt>
<totfact> 0.12130670E+01</totfact>
</mgrwt>
</event>
<event>
 4    1  0.9654646E-007  0.6622024E+03  0.7818608E-02  0.1022006E+00
          2   -1    0    0  501    0  0.00000000000E+00  0.00000000000E+00  0.82746789857E+03  0.82746789858E+03  0.25500000000E-02 0. -1.
         -2   -1    0    0    0  501 -0.00000000000E+00 -0.00000000000E+00 -0.21097400717E+03  0.21097400718E+03  0.25500000000E-02 0.  1.
    8880023    1    1    2    0    0  0.39753590942E+02 -0.55869689713E+02  0.53875933085E+03  0.85368237247E+03  0.65864270000E+03 0.  0.
    8880022    1    1    2    0    0 -0.39753590942E+02  0.55869689713E+02  0.77734560555E+02  0.18475953329E+03  0.15294330000E+03 0.  1.
<mgrwt>
<rscale>  0 0.46969791E+03</rscale>
<asrwt>0</asrwt>
<pdfrwt beam="1">  1        2 0.12730276E+00 0.66220237E+03</pdfrwt>
<pdfrwt beam="2">  1       -2 0.32457539E-01 0.66220237E+03</pdfrwt>
<totfact> 0.29448261E+02</totfact>
</mgrwt>
</event>
<event>
 4    1  0.9654646E-007  0.8440352E+03  0.7818608E-02  0.9622618E-01
          2   -1    0    0  501    0  0.00000000000E+00  0.00000000000E+00  0.15839128971E+04  0.15839128971E+04  0.25500000000E-02 0. -1.
         -2   -1    0    0    0  501 -0.00000000000E+00 -0.00000000000E+00 -0.12626270485E+04  0.12626270485E+04  0.25500000000E-02 0.  1.
    8880023    1    1    2    0    0 -0.36970880650E+03  0.37669700437E+03 -0.10629020662E+04  0.13572605657E+04  0.65864270000E+03 0.  0.
    8880022    1    1    2    0    0  0.36970880650E+03 -0.37669700437E+03  0.13841879148E+04  0.14892793798E+04  0.15294330000E+03 0.  0.
<mgrwt>
<rscale>  0 0.75817095E+03</rscale>
<asrwt>0</asrwt>
<pdfrwt beam="1">  1        2 0.24367891E+00 0.84403521E+03</pdfrwt>
<pdfrwt beam="2">  1       -2 0.19425032E+00 0.84403521E+03</pdfrwt>
<totfact> 0.16807104E+00</totfact>
</mgrwt>
</event>
<event>
 4    1  0.9654646E-007  0.7089645E+03  0.7818608E-02  0.9961866E-01
          2   -1    0    0  501    0  0.00000000000E+00  0.00000000000E+00  0.23447656051E+04  0.23447656051E+04  0.25500000000E-02 0. -1.
         -2   -1    0    0    0  501 -0.00000000000E+00 -0.00000000000E+00 -0.27391490689E+03  0.27391490690E+03  0.25500000000E-02 0.  1.
    8880023    1    1    2    0    0 -0.16335278114E+03 -0.20527132501E+03  0.21888572544E+03  0.74198491564E+03  0.65864270000E+03 0.  0.
    8880022    1    1    2    0    0  0.16335278114E+03  0.20527132501E+03  0.18519649728E+04  0.18766955964E+04  0.15294330000E+03 0. -1.
<mgrwt>
<rscale>  0 0.57354415E+03</rscale>
<asrwt>0</asrwt>
<pdfrwt beam="1">  1        2 0.36073318E+00 0.70896449E+03</pdfrwt>
<pdfrwt beam="2">  1       -2 0.42140754E-01 0.70896449E+03</pdfrwt>
<totfact> 0.23901481E+01</totfact>
</mgrwt>
</event>
<event>
 4    1  0.9654646E-007  0.8783137E+03  0.7818608E-02  0.9561782E-01
         -2   -1    0    0    0  501 -0.00000000000E+00  0.00000000000E+00  0.26664863471E+03  0.26664863473E+03  0.25500000000E-02 0.  1.
          2   -1    0    0  501    0  0.00000000000E+00 -0.00000000000E+00 -0.20950853182E+04  0.20950853182E+04  0.25500000000E-02 0. -1.
    8880023    1    1    2    0    0 -0.44340985115E+02 -0.57936050718E+03 -0.12498572999E+04  0.15276053799E+04  0.65864270000E+03 0.  1.
    8880022    1    1    2    0    0  0.44340985115E+02  0.57936050718E+03 -0.57857938354E+03  0.83412857301E+03  0.15294330000E+03 0. -1.
<mgrwt>
<rscale>  0 0.79878169E+03</rscale>
<asrwt>0</asrwt>
<pdfrwt beam="1">  1        2 0.32232081E+00 0.87831368E+03</pdfrwt>
<pdfrwt beam="2">  1       -2 0.41022868E-01 0.87831368E+03</pdfrwt>
<totfact> 0.33877420E+01</totfact>
</mgrwt>
</event>
<event>
 4    1  0.9654646E-007  0.6708980E+03  0.7818608E-02  0.1015027E+00
          2   -1    0    0  501    0  0.00000000000E+00  0.00000000000E+00  0.39016141522E+03  0.39016141523E+03  0.25500000000E-02 0. -1.
         -2   -1    0    0    0  501 -0.00000000000E+00 -0.00000000000E+00 -0.64608885338E+03  0.64608885339E+03  0.25500000000E-02 0.  1.
    8880023    1    1    2    0    0  0.11298580608E+03 -0.59398014118E+02 -0.40836313686E+03  0.78540726650E+03  0.65864270000E+03 0.  1.
    8880022    1    1    2    0    0 -0.11298580608E+03  0.59398014118E+02  0.15243569870E+03  0.25084300211E+03  0.15294330000E+03 0.  0.
<mgrwt>
<rscale>  0 0.49524654E+03</rscale>
<asrwt>0</asrwt>
<pdfrwt beam="1">  1        2 0.60024833E-01 0.67089800E+03</pdfrwt>
<pdfrwt beam="2">  1       -2 0.99398285E-01 0.67089800E+03</pdfrwt>
<totfact> 0.69589092E+01</totfact>
</mgrwt>
</event>
<event>
 4    1  0.9654646E-007  0.7800719E+03  0.7818608E-02  0.9755668E-01
         -2   -1    0    0    0  501 -0.00000000000E+00  0.00000000000E+00  0.13429445165E+04  0.13429445165E+04  0.25500000000E-02 0.  1.
          2   -1    0    0  501    0  0.00000000000E+00 -0.00000000000E+00 -0.53129019781E+03  0.53129019782E+03  0.25500000000E-02 0. -1.
    8880023    1    1    2    0    0  0.19053260337E+03  0.37202061019E+03  0.10966056683E+04  0.13457548831E+04  0.65864270000E+03 0.  0.
    8880022    1    1    2    0    0 -0.19053260337E+03 -0.37202061019E+03 -0.28495134961E+03  0.52847983123E+03  0.15294330000E+03 0.  0.
<mgrwt>
<rscale>  0 0.67796896E+03</rscale>
<asrwt>0</asrwt>
<pdfrwt beam="1">  1        2 0.81736955E-01 0.78007193E+03</pdfrwt>
<pdfrwt beam="2">  1       -2 0.20660685E+00 0.78007193E+03</pdfrwt>
<totfact> 0.70259533E+00</totfact>
</mgrwt>
</event>
<event>
 4    1  0.1346014E-006  0.7297003E+03  0.7818608E-02  0.9891034E-01
         -2   -1    0    0    0  501 -0.00000000000E+00  0.00000000000E+00  0.12945737483E+04  0.12945737483E+04  0.25500000000E-02 0.  1.
          2   -1    0    0  501    0  0.00000000000E+00 -0.00000000000E+00 -0.30770389451E+04  0.30770389451E+04  0.25500000000E-02 0. -1.
    8880023    1    1    2    0    0  0.23251475029E+03 -0.21116153175E+03  0.11806650174E+04  0.13879597945E+04  0.65864270000E+03 0.  1.
    8880022    1    1    2    0    0 -0.23251475029E+03  0.21116153175E+03 -0.29631302142E+04  0.29836528989E+04  0.15294330000E+03 0.  0.
<mgrwt>
<rscale>  0 0.60697796E+03</rscale>
<asrwt>0</asrwt>
<pdfrwt beam="1">  1        2 0.47339061E+00 0.72970029E+03</pdfrwt>
<pdfrwt beam="2">  1       -2 0.19916519E+00 0.72970029E+03</pdfrwt>
<totfact> 0.22738460E-01</totfact>
</mgrwt>
</event>
<event>
 4    1  0.9654646E-007  0.8172259E+03  0.7818608E-02  0.9674718E-01
         -2   -1    0    0    0  501 -0.00000000000E+00  0.00000000000E+00  0.34664407303E+03  0.34664407304E+03  0.25500000000E-02 0.  1.
          2   -1    0    0  501    0  0.00000000000E+00 -0.00000000000E+00 -0.21612570945E+04  0.21612570945E+04  0.25500000000E-02 0. -1.
    8880023    1    1    2    0    0  0.34689652397E+03  0.33721020625E+03 -0.23728788277E+03  0.85097806500E+03  0.65864270000E+03 0.  1.
    8880022    1    1    2    0    0 -0.34689652397E+03 -0.33721020625E+03 -0.15773251387E+04  0.16569231026E+04  0.15294330000E+03 0.  0.
<mgrwt>
<rscale>  0 0.72542245E+03</rscale>
<asrwt>0</asrwt>
<pdfrwt beam="1">  1        2 0.33250108E+00 0.81722587E+03</pdfrwt>
<pdfrwt beam="2">  1       -2 0.53329859E-01 0.81722587E+03</pdfrwt>
<totfact> 0.18504819E+01</totfact>
</mgrwt>
</event>
<event>
 4    1  0.9654646E-007  0.7158783E+03  0.7818608E-02  0.9936787E-01
          2   -1    0    0  501    0  0.00000000000E+00  0.00000000000E+00  0.29257679823E+04  0.29257679823E+04  0.25500000000E-02 0. -1.
         -2   -1    0    0    0  501 -0.00000000000E+00 -0.00000000000E+00 -0.13348537346E+03  0.13348537349E+03  0.25500000000E-02 0.  1.
    8880023    1    1    2    0    0 -0.13469675111E+03 -0.24602497435E+03  0.95029100836E+03  0.11897624593E+04  0.65864270000E+03 0.  1.
    8880022    1    1    2    0    0  0.13469675111E+03  0.24602497435E+03  0.18419916005E+04  0.18694908965E+04  0.15294330000E+03 0.  0.
<mgrwt>
<rscale>  0 0.58511066E+03</rscale>
<asrwt>0</asrwt>
<pdfrwt beam="1">  1        2 0.45011813E+00 0.71587828E+03</pdfrwt>
<pdfrwt beam="2">  1       -2 0.20536212E-01 0.71587828E+03</pdfrwt>
<totfact> 0.41781570E+01</totfact>
</mgrwt>
</event>
<event>
 4    1  0.9654646E-007  0.7635858E+03  0.7818608E-02  0.9795911E-01
         -2   -1    0    0    0  501 -0.00000000000E+00  0.00000000000E+00  0.17900786432E+03  0.17900786433E+03  0.25500000000E-02 0.  1.
          2   -1    0    0  501    0  0.00000000000E+00 -0.00000000000E+00 -0.21075214511E+04  0.21075214511E+04  0.25500000000E-02 0. -1.
    8880023    1    1    2    0    0 -0.38606152604E+03 -0.14475239248E+02 -0.15341313911E+04  0.17136575988E+04  0.65864270000E+03 0.  0.
    8880022    1    1    2    0    0  0.38606152604E+03  0.14475239248E+02 -0.39438219564E+03  0.57287171661E+03  0.15294330000E+03 0.  0.
<mgrwt>
<rscale>  0 0.65582433E+03</rscale>
<asrwt>0</asrwt>
<pdfrwt beam="1">  1        2 0.32423405E+00 0.76358578E+03</pdfrwt>
<pdfrwt beam="2">  1       -2 0.27539673E-01 0.76358578E+03</pdfrwt>
<totfact> 0.71891666E+01</totfact>
</mgrwt>
</event>
<event>
 4    1  0.9654646E-007  0.9393913E+03  0.7818608E-02  0.9465545E-01
          2   -1    0    0  501    0  0.00000000000E+00  0.00000000000E+00  0.28897897156E+04  0.28897897156E+04  0.25500000000E-02 0. -1.
         -2   -1    0    0    0  501 -0.00000000000E+00 -0.00000000000E+00 -0.31354804026E+03  0.31354804027E+03  0.25500000000E-02 0.  1.
    8880023    1    1    2    0    0  0.41304196277E+03  0.52729706846E+03  0.22590910932E+04  0.24466198387E+04  0.65864270000E+03 0.  0.
    8880022    1    1    2    0    0 -0.41304196277E+03 -0.52729706846E+03  0.31715058212E+03  0.75671791717E+03  0.15294330000E+03 0.  0.
<mgrwt>
<rscale>  0 0.86872431E+03</rscale>
<asrwt>0</asrwt>
<pdfrwt beam="1">  1        2 0.44458301E+00 0.93939133E+03</pdfrwt>
<pdfrwt beam="2">  1       -2 0.48238163E-01 0.93939133E+03</pdfrwt>
<totfact> 0.85389454E+00</totfact>
</mgrwt>
</event>
<event>
 4    1  0.1826139E-006  0.1031327E+04  0.7818608E-02  0.9341673E-01
          2   -1    0    0  501    0  0.00000000000E+00  0.00000000000E+00  0.16717254074E+04  0.16717254074E+04  0.25500000000E-02 0. -1.
         -2   -1    0    0    0  501 -0.00000000000E+00 -0.00000000000E+00 -0.15194046555E+04  0.15194046555E+04  0.25500000000E-02 0.  1.
    8880023    1    1    2    0    0  0.78604268492E+03  0.10937307070E+03 -0.12206074001E+04  0.15979731546E+04  0.65864270000E+03 0.  1.
    8880022    1    1    2    0    0 -0.78604268492E+03 -0.10937307070E+03  0.13729281520E+04  0.15931569084E+04  0.15294330000E+03 0.  0.
<mgrwt>
<rscale>  0 0.97035256E+03</rscale>
<asrwt>0</asrwt>
<pdfrwt beam="1">  1        2 0.25718852E+00 0.10313272E+04</pdfrwt>
<pdfrwt beam="2">  1       -2 0.23375456E+00 0.10313272E+04</pdfrwt>
<totfact> 0.81803245E-01</totfact>
</mgrwt>
</event>
<event>
 4    1  0.9654646E-007  0.8597000E+03  0.7818608E-02  0.9594097E-01
         -2   -1    0    0    0  501 -0.00000000000E+00  0.00000000000E+00  0.21285430318E+04  0.21285430318E+04  0.25500000000E-02 0.  1.
          2   -1    0    0  501    0  0.00000000000E+00 -0.00000000000E+00 -0.93456904205E+03  0.93456904206E+03  0.25500000000E-02 0. -1.
    8880023    1    1    2    0    0  0.46014856743E+03 -0.30583851642E+03  0.19401743625E+04  0.21221123122E+04  0.65864270000E+03 0.  1.
    8880022    1    1    2    0    0 -0.46014856743E+03  0.30583851642E+03 -0.74620037275E+03  0.94099976171E+03  0.15294330000E+03 0.  0.
<mgrwt>
<rscale>  0 0.77688095E+03</rscale>
<asrwt>0</asrwt>
<pdfrwt beam="1">  1        2 0.14377985E+00 0.85970001E+03</pdfrwt>
<pdfrwt beam="2">  1       -2 0.32746816E+00 0.85970001E+03</pdfrwt>
<totfact> 0.61694776E-01</totfact>
</mgrwt>
</event>
<event>
 4    1  0.9654646E-007  0.9614446E+03  0.7818608E-02  0.9433836E-01
         -2   -1    0    0    0  501 -0.00000000000E+00  0.00000000000E+00  0.40885330700E+03  0.40885330701E+03  0.25500000000E-02 0.  1.
          2   -1    0    0  501    0  0.00000000000E+00 -0.00000000000E+00 -0.20309658309E+04  0.20309658309E+04  0.25500000000E-02 0. -1.
    8880023    1    1    2    0    0 -0.69526184640E+03 -0.84713990121E+02 -0.44008968848E+03  0.10573810266E+04  0.65864270000E+03 0.  0.
    8880022    1    1    2    0    0  0.69526184640E+03  0.84713990121E+02 -0.11820228354E+04  0.13824381113E+04  0.15294330000E+03 0.  0.
<mgrwt>
<rscale>  0 0.89342697E+03</rscale>
<asrwt>0</asrwt>
<pdfrwt beam="1">  1        2 0.31245628E+00 0.96144459E+03</pdfrwt>
<pdfrwt beam="2">  1       -2 0.62900510E-01 0.96144459E+03</pdfrwt>
<totfact> 0.15163203E+01</totfact>
</mgrwt>
</event>
<event>
 4    1  0.9654646E-007  0.1014952E+04  0.7818608E-02  0.9362252E-01
          2   -1    0    0  501    0  0.00000000000E+00  0.00000000000E+00  0.14952772669E+04  0.14952772669E+04  0.25500000000E-02 0. -1.
         -2   -1    0    0    0  501 -0.00000000000E+00 -0.00000000000E+00 -0.71538934933E+03  0.71538934933E+03  0.25500000000E-02 0.  1.
    8880023    1    1    2    0    0  0.26387505492E+03  0.72573195689E+03 -0.11193442038E+03  0.10211054983E+04  0.65864270000E+03 0.  0.
    8880022    1    1    2    0    0 -0.26387505492E+03 -0.72573195689E+03  0.89182233792E+03  0.11895611179E+04  0.15294330000E+03 0.  0.
<mgrwt>
<rscale>  0 0.95248358E+03</rscale>
<asrwt>0</asrwt>
<pdfrwt beam="1">  1        2 0.23004266E+00 0.10149518E+04</pdfrwt>
<pdfrwt beam="2">  1       -2 0.11005990E+00 0.10149518E+04</pdfrwt>
<totfact> 0.83231774E+00</totfact>
</mgrwt>
</event>
<event>
 4    1  0.9654646E-007  0.7296559E+03  0.7818608E-02  0.9891173E-01
         -2   -1    0    0    0  501 -0.00000000000E+00  0.00000000000E+00  0.42607386799E+03  0.42607386800E+03  0.25500000000E-02 0.  1.
          2   -1    0    0  501    0  0.00000000000E+00 -0.00000000000E+00 -0.10464837693E+04  0.10464837693E+04  0.25500000000E-02 0. -1.
    8880023    1    1    2    0    0  0.25299849799E+03 -0.18595489519E+03  0.34359705156E+02  0.73046441298E+03  0.65864270000E+03 0.  1.
    8880022    1    1    2    0    0 -0.25299849799E+03  0.18595489519E+03 -0.65476960647E+03  0.74209322433E+03  0.15294330000E+03 0.  0.
<mgrwt>
<rscale>  0 0.60690993E+03</rscale>
<asrwt>0</asrwt>
<pdfrwt beam="1">  1        2 0.16099750E+00 0.72965586E+03</pdfrwt>
<pdfrwt beam="2">  1       -2 0.65549826E-01 0.72965586E+03</pdfrwt>
<totfact> 0.51337187E+01</totfact>
</mgrwt>
</event>
<event>
 4    1  0.9654646E-007  0.9530949E+03  0.7818608E-02  0.9445675E-01
          2   -1    0    0  501    0  0.00000000000E+00  0.00000000000E+00  0.21491459325E+04  0.21491459325E+04  0.25500000000E-02 0. -1.
         -2   -1    0    0    0  501 -0.00000000000E+00 -0.00000000000E+00 -0.62658702143E+03  0.62658702144E+03  0.25500000000E-02 0.  1.
    8880023    1    1    2    0    0  0.68772924488E+03 -0.40101020563E+02 -0.14588318534E+03  0.96419485382E+03  0.65864270000E+03 0.  0.
    8880022    1    1    2    0    0 -0.68772924488E+03  0.40101020563E+02  0.16684420964E+04  0.18115381001E+04  0.15294330000E+03 0.  0.
<mgrwt>
<rscale>  0 0.88410252E+03</rscale>
<asrwt>0</asrwt>
<pdfrwt beam="1">  1        2 0.33063784E+00 0.95309486E+03</pdfrwt>
<pdfrwt beam="2">  1       -2 0.96398001E-01 0.95309486E+03</pdfrwt>
<totfact> 0.50115733E+00</totfact>
</mgrwt>
</event>
<event>
 4    1  0.9654646E-007  0.1061855E+04  0.7818608E-02  0.9304764E-01
         -2   -1    0    0    0  501 -0.00000000000E+00  0.00000000000E+00  0.56873854684E+03  0.56873854685E+03  0.25500000000E-02 0.  1.
          2   -1    0    0  501    0  0.00000000000E+00 -0.00000000000E+00 -0.24245809204E+04  0.24245809204E+04  0.25500000000E-02 0. -1.
    8880023    1    1    2    0    0 -0.61739188541E+03 -0.55906377654E+03 -0.18653852114E+04  0.21464382683E+04  0.65864270000E+03 0.  0.
    8880022    1    1    2    0    0  0.61739188541E+03  0.55906377654E+03  0.95428378208E+01  0.84688119898E+03  0.15294330000E+03 0.  0.
<mgrwt>
<rscale>  0 0.10034541E+04</rscale>
<asrwt>0</asrwt>
<pdfrwt beam="1">  1        2 0.37301244E+00 0.10618546E+04</pdfrwt>
<pdfrwt beam="2">  1       -2 0.87498240E-01 0.10618546E+04</pdfrwt>
<totfact> 0.43406561E+00</totfact>
</mgrwt>
</event>
<event>
 4    1  0.9654646E-007  0.7014560E+03  0.7818608E-02  0.9991214E-01
          2   -1    0    0  501    0  0.00000000000E+00  0.00000000000E+00  0.17587854486E+04  0.17587854486E+04  0.25500000000E-02 0. -1.
         -2   -1    0    0    0  501 -0.00000000000E+00 -0.00000000000E+00 -0.14652563278E+03  0.14652563280E+03  0.25500000000E-02 0.  1.
    8880023    1    1    2    0    0  0.24036189661E+03 -0.21364919994E+02  0.92386286214E+03  0.11599840928E+04  0.65864270000E+03 0.  0.
    8880022    1    1    2    0    0 -0.24036189661E+03  0.21364919994E+02  0.68839695365E+03  0.74532698862E+03  0.15294330000E+03 0.  0.
<mgrwt>
<rscale>  0 0.56037170E+03</rscale>
<asrwt>0</asrwt>
<pdfrwt beam="1">  1        2 0.27058239E+00 0.70145599E+03</pdfrwt>
<pdfrwt beam="2">  1       -2 0.22542404E-01 0.70145599E+03</pdfrwt>
<totfact> 0.16085482E+02</totfact>
</mgrwt>
</event>
<event>
 4    1  0.9654646E-007  0.1289269E+04  0.7818608E-02  0.9074882E-01
         -2   -1    0    0    0  501 -0.00000000000E+00  0.00000000000E+00  0.18814040275E+04  0.18814040275E+04  0.25500000000E-02 0.  1.
          2   -1    0    0  501    0  0.00000000000E+00 -0.00000000000E+00 -0.13057684125E+04  0.13057684125E+04  0.25500000000E-02 0. -1.
    8880023    1    1    2    0    0  0.29841617242E+03 -0.10674045268E+04  0.13185688561E+04  0.18441362939E+04  0.65864270000E+03 0.  0.
    8880022    1    1    2    0    0 -0.29841617242E+03  0.10674045268E+04 -0.74293324116E+03  0.13430361461E+04  0.15294330000E+03 0.  0.
<mgrwt>
<rscale>  0 0.12443696E+04</rscale>
<asrwt>0</asrwt>
<pdfrwt beam="1">  1        2 0.20088745E+00 0.12892691E+04</pdfrwt>
<pdfrwt beam="2">  1       -2 0.28944677E+00 0.12892691E+04</pdfrwt>
<totfact> 0.58347269E-01</totfact>
</mgrwt>
</event>
<event>
 4    1  0.9654646E-007  0.7027448E+03  0.7818608E-02  0.9986000E-01
         -2   -1    0    0    0  501 -0.00000000000E+00  0.00000000000E+00  0.10134138007E+03  0.10134138010E+03  0.25500000000E-02 0.  1.
          2   -1    0    0  501    0  0.00000000000E+00 -0.00000000000E+00 -0.25546318690E+04  0.25546318690E+04  0.25500000000E-02 0. -1.
    8880023    1    1    2    0    0  0.19224825709E+03  0.15192304188E+03 -0.14401340857E+04  0.16024470019E+04  0.65864270000E+03 0.  0.
    8880022    1    1    2    0    0 -0.19224825709E+03 -0.15192304188E+03 -0.10131564033E+04  0.10535262472E+04  0.15294330000E+03 0.  1.
<mgrwt>
<rscale>  0 0.56268401E+03</rscale>
<asrwt>0</asrwt>
<pdfrwt beam="1">  1        2 0.39302024E+00 0.70274477E+03</pdfrwt>
<pdfrwt beam="2">  1       -2 0.15590983E-01 0.70274477E+03</pdfrwt>
<totfact> 0.11100051E+02</totfact>
</mgrwt>
</event>
<event>
 4    1  0.9654646E-007  0.1161858E+04  0.7818608E-02  0.9195121E-01
          2   -1    0    0  501    0  0.00000000000E+00  0.00000000000E+00  0.36931928283E+04  0.36931928283E+04  0.25500000000E-02 0. -1.
         -2   -1    0    0    0  501 -0.00000000000E+00 -0.00000000000E+00 -0.98574693467E+03  0.98574693467E+03  0.25500000000E-02 0.  1.
    8880023    1    1    2    0    0  0.76067394959E+03 -0.58092937131E+03 -0.54630500220E+03  0.12838859582E+04  0.65864270000E+03 0.  1.
    8880022    1    1    2    0    0 -0.76067394959E+03  0.58092937131E+03  0.32537508959E+04  0.33950538048E+04  0.15294330000E+03 0.  0.
<mgrwt>
<rscale>  0 0.11103928E+04</rscale>
<asrwt>0</asrwt>
<pdfrwt beam="1">  1        2 0.56818351E+00 0.11618580E+04</pdfrwt>
<pdfrwt beam="2">  1       -2 0.15165337E+00 0.11618580E+04</pdfrwt>
<totfact> 0.17284771E-01</totfact>
</mgrwt>
</event>
<event>
 4    1  0.9654646E-007  0.1000576E+04  0.7818608E-02  0.9380805E-01
         -2   -1    0    0    0  501 -0.00000000000E+00  0.00000000000E+00  0.50980192098E+03  0.50980192099E+03  0.25500000000E-02 0.  1.
          2   -1    0    0  501    0  0.00000000000E+00 -0.00000000000E+00 -0.20725744860E+04  0.20725744860E+04  0.25500000000E-02 0. -1.
    8880023    1    1    2    0    0 -0.50569846315E+03 -0.55822072791E+03 -0.20380844696E+03  0.10211216411E+04  0.65864270000E+03 0.  0.
    8880022    1    1    2    0    0  0.50569846315E+03  0.55822072791E+03 -0.13589641181E+04  0.15612547659E+04  0.15294330000E+03 0.  0.
<mgrwt>
<rscale>  0 0.93672332E+03</rscale>
<asrwt>0</asrwt>
<pdfrwt beam="1">  1        2 0.31885761E+00 0.10005756E+04</pdfrwt>
<pdfrwt beam="2">  1       -2 0.78431066E-01 0.10005756E+04</pdfrwt>
<totfact> 0.88249824E+00</totfact>
</mgrwt>
</event>
<event>
 4    1  0.9654646E-007  0.1268151E+04  0.7818608E-02  0.9093564E-01
          2   -1    0    0  501    0  0.00000000000E+00  0.00000000000E+00  0.16559991371E+04  0.16559991371E+04  0.25500000000E-02 0. -1.
         -2   -1    0    0    0  501 -0.00000000000E+00 -0.00000000000E+00 -0.98461528265E+03  0.98461528266E+03  0.25500000000E-02 0.  1.
    8880023    1    1    2    0    0  0.65906871580E+03 -0.86024657833E+03 -0.14333686349E+03  0.12762254544E+04  0.65864270000E+03 0.  1.
    8880022    1    1    2    0    0 -0.65906871580E+03  0.86024657833E+03  0.81472071796E+03  0.13643889654E+04  0.15294330000E+03 0. -1.
<mgrwt>
<rscale>  0 0.12222938E+04</rscale>
<asrwt>0</asrwt>
<pdfrwt beam="1">  1        2 0.25476910E+00 0.12681506E+04</pdfrwt>
<pdfrwt beam="2">  1       -2 0.15147927E+00 0.12681506E+04</pdfrwt>
<totfact> 0.29242029E+00</totfact>
</mgrwt>
</event>
<event>
 4    1  0.9654646E-007  0.6948241E+03  0.7818608E-02  0.1001939E+00
         -2   -1    0    0    0  501 -0.00000000000E+00  0.00000000000E+00  0.67601306234E+02  0.67601306282E+02  0.25500000000E-02 0.  1.
          2   -1    0    0  501    0  0.00000000000E+00 -0.00000000000E+00 -0.38527581804E+04  0.38527581804E+04  0.25500000000E-02 0. -1.
    8880023    1    1    2    0    0  0.21557724641E+03  0.49967347551E+02 -0.20518547447E+04  0.21663075462E+04  0.65864270000E+03 0.  1.
    8880022    1    1    2    0    0 -0.21557724641E+03 -0.49967347551E+02 -0.17333021294E+04  0.17540519405E+04  0.15294330000E+03 0.  0.
<mgrwt>
<rscale>  0 0.54808121E+03</rscale>
<asrwt>0</asrwt>
<pdfrwt beam="1">  1        2 0.59273186E+00 0.69482407E+03</pdfrwt>
<pdfrwt beam="2">  1       -2 0.10400204E-01 0.69482407E+03</pdfrwt>
<totfact> 0.31800603E+01</totfact>
</mgrwt>
</event>
<event>
 4    1  0.9654646E-007  0.8947457E+03  0.7818608E-02  0.9534520E-01
         -2   -1    0    0    0  501 -0.00000000000E+00  0.00000000000E+00  0.43753693403E+03  0.43753693403E+03  0.25500000000E-02 0.  1.
          2   -1    0    0  501    0  0.00000000000E+00 -0.00000000000E+00 -0.15075382721E+04  0.15075382721E+04  0.25500000000E-02 0. -1.
    8880023    1    1    2    0    0 -0.43594230574E+03 -0.42037357165E+03 -0.27909576644E+03  0.93726425664E+03  0.65864270000E+03 0.  1.
    8880022    1    1    2    0    0  0.43594230574E+03  0.42037357165E+03 -0.79090557167E+03  0.10078109495E+04  0.15294330000E+03 0.  0.
<mgrwt>
<rscale>  0 0.81785976E+03</rscale>
<asrwt>0</asrwt>
<pdfrwt beam="1">  1        2 0.23192896E+00 0.89474568E+03</pdfrwt>
<pdfrwt beam="2">  1       -2 0.67313375E-01 0.89474568E+03</pdfrwt>
<totfact> 0.25646742E+01</totfact>
</mgrwt>
</event>
<event>
 4    1  0.9654646E-007  0.1155555E+04  0.7818608E-02  0.9201585E-01
         -2   -1    0    0    0  501 -0.00000000000E+00  0.00000000000E+00  0.11824051096E+04  0.11824051096E+04  0.25500000000E-02 0.  1.
          2   -1    0    0  501    0  0.00000000000E+00 -0.00000000000E+00 -0.10110722935E+04  0.10110722935E+04  0.25500000000E-02 0. -1.
    8880023    1    1    2    0    0  0.35083755383E+02  0.94882410389E+03  0.36625811126E+03  0.12122100727E+04  0.65864270000E+03 0.  1.
    8880022    1    1    2    0    0 -0.35083755383E+02 -0.94882410389E+03 -0.19492529518E+03  0.98126733041E+03  0.15294330000E+03 0. -1.
<mgrwt>
<rscale>  0 0.11037083E+04</rscale>
<asrwt>0</asrwt>
<pdfrwt beam="1">  1        2 0.15554958E+00 0.11555554E+04</pdfrwt>
<pdfrwt beam="2">  1       -2 0.18190848E+00 0.11555554E+04</pdfrwt>
<totfact> 0.42571481E+00</totfact>
</mgrwt>
</event>
<event>
 4    1  0.9654646E-007  0.6625410E+03  0.7818608E-02  0.1021692E+00
          2   -1    0    0  501    0  0.00000000000E+00  0.00000000000E+00  0.17382324588E+04  0.17382324588E+04  0.25500000000E-02 0. -1.
         -2   -1    0    0    0  501 -0.00000000000E+00 -0.00000000000E+00 -0.17478993950E+03  0.17478993952E+03  0.25500000000E-02 0.  1.
    8880023    1    1    2    0    0  0.88237927425E+01 -0.71221438349E+02  0.48414723207E+03  0.82058460940E+03  0.65864270000E+03 0.  1.
    8880022    1    1    2    0    0 -0.88237927425E+01  0.71221438349E+02  0.10792952872E+04  0.10924377889E+04  0.15294330000E+03 0.  0.
<mgrwt>
<rscale>  0 0.47080940E+03</rscale>
<asrwt>0</asrwt>
<pdfrwt beam="1">  1        2 0.26742037E+00 0.66254099E+03</pdfrwt>
<pdfrwt beam="2">  1       -2 0.26890761E-01 0.66254099E+03</pdfrwt>
<totfact> 0.12067261E+02</totfact>
</mgrwt>
</event>
<event>
 4    1  0.9654646E-007  0.1047489E+04  0.7818608E-02  0.9321906E-01
          2   -1    0    0  501    0  0.00000000000E+00  0.00000000000E+00  0.12953963716E+04  0.12953963716E+04  0.25500000000E-02 0. -1.
         -2   -1    0    0    0  501 -0.00000000000E+00 -0.00000000000E+00 -0.74482942119E+03  0.74482942120E+03  0.25500000000E-02 0.  1.
    8880023    1    1    2    0    0  0.37211037425E+03 -0.72453925157E+03  0.60507939362E+03  0.12096919180E+04  0.65864270000E+03 0. -1.
    8880022    1    1    2    0    0 -0.37211037425E+03  0.72453925157E+03 -0.54512443209E+02  0.83053387478E+03  0.15294330000E+03 0.  1.
<mgrwt>
<rscale>  0 0.98790937E+03</rscale>
<asrwt>0</asrwt>
<pdfrwt beam="1">  1        2 0.19929175E+00 0.10474891E+04</pdfrwt>
<pdfrwt beam="2">  1       -2 0.11458914E+00 0.10474891E+04</pdfrwt>
<totfact> 0.97846580E+00</totfact>
</mgrwt>
</event>
<event>
 4    1  0.9654646E-007  0.7012935E+03  0.7818608E-02  0.9991877E-01
          2   -1    0    0  501    0  0.00000000000E+00  0.00000000000E+00  0.39051586468E+03  0.39051586469E+03  0.25500000000E-02 0. -1.
         -2   -1    0    0    0  501 -0.00000000000E+00 -0.00000000000E+00 -0.62685328143E+03  0.62685328143E+03  0.25500000000E-02 0.  1.
    8880023    1    1    2    0    0  0.22678919178E+03 -0.81049671203E+02 -0.20329686360E+03  0.73016587686E+03  0.65864270000E+03 0.  0.
    8880022    1    1    2    0    0 -0.22678919178E+03  0.81049671203E+02 -0.33040553145E+02  0.28720326927E+03  0.15294330000E+03 0. -1.
<mgrwt>
<rscale>  0 0.56007855E+03</rscale>
<asrwt>0</asrwt>
<pdfrwt beam="1">  1        2 0.60079364E-01 0.70129351E+03</pdfrwt>
<pdfrwt beam="2">  1       -2 0.96438967E-01 0.70129351E+03</pdfrwt>
<totfact> 0.74503007E+01</totfact>
</mgrwt>
</event>
<event>
 4    1  0.9654646E-007  0.6696923E+03  0.7818608E-02  0.1015884E+00
         -2   -1    0    0    0  501 -0.00000000000E+00  0.00000000000E+00  0.77911020472E+03  0.77911020472E+03  0.25500000000E-02 0.  1.
          2   -1    0    0  501    0  0.00000000000E+00 -0.00000000000E+00 -0.75545599531E+03  0.75545599532E+03  0.25500000000E-02 0. -1.
    8880023    1    1    2    0    0 -0.49062075916E+02 -0.11077228366E+03  0.61661416923E+03  0.91033006436E+03  0.65864270000E+03 0.  0.
    8880022    1    1    2    0    0  0.49062075916E+02  0.11077228366E+03 -0.59295995983E+03  0.62423613568E+03  0.15294330000E+03 0. -1.
<mgrwt>
<rscale>  0 0.49201491E+03</rscale>
<asrwt>0</asrwt>
<pdfrwt beam="1">  1        2 0.11622400E+00 0.66969231E+03</pdfrwt>
<pdfrwt beam="2">  1       -2 0.11986311E+00 0.66969231E+03</pdfrwt>
<totfact> 0.20227123E+01</totfact>
</mgrwt>
</event>
<event>
 4    1  0.9654646E-007  0.6667777E+03  0.7818608E-02  0.1018086E+00
         -2   -1    0    0    0  501 -0.00000000000E+00  0.00000000000E+00  0.15776762176E+03  0.15776762178E+03  0.25500000000E-02 0.  1.
          2   -1    0    0  501    0  0.00000000000E+00 -0.00000000000E+00 -0.19346625876E+04  0.19346625876E+04  0.25500000000E-02 0. -1.
    8880023    1    1    2    0    0  0.51619552898E+02 -0.90098494056E+02 -0.58726536823E+03  0.88852300807E+03  0.65864270000E+03 0.  1.
    8880022    1    1    2    0    0 -0.51619552898E+02  0.90098494056E+02 -0.11896295976E+04  0.12039072013E+04  0.15294330000E+03 0.  0.
<mgrwt>
<rscale>  0 0.48383551E+03</rscale>
<asrwt>0</asrwt>
<pdfrwt beam="1">  1        2 0.29764038E+00 0.66677772E+03</pdfrwt>
<pdfrwt beam="2">  1       -2 0.24271943E-01 0.66677772E+03</pdfrwt>
<totfact> 0.11353119E+02</totfact>
</mgrwt>
</event>
<event>
 4    1  0.9654646E-007  0.1114627E+04  0.7818608E-02  0.9244943E-01
          2   -1    0    0  501    0  0.00000000000E+00  0.00000000000E+00  0.35170563211E+04  0.35170563211E+04  0.25500000000E-02 0. -1.
         -2   -1    0    0    0  501 -0.00000000000E+00 -0.00000000000E+00 -0.36215856267E+03  0.36215856268E+03  0.25500000000E-02 0.  1.
    8880023    1    1    2    0    0  0.63295474059E+03  0.63871152227E+03  0.85418160913E+03  0.14042864878E+04  0.65864270000E+03 0.  1.
    8880022    1    1    2    0    0 -0.63295474059E+03 -0.63871152227E+03  0.23007161493E+04  0.24749283959E+04  0.15294330000E+03 0.  0.
<mgrwt>
<rscale>  0 0.10601349E+04</rscale>
<asrwt>0</asrwt>
<pdfrwt beam="1">  1        2 0.54108557E+00 0.11146274E+04</pdfrwt>
<pdfrwt beam="2">  1       -2 0.55716704E-01 0.11146274E+04</pdfrwt>
<totfact> 0.24400745E+00</totfact>
</mgrwt>
</event>
<event>
 4    1  0.9654646E-007  0.7870933E+03  0.7818608E-02  0.9739431E-01
         -2   -1    0    0    0  501 -0.00000000000E+00  0.00000000000E+00  0.54351006901E+03  0.54351006902E+03  0.25500000000E-02 0.  1.
          2   -1    0    0  501    0  0.00000000000E+00 -0.00000000000E+00 -0.10242772250E+04  0.10242772250E+04  0.25500000000E-02 0. -1.
    8880023    1    1    2    0    0 -0.41525482034E+03 -0.11519149280E+03  0.13727478786E+03  0.79897447986E+03  0.65864270000E+03 0.  1.
    8880022    1    1    2    0    0  0.41525482034E+03  0.11519149280E+03 -0.61804194381E+03  0.76881281412E+03  0.15294330000E+03 0.  0.
<mgrwt>
<rscale>  0 0.68716845E+03</rscale>
<asrwt>0</asrwt>
<pdfrwt beam="1">  1        2 0.15758111E+00 0.78709329E+03</pdfrwt>
<pdfrwt beam="2">  1       -2 0.83616934E-01 0.78709329E+03</pdfrwt>
<totfact> 0.30786600E+01</totfact>
</mgrwt>
</event>
<event>
 4    1  0.9654646E-007  0.9160719E+03  0.7818608E-02  0.9500708E-01
         -2   -1    0    0    0  501 -0.00000000000E+00  0.00000000000E+00  0.70411396579E+03  0.70411396580E+03  0.25500000000E-02 0.  1.
          2   -1    0    0  501    0  0.00000000000E+00 -0.00000000000E+00 -0.29756854530E+04  0.29756854530E+04  0.25500000000E-02 0. -1.
    8880023    1    1    2    0    0 -0.41671971058E+03 -0.48137528086E+03  0.34776123300E+03  0.97985996941E+03  0.65864270000E+03 0.  1.
    8880022    1    1    2    0    0  0.41671971058E+03  0.48137528086E+03 -0.26193327202E+04  0.26999394494E+04  0.15294330000E+03 0.  0.
<mgrwt>
<rscale>  0 0.84231610E+03</rscale>
<asrwt>0</asrwt>
<pdfrwt beam="1">  1        2 0.45779775E+00 0.91607188E+03</pdfrwt>
<pdfrwt beam="2">  1       -2 0.10832523E+00 0.91607188E+03</pdfrwt>
<totfact> 0.12699784E+00</totfact>
</mgrwt>
</event>
<event>
 4    1  0.9654646E-007  0.8513518E+03  0.7818608E-02  0.9609136E-01
         -2   -1    0    0    0  501 -0.00000000000E+00  0.00000000000E+00  0.42944853901E+03  0.42944853902E+03  0.25500000000E-02 0.  1.
          2   -1    0    0  501    0  0.00000000000E+00 -0.00000000000E+00 -0.21552788994E+04  0.21552788994E+04  0.25500000000E-02 0. -1.
    8880023    1    1    2    0    0 -0.20280181271E+03  0.49986114061E+03 -0.90741522984E+02  0.85617402751E+03  0.65864270000E+03 0.  1.
    8880022    1    1    2    0    0  0.20280181271E+03 -0.49986114061E+03 -0.16350888374E+04  0.17285534109E+04  0.15294330000E+03 0.  0.
<mgrwt>
<rscale>  0 0.76694445E+03</rscale>
<asrwt>0</asrwt>
<pdfrwt beam="1">  1        2 0.33158136E+00 0.85135183E+03</pdfrwt>
<pdfrwt beam="2">  1       -2 0.66069008E-01 0.85135183E+03</pdfrwt>
<totfact> 0.11808694E+01</totfact>
</mgrwt>
</event>
<event>
 4    1  0.9654646E-007  0.7421671E+03  0.7818608E-02  0.9853679E-01
         -2   -1    0    0    0  501 -0.00000000000E+00  0.00000000000E+00  0.46358377888E+03  0.46358377889E+03  0.25500000000E-02 0.  1.
          2   -1    0    0  501    0  0.00000000000E+00 -0.00000000000E+00 -0.90145544674E+03  0.90145544674E+03  0.25500000000E-02 0. -1.
    8880023    1    1    2    0    0  0.32130940155E+03 -0.11731161593E+03  0.56963480989E+02  0.74434991180E+03  0.65864270000E+03 0.  1.
    8880022    1    1    2    0    0 -0.32130940155E+03  0.11731161593E+03 -0.49483514885E+03  0.62068931384E+03  0.15294330000E+03 0. -1.
<mgrwt>
<rscale>  0 0.62559691E+03</rscale>
<asrwt>0</asrwt>
<pdfrwt beam="1">  1        2 0.13868545E+00 0.74216707E+03</pdfrwt>
<pdfrwt beam="2">  1       -2 0.71320582E-01 0.74216707E+03</pdfrwt>
<totfact> 0.52988572E+01</totfact>
</mgrwt>
</event>
<event>
 4    1  0.9654646E-007  0.6670171E+03  0.7818608E-02  0.1017898E+00
          2   -1    0    0  501    0  0.00000000000E+00  0.00000000000E+00  0.14406783996E+04  0.14406783996E+04  0.25500000000E-02 0. -1.
         -2   -1    0    0    0  501 -0.00000000000E+00 -0.00000000000E+00 -0.23446364045E+03  0.23446364047E+03  0.25500000000E-02 0.  1.
    8880023    1    1    2    0    0  0.69347333458E+02 -0.79325614037E+02  0.26820041351E+03  0.71891812731E+03  0.65864270000E+03 0.  1.
    8880022    1    1    2    0    0 -0.69347333458E+02  0.79325614037E+02  0.93801434561E+03  0.95622391274E+03  0.15294330000E+03 0.  0.
<mgrwt>
<rscale>  0 0.48452870E+03</rscale>
<asrwt>0</asrwt>
<pdfrwt beam="1">  1        2 0.22164283E+00 0.66701710E+03</pdfrwt>
<pdfrwt beam="2">  1       -2 0.36071329E-01 0.66701710E+03</pdfrwt>
<totfact> 0.10168844E+02</totfact>
</mgrwt>
</event>
<event>
 4    1  0.9654646E-007  0.6909216E+03  0.7818608E-02  0.1003718E+00
         -2   -1    0    0    0  501 -0.00000000000E+00  0.00000000000E+00  0.21701616350E+04  0.21701616350E+04  0.25500000000E-02 0.  1.
          2   -1    0    0  501    0  0.00000000000E+00 -0.00000000000E+00 -0.45605401401E+03  0.45605401401E+03  0.25500000000E-02 0. -1.
    8880023    1    1    2    0    0  0.87455329890E+01  0.20853286115E+03  0.20722391719E+04  0.21843872895E+04  0.65864270000E+03 0.  1.
    8880022    1    1    2    0    0 -0.87455329890E+01 -0.20853286115E+03 -0.35813155091E+03  0.44182835955E+03  0.15294330000E+03 0.  0.
<mgrwt>
<rscale>  0 0.54049753E+03</rscale>
<asrwt>0</asrwt>
<pdfrwt beam="1">  1        2 0.70162157E-01 0.69092159E+03</pdfrwt>
<pdfrwt beam="2">  1       -2 0.33387102E+00 0.69092159E+03</pdfrwt>
<totfact> 0.14266805E+00</totfact>
</mgrwt>
</event>
<event>
 4    1  0.9654646E-007  0.7063484E+03  0.7818608E-02  0.9971819E-01
         -2   -1    0    0    0  501 -0.00000000000E+00  0.00000000000E+00  0.60554761870E+03  0.60554761871E+03  0.25500000000E-02 0.  1.
          2   -1    0    0  501    0  0.00000000000E+00 -0.00000000000E+00 -0.66107854331E+03  0.66107854332E+03  0.25500000000E-02 0. -1.
    8880023    1    1    2    0    0 -0.32665418145E+02 -0.25308252444E+03  0.33001568315E+03  0.77963988553E+03  0.65864270000E+03 0.  1.
    8880022    1    1    2    0    0  0.32665418145E+02  0.25308252444E+03 -0.38554660776E+03  0.48698627649E+03  0.15294330000E+03 0.  0.
<mgrwt>
<rscale>  0 0.56903359E+03</rscale>
<asrwt>0</asrwt>
<pdfrwt beam="1">  1        2 0.10170439E+00 0.70634836E+03</pdfrwt>
<pdfrwt beam="2">  1       -2 0.93161172E-01 0.70634836E+03</pdfrwt>
<totfact> 0.43648455E+01</totfact>
</mgrwt>
</event>
<event>
 4    1  0.9654646E-007  0.7187300E+03  0.7818608E-02  0.9926907E-01
          2   -1    0    0  501    0  0.00000000000E+00  0.00000000000E+00  0.99508988047E+03  0.99508988048E+03  0.25500000000E-02 0. -1.
         -2   -1    0    0    0  501 -0.00000000000E+00 -0.00000000000E+00 -0.27428226275E+03  0.27428226277E+03  0.25500000000E-02 0.  1.
    8880023    1    1    2    0    0  0.20125608907E+03 -0.20556904532E+03  0.48130753118E+03  0.86500276971E+03  0.65864270000E+03 0. -1.
    8880022    1    1    2    0    0 -0.20125608907E+03  0.20556904532E+03  0.23950008654E+03  0.40436937353E+03  0.15294330000E+03 0.  1.
<mgrwt>
<rscale>  0 0.58974809E+03</rscale>
<asrwt>0</asrwt>
<pdfrwt beam="1">  1        2 0.15309075E+00 0.71873003E+03</pdfrwt>
<pdfrwt beam="2">  1       -2 0.42197270E-01 0.71873003E+03</pdfrwt>
<totfact> 0.13698361E+02</totfact>
</mgrwt>
</event>
<event>
 4    1  0.9654646E-007  0.6812797E+03  0.7818608E-02  0.1008609E+00
         -2   -1    0    0    0  501 -0.00000000000E+00  0.00000000000E+00  0.10169472358E+03  0.10169472362E+03  0.25500000000E-02 0.  1.
          2   -1    0    0  501    0  0.00000000000E+00 -0.00000000000E+00 -0.27337642561E+04  0.27337642561E+04  0.25500000000E-02 0. -1.
    8880023    1    1    2    0    0  0.14164614504E+03 -0.10133218729E+03 -0.11601033823E+04  0.13453556803E+04  0.65864270000E+03 0.  1.
    8880022    1    1    2    0    0 -0.14164614504E+03  0.10133218729E+03 -0.14719661502E+04  0.14901032994E+04  0.15294330000E+03 0.  0.
<mgrwt>
<rscale>  0 0.52031294E+03</rscale>
<asrwt>0</asrwt>
<pdfrwt beam="1">  1        2 0.42057906E+00 0.68127971E+03</pdfrwt>
<pdfrwt beam="2">  1       -2 0.15645344E-01 0.68127971E+03</pdfrwt>
<totfact> 0.87251905E+01</totfact>
</mgrwt>
</event>
<event>
 4    1  0.9654646E-007  0.7034759E+03  0.7818608E-02  0.9983076E-01
          2   -1    0    0  501    0  0.00000000000E+00  0.00000000000E+00  0.27228005165E+04  0.27228005165E+04  0.25500000000E-02 0. -1.
         -2   -1    0    0    0  501 -0.00000000000E+00 -0.00000000000E+00 -0.11688260315E+03  0.11688260318E+03  0.25500000000E-02 0.  1.
    8880023    1    1    2    0    0 -0.11482558549E+03 -0.21882233420E+03  0.10980737489E+04  0.13040875328E+04  0.65864270000E+03 0.  1.
    8880022    1    1    2    0    0  0.11482558549E+03  0.21882233420E+03  0.15078441645E+04  0.15355955868E+04  0.15294330000E+03 0.  0.
<mgrwt>
<rscale>  0 0.56398579E+03</rscale>
<asrwt>0</asrwt>
<pdfrwt beam="1">  1        2 0.41889237E+00 0.70347590E+03</pdfrwt>
<pdfrwt beam="2">  1       -2 0.17981940E-01 0.70347590E+03</pdfrwt>
<totfact> 0.69569605E+01</totfact>
</mgrwt>
</event>
<event>
 4    1  0.9654646E-007  0.7787055E+03  0.7818608E-02  0.9758887E-01
         -2   -1    0    0    0  501 -0.00000000000E+00  0.00000000000E+00  0.49445057563E+03  0.49445057564E+03  0.25500000000E-02 0.  1.
          2   -1    0    0  501    0  0.00000000000E+00 -0.00000000000E+00 -0.20720384725E+04  0.20720384725E+04  0.25500000000E-02 0. -1.
    8880023    1    1    2    0    0 -0.17035247761E+03  0.37888262839E+03  0.14137999179E+03  0.79143573401E+03  0.65864270000E+03 0.  1.
    8880022    1    1    2    0    0  0.17035247761E+03 -0.37888262839E+03 -0.17189678886E+04  0.17750533141E+04  0.15294330000E+03 0.  0.
<mgrwt>
<rscale>  0 0.67616372E+03</rscale>
<asrwt>0</asrwt>
<pdfrwt beam="1">  1        2 0.31877515E+00 0.77870548E+03</pdfrwt>
<pdfrwt beam="2">  1       -2 0.76069320E-01 0.77870548E+03</pdfrwt>
<totfact> 0.97334000E+00</totfact>
</mgrwt>
</event>
<event>
 4    1  0.9654646E-007  0.7046076E+03  0.7818608E-02  0.9978598E-01
         -2   -1    0    0    0  501 -0.00000000000E+00  0.00000000000E+00  0.34135988234E+03  0.34135988235E+03  0.25500000000E-02 0.  1.
          2   -1    0    0  501    0  0.00000000000E+00 -0.00000000000E+00 -0.20367409680E+04  0.20367409680E+04  0.25500000000E-02 0. -1.
    8880023    1    1    2    0    0 -0.18259348243E+03  0.17123474222E+03 -0.49567945443E+02  0.70634899607E+03  0.65864270000E+03 0.  1.
    8880022    1    1    2    0    0  0.18259348243E+03 -0.17123474222E+03 -0.16458131402E+04  0.16717518543E+04  0.15294330000E+03 0.  0.
<mgrwt>
<rscale>  0 0.56598705E+03</rscale>
<asrwt>0</asrwt>
<pdfrwt beam="1">  1        2 0.31334476E+00 0.70460764E+03</pdfrwt>
<pdfrwt beam="2">  1       -2 0.52516906E-01 0.70460764E+03</pdfrwt>
<totfact> 0.22702287E+01</totfact>
</mgrwt>
</event>
<event>
 4    1  0.9654646E-007  0.8312166E+03  0.7818608E-02  0.9646970E-01
          2   -1    0    0  501    0  0.00000000000E+00  0.00000000000E+00  0.12890431520E+04  0.12890431520E+04  0.25500000000E-02 0. -1.
         -2   -1    0    0    0  501 -0.00000000000E+00 -0.00000000000E+00 -0.39234866864E+03  0.39234866865E+03  0.25500000000E-02 0.  1.
    8880023    1    1    2    0    0  0.19690780761E+03  0.46726664263E+03  0.30035364802E+03  0.88381746993E+03  0.65864270000E+03 0.  0.
    8880022    1    1    2    0    0 -0.19690780761E+03 -0.46726664263E+03  0.59634083534E+03  0.79757435072E+03  0.15294330000E+03 0.  0.
<mgrwt>
<rscale>  0 0.74263896E+03</rscale>
<asrwt>0</asrwt>
<pdfrwt beam="1">  1        2 0.19831433E+00 0.83121658E+03</pdfrwt>
<pdfrwt beam="2">  1       -2 0.60361334E-01 0.83121658E+03</pdfrwt>
<totfact> 0.43390079E+01</totfact>
</mgrwt>
</event>
<event>
 4    1  0.9654646E-007  0.1120235E+04  0.7818608E-02  0.9238855E-01
         -2   -1    0    0    0  501 -0.00000000000E+00  0.00000000000E+00  0.20346423786E+04  0.20346423786E+04  0.25500000000E-02 0.  1.
          2   -1    0    0  501    0  0.00000000000E+00 -0.00000000000E+00 -0.18111532470E+04  0.18111532470E+04  0.25500000000E-02 0. -1.
    8880023    1    1    2    0    0  0.48970457262E+03 -0.76243405257E+03  0.17418557356E+04  0.20709871711E+04  0.65864270000E+03 0.  0.
    8880022    1    1    2    0    0 -0.48970457262E+03  0.76243405257E+03 -0.15183666040E+04  0.17748084545E+04  0.15294330000E+03 0.  0.
<mgrwt>
<rscale>  0 0.10661230E+04</rscale>
<asrwt>0</asrwt>
<pdfrwt beam="1">  1        2 0.27863896E+00 0.11202350E+04</pdfrwt>
<pdfrwt beam="2">  1       -2 0.31302190E+00 0.11202350E+04</pdfrwt>
<totfact> 0.22253793E-01</totfact>
</mgrwt>
</event>
<event>
 4    1  0.9654646E-007  0.7266688E+03  0.7818608E-02  0.9900635E-01
          2   -1    0    0  501    0  0.00000000000E+00  0.00000000000E+00  0.12167093287E+04  0.12167093287E+04  0.25500000000E-02 0. -1.
         -2   -1    0    0    0  501 -0.00000000000E+00 -0.00000000000E+00 -0.44396129036E+03  0.44396129037E+03  0.25500000000E-02 0.  1.
    8880023    1    1    2    0    0 -0.27475082700E+03 -0.13692825180E+03 -0.90028422180E+02  0.73222447797E+03  0.65864270000E+03 0.  1.
    8880022    1    1    2    0    0  0.27475082700E+03  0.13692825180E+03  0.86277646048E+03  0.92844614106E+03  0.15294330000E+03 0.  0.
<mgrwt>
<rscale>  0 0.60230532E+03</rscale>
<asrwt>0</asrwt>
<pdfrwt beam="1">  1        2 0.18718605E+00 0.72666882E+03</pdfrwt>
<pdfrwt beam="2">  1       -2 0.68301738E-01 0.72666882E+03</pdfrwt>
<totfact> 0.37065446E+01</totfact>
</mgrwt>
</event>
<event>
 4    1  0.9654646E-007  0.7194234E+03  0.7818608E-02  0.9924542E-01
         -2   -1    0    0    0  501 -0.00000000000E+00  0.00000000000E+00  0.38090445641E+03  0.38090445642E+03  0.25500000000E-02 0.  1.
          2   -1    0    0  501    0  0.00000000000E+00 -0.00000000000E+00 -0.16271278051E+04  0.16271278051E+04  0.25500000000E-02 0. -1.
    8880023    1    1    2    0    0  0.33612419099E+02  0.28745430976E+03  0.11586304852E+00  0.71942337647E+03  0.65864270000E+03 0.  1.
    8880022    1    1    2    0    0 -0.33612419099E+02 -0.28745430976E+03 -0.12463392118E+04  0.12886088851E+04  0.15294330000E+03 0.  0.
<mgrwt>
<rscale>  0 0.59086484E+03</rscale>
<asrwt>0</asrwt>
<pdfrwt beam="1">  1        2 0.25032735E+00 0.71942337E+03</pdfrwt>
<pdfrwt beam="2">  1       -2 0.58600686E-01 0.71942337E+03</pdfrwt>
<totfact> 0.30173372E+01</totfact>
</mgrwt>
</event>
<event>
 4    1  0.9654646E-007  0.9091871E+03  0.7818608E-02  0.9511441E-01
          2   -1    0    0  501    0  0.00000000000E+00  0.00000000000E+00  0.13163939952E+04  0.13163939952E+04  0.25500000000E-02 0. -1.
         -2   -1    0    0    0  501 -0.00000000000E+00 -0.00000000000E+00 -0.98590387761E+03  0.98590387762E+03  0.25500000000E-02 0.  1.
    8880023    1    1    2    0    0  0.17230826554E+03  0.60259514227E+03 -0.65771733243E+03  0.11221467549E+04  0.65864270000E+03 0.  1.
    8880022    1    1    2    0    0 -0.17230826554E+03 -0.60259514227E+03  0.98820745000E+03  0.11801511179E+04  0.15294330000E+03 0.  0.
<mgrwt>
<rscale>  0 0.83445529E+03</rscale>
<asrwt>0</asrwt>
<pdfrwt beam="1">  1        2 0.20252215E+00 0.90918714E+03</pdfrwt>
<pdfrwt beam="2">  1       -2 0.15167752E+00 0.90918714E+03</pdfrwt>
<totfact> 0.47136638E+00</totfact>
</mgrwt>
</event>
<event>
 4    1  0.9654646E-007  0.7604600E+03  0.7818608E-02  0.9803918E-01
          2   -1    0    0  501    0  0.00000000000E+00  0.00000000000E+00  0.62081321961E+03  0.62081321962E+03  0.25500000000E-02 0. -1.
         -2   -1    0    0    0  501 -0.00000000000E+00 -0.00000000000E+00 -0.61727206168E+03  0.61727206168E+03  0.25500000000E-02 0.  1.
    8880023    1    1    2    0    0 -0.74486422024E+02 -0.37274784826E+03  0.19613440459E+03  0.78534584507E+03  0.65864270000E+03 0. -1.
    8880022    1    1    2    0    0  0.74486422024E+02  0.37274784826E+03 -0.19259324665E+03  0.45273943623E+03  0.15294330000E+03 0.  1.
<mgrwt>
<rscale>  0 0.65152700E+03</rscale>
<asrwt>0</asrwt>
<pdfrwt beam="1">  1        2 0.95509725E-01 0.76045999E+03</pdfrwt>
<pdfrwt beam="2">  1       -2 0.94964933E-01 0.76045999E+03</pdfrwt>
<totfact> 0.44903046E+01</totfact>
</mgrwt>
</event>
<event>
 4    1  0.9654646E-007  0.6859992E+03  0.7818608E-02  0.1006115E+00
          2   -1    0    0  501    0  0.00000000000E+00  0.00000000000E+00  0.10175790115E+04  0.10175790115E+04  0.25500000000E-02 0. -1.
         -2   -1    0    0    0  501 -0.00000000000E+00 -0.00000000000E+00 -0.37303797172E+03  0.37303797173E+03  0.25500000000E-02 0.  1.
    8880023    1    1    2    0    0 -0.14927871847E+03 -0.12041854143E+03 -0.15802293121E+02  0.68618122944E+03  0.65864270000E+03 0.  1.
    8880022    1    1    2    0    0  0.14927871847E+03  0.12041854143E+03  0.66034333287E+03  0.70443575377E+03  0.15294330000E+03 0.  0.
<mgrwt>
<rscale>  0 0.53048245E+03</rscale>
<asrwt>0</asrwt>
<pdfrwt beam="1">  1        2 0.15655062E+00 0.68599925E+03</pdfrwt>
<pdfrwt beam="2">  1       -2 0.57390458E-01 0.68599925E+03</pdfrwt>
<totfact> 0.71230987E+01</totfact>
</mgrwt>
</event>
<event>
 4    1  0.9654646E-007  0.1217846E+04  0.7818608E-02  0.9139967E-01
         -2   -1    0    0    0  501 -0.00000000000E+00  0.00000000000E+00  0.46174811824E+03  0.46174811824E+03  0.25500000000E-02 0.  1.
          2   -1    0    0  501    0  0.00000000000E+00 -0.00000000000E+00 -0.28130905982E+04  0.28130905982E+04  0.25500000000E-02 0. -1.
    8880023    1    1    2    0    0 -0.70597978737E+03  0.74224797316E+03 -0.15136367014E+04  0.19427418212E+04  0.65864270000E+03 0.  0.
    8880022    1    1    2    0    0  0.70597978737E+03 -0.74224797316E+03 -0.83770577858E+03  0.13320968952E+04  0.15294330000E+03 0.  0.
<mgrwt>
<rscale>  0 0.11695148E+04</rscale>
<asrwt>0</asrwt>
<pdfrwt beam="1">  1        2 0.43278316E+00 0.12178463E+04</pdfrwt>
<pdfrwt beam="2">  1       -2 0.71038173E-01 0.12178463E+04</pdfrwt>
<totfact> 0.40452428E+00</totfact>
</mgrwt>
</event>
<event>
 4    1  0.9654646E-007  0.1447324E+04  0.7818608E-02  0.8947757E-01
          2   -1    0    0  501    0  0.00000000000E+00  0.00000000000E+00  0.37809140874E+04  0.37809140874E+04  0.25500000000E-02 0. -1.
         -2   -1    0    0    0  501 -0.00000000000E+00 -0.00000000000E+00 -0.60196975137E+03  0.60196975137E+03  0.25500000000E-02 0.  1.
    8880023    1    1    2    0    0  0.11631602182E+04  0.55497271228E+03  0.25695320716E+04  0.29491086243E+04  0.65864270000E+03 0. -1.
    8880022    1    1    2    0    0 -0.11631602182E+04 -0.55497271228E+03  0.60941226447E+03  0.14337752145E+04  0.15294330000E+03 0.  0.
<mgrwt>
<rscale>  0 0.14084053E+04</rscale>
<asrwt>0</asrwt>
<pdfrwt beam="1">  1        2 0.58167908E+00 0.14473239E+04</pdfrwt>
<pdfrwt beam="2">  1       -2 0.92610732E-01 0.14473239E+04</pdfrwt>
<totfact> 0.48924760E-01</totfact>
</mgrwt>
</event>
<event>
 4    1  0.9654646E-007  0.7458860E+03  0.7818608E-02  0.9843122E-01
          2   -1    0    0  501    0  0.00000000000E+00  0.00000000000E+00  0.39222327770E+04  0.39222327770E+04  0.25500000000E-02 0. -1.
         -2   -1    0    0    0  501 -0.00000000000E+00 -0.00000000000E+00 -0.15609609449E+03  0.15609609451E+03  0.25500000000E-02 0.  1.
    8880023    1    1    2    0    0  0.34426139145E+03  0.63402085221E+02  0.82381664031E+03  0.11113144439E+04  0.65864270000E+03 0.  1.
    8880022    1    1    2    0    0 -0.34426139145E+03 -0.63402085221E+02  0.29423200422E+04  0.29670144276E+04  0.15294330000E+03 0.  0.
<mgrwt>
<rscale>  0 0.63098850E+03</rscale>
<asrwt>0</asrwt>
<pdfrwt beam="1">  1        2 0.60342044E+00 0.74588601E+03</pdfrwt>
<pdfrwt beam="2">  1       -2 0.24014783E-01 0.74588601E+03</pdfrwt>
<totfact> 0.66962265E+00</totfact>
</mgrwt>
</event>
<event>
 4    1  0.9654646E-007  0.9645460E+03  0.7818608E-02  0.9429487E-01
         -2   -1    0    0    0  501 -0.00000000000E+00  0.00000000000E+00  0.45245442746E+03  0.45245442746E+03  0.25500000000E-02 0.  1.
          2   -1    0    0  501    0  0.00000000000E+00 -0.00000000000E+00 -0.23406978865E+04  0.23406978865E+04  0.25500000000E-02 0. -1.
    8880023    1    1    2    0    0 -0.71732858580E+02  0.70099446389E+03 -0.23980666451E+03  0.99390959549E+03  0.65864270000E+03 0.  1.
    8880022    1    1    2    0    0  0.71732858580E+02 -0.70099446389E+03 -0.16484367945E+04  0.17992427185E+04  0.15294330000E+03 0.  0.
<mgrwt>
<rscale>  0 0.89688215E+03</rscale>
<asrwt>0</asrwt>
<pdfrwt beam="1">  1        2 0.36010736E+00 0.96454603E+03</pdfrwt>
<pdfrwt beam="2">  1       -2 0.69608375E-01 0.96454603E+03</pdfrwt>
<totfact> 0.81912241E+00</totfact>
</mgrwt>
</event>
<event>
 4    1  0.9654646E-007  0.8688472E+03  0.7818608E-02  0.9578016E-01
         -2   -1    0    0    0  501 -0.00000000000E+00  0.00000000000E+00  0.49662496655E+03  0.49662496656E+03  0.25500000000E-02 0.  1.
          2   -1    0    0  501    0  0.00000000000E+00 -0.00000000000E+00 -0.15410916909E+04  0.15410916909E+04  0.25500000000E-02 0. -1.
    8880023    1    1    2    0    0  0.50187339839E+03  0.26307490566E+03 -0.34424346395E+02  0.86952892758E+03  0.65864270000E+03 0.  1.
    8880022    1    1    2    0    0 -0.50187339839E+03 -0.26307490566E+03 -0.10100423780E+04  0.11681877299E+04  0.15294330000E+03 0.  0.
<mgrwt>
<rscale>  0 0.78768503E+03</rscale>
<asrwt>0</asrwt>
<pdfrwt beam="1">  1        2 0.23709103E+00 0.86884724E+03</pdfrwt>
<pdfrwt beam="2">  1       -2 0.76403842E-01 0.86884724E+03</pdfrwt>
<totfact> 0.18638799E+01</totfact>
</mgrwt>
</event>
<event>
 4    1  0.9654646E-007  0.1322202E+04  0.7818608E-02  0.9046620E-01
          2   -1    0    0  501    0  0.00000000000E+00  0.00000000000E+00  0.52547409476E+03  0.52547409476E+03  0.25500000000E-02 0. -1.
         -2   -1    0    0    0  501 -0.00000000000E+00 -0.00000000000E+00 -0.51462262854E+04  0.51462262854E+04  0.25500000000E-02 0.  1.
    8880023    1    1    2    0    0 -0.92445191956E+03  0.67808328612E+03 -0.42594534695E+04  0.44599509369E+04  0.65864270000E+03 0.  1.
    8880022    1    1    2    0    0  0.92445191956E+03 -0.67808328612E+03 -0.36129872124E+03  0.12117494434E+04  0.15294330000E+03 0.  0.
<mgrwt>
<rscale>  0 0.12787107E+04</rscale>
<asrwt>0</asrwt>
<pdfrwt beam="1">  1        2 0.80842172E-01 0.13222021E+04</pdfrwt>
<pdfrwt beam="2">  1       -2 0.79172709E+00 0.13222021E+04</pdfrwt>
<totfact> 0.51478825E-03</totfact>
</mgrwt>
</event>
<event>
 4    1  0.9654646E-007  0.8867884E+03  0.7818608E-02  0.9547582E-01
         -2   -1    0    0    0  501 -0.00000000000E+00  0.00000000000E+00  0.18580487870E+04  0.18580487870E+04  0.25500000000E-02 0.  1.
          2   -1    0    0  501    0  0.00000000000E+00 -0.00000000000E+00 -0.31415506997E+03  0.31415506999E+03  0.25500000000E-02 0. -1.
    8880023    1    1    2    0    0  0.48977617438E+03 -0.33571237956E+03  0.11115080846E+04  0.14219155851E+04  0.65864270000E+03 0.  0.
    8880022    1    1    2    0    0 -0.48977617438E+03  0.33571237956E+03  0.43238563243E+03  0.75028827189E+03  0.15294330000E+03 0.  0.
<mgrwt>
<rscale>  0 0.80864872E+03</rscale>
<asrwt>0</asrwt>
<pdfrwt beam="1">  1        2 0.48331550E-01 0.88678842E+03</pdfrwt>
<pdfrwt beam="2">  1       -2 0.28585365E+00 0.88678842E+03</pdfrwt>
<totfact> 0.41223301E+00</totfact>
</mgrwt>
</event>
<event>
 4    1  0.9654646E-007  0.6790132E+03  0.7818608E-02  0.1009887E+00
          2   -1    0    0  501    0  0.00000000000E+00  0.00000000000E+00  0.93242369979E+03  0.93242369980E+03  0.25500000000E-02 0. -1.
         -2   -1    0    0    0  501 -0.00000000000E+00 -0.00000000000E+00 -0.44711891261E+03  0.44711891262E+03  0.25500000000E-02 0.  1.
    8880023    1    1    2    0    0 -0.12158145017E+03  0.11165450122E+03 -0.15873464220E+03  0.69732034931E+03  0.65864270000E+03 0.  1.
    8880022    1    1    2    0    0  0.12158145017E+03 -0.11165450122E+03  0.64403942938E+03  0.68222226310E+03  0.15294330000E+03 0.  0.
<mgrwt>
<rscale>  0 0.51519407E+03</rscale>
<asrwt>0</asrwt>
<pdfrwt beam="1">  1        2 0.14344980E+00 0.67901324E+03</pdfrwt>
<pdfrwt beam="2">  1       -2 0.68787526E-01 0.67901324E+03</pdfrwt>
<totfact> 0.54983389E+01</totfact>
</mgrwt>
</event>
<event>
 4    1  0.9654646E-007  0.7877296E+03  0.7818608E-02  0.9737983E-01
         -2   -1    0    0    0  501 -0.00000000000E+00  0.00000000000E+00  0.49357216715E+03  0.49357216716E+03  0.25500000000E-02 0.  1.
          2   -1    0    0  501    0  0.00000000000E+00 -0.00000000000E+00 -0.12122664737E+04  0.12122664737E+04  0.25500000000E-02 0. -1.
    8880023    1    1    2    0    0 -0.43189661221E+03  0.13157053564E+02  0.72919211680E+02  0.79109747148E+03  0.65864270000E+03 0.  0.
    8880022    1    1    2    0    0  0.43189661221E+03 -0.13157053564E+02 -0.79161351818E+03  0.91474116933E+03  0.15294330000E+03 0.  0.
<mgrwt>
<rscale>  0 0.68799615E+03</rscale>
<asrwt>0</asrwt>
<pdfrwt beam="1">  1        2 0.18650253E+00 0.78772965E+03</pdfrwt>
<pdfrwt beam="2">  1       -2 0.75934180E-01 0.78772965E+03</pdfrwt>
<totfact> 0.29364230E+01</totfact>
</mgrwt>
</event>
<event>
 4    1  0.9654646E-007  0.7604546E+03  0.7818608E-02  0.9803932E-01
          2   -1    0    0  501    0  0.00000000000E+00  0.00000000000E+00  0.40681392946E+04  0.40681392946E+04  0.25500000000E-02 0. -1.
         -2   -1    0    0    0  501 -0.00000000000E+00 -0.00000000000E+00 -0.11092104775E+03  0.11092104778E+03  0.25500000000E-02 0.  1.
    8880023    1    1    2    0    0  0.24193074913E+03  0.29317321381E+03  0.34194727657E+04  0.35030108796E+04  0.65864270000E+03 0.  0.
    8880022    1    1    2    0    0 -0.24193074913E+03 -0.29317321381E+03  0.53774548115E+03  0.67604946282E+03  0.15294330000E+03 0.  0.
<mgrwt>
<rscale>  0 0.65151959E+03</rscale>
<asrwt>0</asrwt>
<pdfrwt beam="1">  1        2 0.62586758E+00 0.76045462E+03</pdfrwt>
<pdfrwt beam="2">  1       -2 0.17064777E-01 0.76045462E+03</pdfrwt>
<totfact> 0.93294241E+00</totfact>
</mgrwt>
</event>
<event>
 4    1  0.9654646E-007  0.8279137E+03  0.7818608E-02  0.9653405E-01
         -2   -1    0    0    0  501 -0.00000000000E+00  0.00000000000E+00  0.54598647678E+03  0.54598647679E+03  0.25500000000E-02 0.  1.
          2   -1    0    0  501    0  0.00000000000E+00 -0.00000000000E+00 -0.13112181493E+04  0.13112181494E+04  0.25500000000E-02 0. -1.
    8880023    1    1    2    0    0 -0.49934273889E+03 -0.47830006373E+02  0.11171117280E+03  0.83541634697E+03  0.65864270000E+03 0.  1.
    8880022    1    1    2    0    0  0.49934273889E+03  0.47830006373E+02 -0.87694284537E+03  0.10217882792E+04  0.15294330000E+03 0.  0.
<mgrwt>
<rscale>  0 0.73860090E+03</rscale>
<asrwt>0</asrwt>
<pdfrwt beam="1">  1        2 0.20172587E+00 0.82791370E+03</pdfrwt>
<pdfrwt beam="2">  1       -2 0.83997920E-01 0.82791370E+03</pdfrwt>
<totfact> 0.20401544E+01</totfact>
</mgrwt>
</event>
<event>
 4    1  0.9654646E-007  0.7120325E+03  0.7818608E-02  0.9950529E-01
         -2   -1    0    0    0  501 -0.00000000000E+00  0.00000000000E+00  0.54828854725E+03  0.54828854726E+03  0.25500000000E-02 0.  1.
          2   -1    0    0  501    0  0.00000000000E+00 -0.00000000000E+00 -0.98962557752E+03  0.98962557753E+03  0.25500000000E-02 0. -1.
    8880023    1    1    2    0    0  0.21722714936E+03  0.16122186602E+03  0.27012085705E+03  0.76154816537E+03  0.65864270000E+03 0.  0.
    8880022    1    1    2    0    0 -0.21722714936E+03 -0.16122186602E+03 -0.71145788732E+03  0.77636595942E+03  0.15294330000E+03 0. -1.
<mgrwt>
<rscale>  0 0.57873688E+03</rscale>
<asrwt>0</asrwt>
<pdfrwt beam="1">  1        2 0.15225009E+00 0.71203253E+03</pdfrwt>
<pdfrwt beam="2">  1       -2 0.84352084E-01 0.71203253E+03</pdfrwt>
<totfact> 0.31981652E+01</totfact>
</mgrwt>
</event>
<event>
 4    1  0.9654646E-007  0.1759270E+04  0.7818608E-02  0.8745408E-01
          2   -1    0    0  501    0  0.00000000000E+00  0.00000000000E+00  0.23579916583E+04  0.23579916583E+04  0.25500000000E-02 0. -1.
         -2   -1    0    0    0  501 -0.00000000000E+00 -0.00000000000E+00 -0.24683270115E+04  0.24683270115E+04  0.25500000000E-02 0.  1.
    8880023    1    1    2    0    0 -0.89970342108E+03  0.13607915900E+04 -0.17689787014E+04  0.24948578817E+04  0.65864270000E+03 0.  0.
    8880022    1    1    2    0    0  0.89970342108E+03 -0.13607915900E+04  0.16586433482E+04  0.23314607882E+04  0.15294330000E+03 0.  0.
<mgrwt>
<rscale>  0 0.17282617E+04</rscale>
<asrwt>0</asrwt>
<pdfrwt beam="1">  1        2 0.36276795E+00 0.17592698E+04</pdfrwt>
<pdfrwt beam="2">  1       -2 0.37974262E+00 0.17592698E+04</pdfrwt>
<totfact> 0.38350831E-02</totfact>
</mgrwt>
</event>
<event>
 4    1  0.9654646E-007  0.7072326E+03  0.7818608E-02  0.9968424E-01
         -2   -1    0    0    0  501 -0.00000000000E+00  0.00000000000E+00  0.29801409725E+03  0.29801409726E+03  0.25500000000E-02 0.  1.
          2   -1    0    0  501    0  0.00000000000E+00 -0.00000000000E+00 -0.14202058814E+04  0.14202058814E+04  0.25500000000E-02 0. -1.
    8880023    1    1    2    0    0  0.13886748345E+03 -0.21698754871E+03 -0.18033667941E+03  0.72986252025E+03  0.65864270000E+03 0.  0.
    8880022    1    1    2    0    0 -0.13886748345E+03  0.21698754871E+03 -0.94185510473E+03  0.98835745840E+03  0.15294330000E+03 0.  0.
<mgrwt>
<rscale>  0 0.57056710E+03</rscale>
<asrwt>0</asrwt>
<pdfrwt beam="1">  1        2 0.21849321E+00 0.70723262E+03</pdfrwt>
<pdfrwt beam="2">  1       -2 0.45848324E-01 0.70723262E+03</pdfrwt>
<totfact> 0.65079537E+01</totfact>
</mgrwt>
</event>
<event>
 4    1  0.9654646E-007  0.7427229E+03  0.7818608E-02  0.9852085E-01
         -2   -1    0    0    0  501 -0.00000000000E+00  0.00000000000E+00  0.17880748173E+03  0.17880748175E+03  0.25500000000E-02 0.  1.
          2   -1    0    0  501    0  0.00000000000E+00 -0.00000000000E+00 -0.31569904702E+04  0.31569904702E+04  0.25500000000E-02 0. -1.
    8880023    1    1    2    0    0 -0.32548928173E+03  0.10901303483E+03 -0.67968101239E+03  0.10067788234E+04  0.65864270000E+03 0.  0.
    8880022    1    1    2    0    0  0.32548928173E+03 -0.10901303483E+03 -0.22985019760E+04  0.23290191286E+04  0.15294330000E+03 0.  0.
<mgrwt>
<rscale>  0 0.62640709E+03</rscale>
<asrwt>0</asrwt>
<pdfrwt beam="1">  1        2 0.48569080E+00 0.74272291E+03</pdfrwt>
<pdfrwt beam="2">  1       -2 0.27508846E-01 0.74272291E+03</pdfrwt>
<totfact> 0.17749872E+01</totfact>
</mgrwt>
</event>
<event>
 4    1  0.9654646E-007  0.8008465E+03  0.7818608E-02  0.9708969E-01
          2   -1    0    0  501    0  0.00000000000E+00  0.00000000000E+00  0.23579224456E+04  0.23579224456E+04  0.25500000000E-02 0. -1.
         -2   -1    0    0    0  501 -0.00000000000E+00 -0.00000000000E+00 -0.61680940373E+03  0.61680940374E+03  0.25500000000E-02 0.  1.
    8880023    1    1    2    0    0  0.42996715043E+03 -0.15057607655E+03 -0.31696695471E+03  0.86129156615E+03  0.65864270000E+03 0.  0.
    8880022    1    1    2    0    0 -0.42996715043E+03  0.15057607655E+03  0.20580799966E+04  0.21134402832E+04  0.15294330000E+03 0. -1.
<mgrwt>
<rscale>  0 0.70485299E+03</rscale>
<asrwt>0</asrwt>
<pdfrwt beam="1">  1        2 0.36275731E+00 0.80084650E+03</pdfrwt>
<pdfrwt beam="2">  1       -2 0.94893752E-01 0.80084650E+03</pdfrwt>
<totfact> 0.40707020E+00</totfact>
</mgrwt>
</event>
<event>
 4    1  0.9654646E-007  0.6734258E+03  0.7818608E-02  0.1013317E+00
          2   -1    0    0  501    0  0.00000000000E+00  0.00000000000E+00  0.10571620469E+04  0.10571620469E+04  0.25500000000E-02 0. -1.
         -2   -1    0    0    0  501 -0.00000000000E+00 -0.00000000000E+00 -0.33711388343E+03  0.33711388344E+03  0.25500000000E-02 0.  1.
    8880023    1    1    2    0    0 -0.94086401621E+02  0.10411440219E+03  0.30446882051E+02  0.67411369857E+03  0.65864270000E+03 0.  1.
    8880022    1    1    2    0    0  0.94086401621E+02 -0.10411440219E+03  0.68960128138E+03  0.72016223173E+03  0.15294330000E+03 0.  0.
<mgrwt>
<rscale>  0 0.50177202E+03</rscale>
<asrwt>0</asrwt>
<pdfrwt beam="1">  1        2 0.16264031E+00 0.67342577E+03</pdfrwt>
<pdfrwt beam="2">  1       -2 0.51863675E-01 0.67342577E+03</pdfrwt>
<totfact> 0.83056621E+01</totfact>
</mgrwt>
</event>
<event>
 4    1  0.9654646E-007  0.8118558E+03  0.7818608E-02  0.9685724E-01
         -2   -1    0    0    0  501 -0.00000000000E+00  0.00000000000E+00  0.30453682537E+03  0.30453682538E+03  0.25500000000E-02 0.  1.
          2   -1    0    0  501    0  0.00000000000E+00 -0.00000000000E+00 -0.25830301756E+04  0.25830301756E+04  0.25500000000E-02 0. -1.
    8880023    1    1    2    0    0  0.41919013923E+03 -0.22266389975E+03 -0.33015564357E+03  0.87642029890E+03  0.65864270000E+03 0.  1.
    8880022    1    1    2    0    0 -0.41919013923E+03  0.22266389975E+03 -0.19483377067E+04  0.20111467021E+04  0.15294330000E+03 0.  0.
<mgrwt>
<rscale>  0 0.71873157E+03</rscale>
<asrwt>0</asrwt>
<pdfrwt beam="1">  1        2 0.39738924E+00 0.81185577E+03</pdfrwt>
<pdfrwt beam="2">  1       -2 0.46851821E-01 0.81185577E+03</pdfrwt>
<totfact> 0.13979148E+01</totfact>
</mgrwt>
</event>
<event>
 4    1  0.9654646E-007  0.6909601E+03  0.7818608E-02  0.1003700E+00
          2   -1    0    0  501    0  0.00000000000E+00  0.00000000000E+00  0.22469638301E+04  0.22469638301E+04  0.25500000000E-02 0. -1.
         -2   -1    0    0    0  501 -0.00000000000E+00 -0.00000000000E+00 -0.10047543021E+03  0.10047543024E+03  0.25500000000E-02 0.  1.
    8880023    1    1    2    0    0  0.69650772828E+02 -0.19688675558E+03  0.15279164388E+04  0.16768883311E+04  0.65864270000E+03 0. -1.
    8880022    1    1    2    0    0 -0.69650772828E+02  0.19688675558E+03  0.61857196106E+03  0.67055092924E+03  0.15294330000E+03 0.  1.
<mgrwt>
<rscale>  0 0.54057376E+03</rscale>
<asrwt>0</asrwt>
<pdfrwt beam="1">  1        2 0.34568671E+00 0.69096008E+03</pdfrwt>
<pdfrwt beam="2">  1       -2 0.15457760E-01 0.69096008E+03</pdfrwt>
<totfact> 0.16769176E+02</totfact>
</mgrwt>
</event>
<event>
 4    1  0.9654646E-007  0.6687695E+03  0.7818608E-02  0.1016561E+00
         -2   -1    0    0    0  501 -0.00000000000E+00  0.00000000000E+00  0.22564799015E+03  0.22564799017E+03  0.25500000000E-02 0.  1.
          2   -1    0    0  501    0  0.00000000000E+00 -0.00000000000E+00 -0.10836598300E+04  0.10836598300E+04  0.25500000000E-02 0. -1.
    8880023    1    1    2    0    0  0.10500023878E+03 -0.49166585299E+02 -0.32651438092E+03  0.74422056573E+03  0.65864270000E+03 0.  1.
    8880022    1    1    2    0    0 -0.10500023878E+03  0.49166585299E+02 -0.53149745889E+03  0.56508725439E+03  0.15294330000E+03 0.  0.
<mgrwt>
<rscale>  0 0.48948403E+03</rscale>
<asrwt>0</asrwt>
<pdfrwt beam="1">  1        2 0.16671689E+00 0.66876947E+03</pdfrwt>
<pdfrwt beam="2">  1       -2 0.34715076E-01 0.66876947E+03</pdfrwt>
<totfact> 0.17645334E+02</totfact>
</mgrwt>
</event>
<event>
 4    1  0.9654646E-007  0.1044546E+04  0.7818608E-02  0.9325466E-01
          2   -1    0    0  501    0  0.00000000000E+00  0.00000000000E+00  0.95423890529E+03  0.95423890529E+03  0.25500000000E-02 0. -1.
         -2   -1    0    0    0  501 -0.00000000000E+00 -0.00000000000E+00 -0.15062182645E+04  0.15062182645E+04  0.25500000000E-02 0.  1.
    8880023    1    1    2    0    0  0.57731539582E+03 -0.56918692362E+03 -0.10627383613E+04  0.14901308168E+04  0.65864270000E+03 0.  0.
    8880022    1    1    2    0    0 -0.57731539582E+03  0.56918692362E+03  0.51075900204E+03  0.97032635306E+03  0.15294330000E+03 0.  0.
<mgrwt>
<rscale>  0 0.98471814E+03</rscale>
<asrwt>0</asrwt>
<pdfrwt beam="1">  1        2 0.14680599E+00 0.10445463E+04</pdfrwt>
<pdfrwt beam="2">  1       -2 0.23172589E+00 0.10445463E+04</pdfrwt>
<totfact> 0.22266198E+00</totfact>
</mgrwt>
</event>
<event>
 4    1  0.9654646E-007  0.7903492E+03  0.7818608E-02  0.9732065E-01
         -2   -1    0    0    0  501 -0.00000000000E+00  0.00000000000E+00  0.27214024773E+03  0.27214024775E+03  0.25500000000E-02 0.  1.
          2   -1    0    0  501    0  0.00000000000E+00 -0.00000000000E+00 -0.16064766989E+04  0.16064766989E+04  0.25500000000E-02 0. -1.
    8880023    1    1    2    0    0  0.10781979715E+02  0.43672118129E+03 -0.53321683812E+03  0.95340025382E+03  0.65864270000E+03 0.  0.
    8880022    1    1    2    0    0 -0.10781979715E+02 -0.43672118129E+03 -0.80111961307E+03  0.92521669285E+03  0.15294330000E+03 0.  0.
<mgrwt>
<rscale>  0 0.69139324E+03</rscale>
<asrwt>0</asrwt>
<pdfrwt beam="1">  1        2 0.24715026E+00 0.79034919E+03</pdfrwt>
<pdfrwt beam="2">  1       -2 0.41867731E-01 0.79034919E+03</pdfrwt>
<totfact> 0.60874855E+01</totfact>
</mgrwt>
</event>
<event>
 4    1  0.9654646E-007  0.7129634E+03  0.7818608E-02  0.9947157E-01
          2   -1    0    0  501    0  0.00000000000E+00  0.00000000000E+00  0.11568352193E+04  0.11568352193E+04  0.25500000000E-02 0. -1.
         -2   -1    0    0    0  501 -0.00000000000E+00 -0.00000000000E+00 -0.26137755279E+03  0.26137755281E+03  0.25500000000E-02 0.  1.
    8880023    1    1    2    0    0  0.22093244096E+03 -0.16029825731E+03  0.36159438500E+03  0.79941690018E+03  0.65864270000E+03 0.  1.
    8880022    1    1    2    0    0 -0.22093244096E+03  0.16029825731E+03  0.53386328151E+03  0.61879587193E+03  0.15294330000E+03 0.  1.
<mgrwt>
<rscale>  0 0.58029304E+03</rscale>
<asrwt>0</asrwt>
<pdfrwt beam="1">  1        2 0.17797465E+00 0.71296345E+03</pdfrwt>
<pdfrwt beam="2">  1       -2 0.40211930E-01 0.71296345E+03</pdfrwt>
<totfact> 0.11967947E+02</totfact>
</mgrwt>
</event>
<event>
 4    1  0.9654646E-007  0.8609171E+03  0.7818608E-02  0.9591934E-01
         -2   -1    0    0    0  501 -0.00000000000E+00  0.00000000000E+00  0.65328976001E+03  0.65328976001E+03  0.25500000000E-02 0.  1.
          2   -1    0    0  501    0  0.00000000000E+00 -0.00000000000E+00 -0.17540019062E+04  0.17540019062E+04  0.25500000000E-02 0. -1.
    8880023    1    1    2    0    0  0.41743396460E+03  0.36485192282E+03  0.28508716528E+03  0.90689191112E+03  0.65864270000E+03 0.  0.
    8880022    1    1    2    0    0 -0.41743396460E+03 -0.36485192282E+03 -0.13857993114E+04  0.15003997551E+04  0.15294330000E+03 0.  0.
<mgrwt>
<rscale>  0 0.77832337E+03</rscale>
<asrwt>0</asrwt>
<pdfrwt beam="1">  1        2 0.26984645E+00 0.86091710E+03</pdfrwt>
<pdfrwt beam="2">  1       -2 0.10050612E+00 0.86091710E+03</pdfrwt>
<totfact> 0.75755751E+00</totfact>
</mgrwt>
</event>
<event>
 4    1  0.9654646E-007  0.6819343E+03  0.7818608E-02  0.1008250E+00
         -2   -1    0    0    0  501 -0.00000000000E+00  0.00000000000E+00  0.10667438430E+03  0.10667438433E+03  0.25500000000E-02 0.  1.
          2   -1    0    0  501    0  0.00000000000E+00 -0.00000000000E+00 -0.23420290723E+04  0.23420290723E+04  0.25500000000E-02 0. -1.
    8880023    1    1    2    0    0 -0.92692255719E+02 -0.15044038514E+03 -0.11375010678E+04  0.13262515030E+04  0.65864270000E+03 0.  1.
    8880022    1    1    2    0    0  0.92692255719E+02  0.15044038514E+03 -0.10978536202E+04  0.11224519536E+04  0.15294330000E+03 0.  0.
<mgrwt>
<rscale>  0 0.52176110E+03</rscale>
<asrwt>0</asrwt>
<pdfrwt beam="1">  1        2 0.36031213E+00 0.68193429E+03</pdfrwt>
<pdfrwt beam="2">  1       -2 0.16411446E-01 0.68193429E+03</pdfrwt>
<totfact> 0.13431191E+02</totfact>
</mgrwt>
</event>
<event>
 4    1  0.9654646E-007  0.8431517E+03  0.7818608E-02  0.9624266E-01
         -2   -1    0    0    0  501 -0.00000000000E+00  0.00000000000E+00  0.46324392739E+03  0.46324392740E+03  0.25500000000E-02 0.  1.
          2   -1    0    0  501    0  0.00000000000E+00 -0.00000000000E+00 -0.33191578559E+04  0.33191578559E+04  0.25500000000E-02 0. -1.
    8880023    1    1    2    0    0 -0.34386865003E+03  0.39855858586E+03  0.31180969965E+02  0.84372806874E+03  0.65864270000E+03 0.  1.
    8880022    1    1    2    0    0  0.34386865003E+03 -0.39855858586E+03 -0.28870948985E+04  0.29386737146E+04  0.15294330000E+03 0.  0.
<mgrwt>
<rscale>  0 0.75710719E+03</rscale>
<asrwt>0</asrwt>
<pdfrwt beam="1">  1        2 0.51063965E+00 0.84315171E+03</pdfrwt>
<pdfrwt beam="2">  1       -2 0.71268299E-01 0.84315171E+03</pdfrwt>
<totfact> 0.20474807E+00</totfact>
</mgrwt>
</event>
<event>
 4    1  0.9654646E-007  0.8788459E+03  0.7818608E-02  0.9560881E-01
          2   -1    0    0  501    0  0.00000000000E+00  0.00000000000E+00  0.57046997850E+03  0.57046997850E+03  0.25500000000E-02 0. -1.
         -2   -1    0    0    0  501 -0.00000000000E+00 -0.00000000000E+00 -0.13284789877E+04  0.13284789877E+04  0.25500000000E-02 0.  1.
    8880023    1    1    2    0    0 -0.35486979263E+03  0.46111533269E+03 -0.92363805789E+03  0.12749421116E+04  0.65864270000E+03 0.  1.
    8880022    1    1    2    0    0  0.35486979263E+03 -0.46111533269E+03  0.16562904869E+03  0.62400685457E+03  0.15294330000E+03 0.  0.
<mgrwt>
<rscale>  0 0.79940316E+03</rscale>
<asrwt>0</asrwt>
<pdfrwt beam="1">  1        2 0.87764612E-01 0.87884591E+03</pdfrwt>
<pdfrwt beam="2">  1       -2 0.20438138E+00 0.87884591E+03</pdfrwt>
<totfact> 0.66037349E+00</totfact>
</mgrwt>
</event>
<event>
 4    1  0.9654646E-007  0.9060029E+03  0.7818608E-02  0.9516463E-01
          2   -1    0    0  501    0  0.00000000000E+00  0.00000000000E+00  0.14811355002E+04  0.14811355002E+04  0.25500000000E-02 0. -1.
         -2   -1    0    0    0  501 -0.00000000000E+00 -0.00000000000E+00 -0.41067668375E+03  0.41067668376E+03  0.25500000000E-02 0.  1.
    8880023    1    1    2    0    0  0.49934635774E+03  0.37105823428E+03  0.50457312567E+03  0.10370319395E+04  0.65864270000E+03 0. -1.
    8880022    1    1    2    0    0 -0.49934635774E+03 -0.37105823428E+03  0.56588569079E+03  0.85478024443E+03  0.15294330000E+03 0.  1.
<mgrwt>
<rscale>  0 0.83080882E+03</rscale>
<asrwt>0</asrwt>
<pdfrwt beam="1">  1        2 0.22786700E+00 0.90600287E+03</pdfrwt>
<pdfrwt beam="2">  1       -2 0.63181028E-01 0.90600287E+03</pdfrwt>
<totfact> 0.30386187E+01</totfact>
</mgrwt>
</event>
<event>
 4    1  0.9654646E-007  0.7338462E+03  0.7818608E-02  0.9878249E-01
          2   -1    0    0  501    0  0.00000000000E+00  0.00000000000E+00  0.35032340733E+04  0.35032340733E+04  0.25500000000E-02 0. -1.
         -2   -1    0    0    0  501 -0.00000000000E+00 -0.00000000000E+00 -0.46072736759E+03  0.46072736759E+03  0.25500000000E-02 0.  1.
    8880023    1    1    2    0    0  0.30193112293E+03 -0.11643695184E+03 -0.15203581182E+03  0.74942982399E+03  0.65864270000E+03 0.  1.
    8880022    1    1    2    0    0 -0.30193112293E+03  0.11643695184E+03  0.31945425175E+04  0.32145316169E+04  0.15294330000E+03 0.  0.
<mgrwt>
<rscale>  0 0.61327086E+03</rscale>
<asrwt>0</asrwt>
<pdfrwt beam="1">  1        2 0.53895909E+00 0.73384615E+03</pdfrwt>
<pdfrwt beam="2">  1       -2 0.70881134E-01 0.73384615E+03</pdfrwt>
<totfact> 0.15973916E+00</totfact>
</mgrwt>
</event>
<event>
 4    1  0.9654646E-007  0.6602294E+03  0.7818608E-02  0.1023923E+00
         -2   -1    0    0    0  501 -0.00000000000E+00  0.00000000000E+00  0.71985294244E+03  0.71985294244E+03  0.25500000000E-02 0.  1.
          2   -1    0    0  501    0  0.00000000000E+00 -0.00000000000E+00 -0.17743756748E+04  0.17743756748E+04  0.25500000000E-02 0. -1.
    8880023    1    1    2    0    0 -0.45341085643E+02  0.60704668321E+01  0.56370883191E+03  0.86814199187E+03  0.65864270000E+03 0.  1.
    8880022    1    1    2    0    0  0.45341085643E+02 -0.60704668321E+01 -0.16182315642E+04  0.16260866253E+04  0.15294330000E+03 0.  0.
<mgrwt>
<rscale>  0 0.46297258E+03</rscale>
<asrwt>0</asrwt>
<pdfrwt beam="1">  1        2 0.27298087E+00 0.66022941E+03</pdfrwt>
<pdfrwt beam="2">  1       -2 0.11074661E+00 0.66022941E+03</pdfrwt>
<totfact> 0.60289214E+00</totfact>
</mgrwt>
</event>
<event>
 4    1  0.9654646E-007  0.7124668E+03  0.7818608E-02  0.9948952E-01
          2   -1    0    0  501    0  0.00000000000E+00  0.00000000000E+00  0.76409714065E+03  0.76409714066E+03  0.25500000000E-02 0. -1.
         -2   -1    0    0    0  501 -0.00000000000E+00 -0.00000000000E+00 -0.96819434120E+03  0.96819434120E+03  0.25500000000E-02 0.  1.
    8880023    1    1    2    0    0  0.22750724586E+03  0.14845590260E+03 -0.79294641853E+03  0.10660079413E+04  0.65864270000E+03 0.  0.
    8880022    1    1    2    0    0 -0.22750724586E+03 -0.14845590260E+03  0.58884921798E+03  0.66628354059E+03  0.15294330000E+03 0.  0.
<mgrwt>
<rscale>  0 0.57946387E+03</rscale>
<asrwt>0</asrwt>
<pdfrwt beam="1">  1        2 0.11755341E+00 0.71246678E+03</pdfrwt>
<pdfrwt beam="2">  1       -2 0.14895298E+00 0.71246678E+03</pdfrwt>
<totfact> 0.11395314E+01</totfact>
</mgrwt>
</event>
<event>
 4    1  0.9654646E-007  0.8649268E+03  0.7818608E-02  0.9584859E-01
         -2   -1    0    0    0  501 -0.00000000000E+00  0.00000000000E+00  0.38179873197E+03  0.38179873198E+03  0.25500000000E-02 0.  1.
          2   -1    0    0  501    0  0.00000000000E+00 -0.00000000000E+00 -0.15131537993E+04  0.15131537993E+04  0.25500000000E-02 0. -1.
    8880023    1    1    2    0    0 -0.55103303298E+03 -0.10320282124E+03 -0.37902020015E+03  0.94432766778E+03  0.65864270000E+03 0.  0.
    8880022    1    1    2    0    0  0.55103303298E+03  0.10320282124E+03 -0.75233486720E+03  0.95062486353E+03  0.15294330000E+03 0.  0.
<mgrwt>
<rscale>  0 0.78306475E+03</rscale>
<asrwt>0</asrwt>
<pdfrwt beam="1">  1        2 0.23279289E+00 0.86492684E+03</pdfrwt>
<pdfrwt beam="2">  1       -2 0.58738267E-01 0.86492684E+03</pdfrwt>
<totfact> 0.34172280E+01</totfact>
</mgrwt>
</event>
<event>
 4    1  0.9654646E-007  0.1348797E+04  0.7818608E-02  0.9024526E-01
          2   -1    0    0  501    0  0.00000000000E+00  0.00000000000E+00  0.18266090884E+04  0.18266090884E+04  0.25500000000E-02 0. -1.
         -2   -1    0    0    0  501 -0.00000000000E+00 -0.00000000000E+00 -0.89486252151E+03  0.89486252151E+03  0.25500000000E-02 0.  1.
    8880023    1    1    2    0    0 -0.11663135904E+04  0.15860559202E+03  0.32035865028E+03  0.13863199472E+04  0.65864270000E+03 0. -1.
    8880022    1    1    2    0    0  0.11663135904E+04 -0.15860559202E+03  0.61138791663E+03  0.13351516627E+04  0.15294330000E+03 0.  1.
<mgrwt>
<rscale>  0 0.13063738E+04</rscale>
<asrwt>0</asrwt>
<pdfrwt beam="1">  1        2 0.28101678E+00 0.13487970E+04</pdfrwt>
<pdfrwt beam="2">  1       -2 0.13767116E+00 0.13487970E+04</pdfrwt>
<totfact> 0.30022727E+00</totfact>
</mgrwt>
</event>
<event>
 4    1  0.9654646E-007  0.8701137E+03  0.7818608E-02  0.9575820E-01
         -2   -1    0    0    0  501 -0.00000000000E+00  0.00000000000E+00  0.33114262010E+03  0.33114262011E+03  0.25500000000E-02 0.  1.
          2   -1    0    0  501    0  0.00000000000E+00 -0.00000000000E+00 -0.35154343030E+04  0.35154343030E+04  0.25500000000E-02 0. -1.
    8880023    1    1    2    0    0  0.24858511069E+03 -0.51136392536E+03 -0.32744659951E+03  0.92968763744E+03  0.65864270000E+03 0.  0.
    8880022    1    1    2    0    0 -0.24858511069E+03  0.51136392536E+03 -0.28568450834E+04  0.29168892857E+04  0.15294330000E+03 0.  0.
<mgrwt>
<rscale>  0 0.78917439E+03</rscale>
<asrwt>0</asrwt>
<pdfrwt beam="1">  1        2 0.54083602E+00 0.87011369E+03</pdfrwt>
<pdfrwt beam="2">  1       -2 0.50945021E-01 0.87011369E+03</pdfrwt>
<totfact> 0.30635291E+00</totfact>
</mgrwt>
</event>
<event>
 4    1  0.9654646E-007  0.7702976E+03  0.7818608E-02  0.9779142E-01
          2   -1    0    0  501    0  0.00000000000E+00  0.00000000000E+00  0.16671537798E+04  0.16671537798E+04  0.25500000000E-02 0. -1.
         -2   -1    0    0    0  501 -0.00000000000E+00 -0.00000000000E+00 -0.59850429720E+03  0.59850429721E+03  0.25500000000E-02 0.  1.
    8880023    1    1    2    0    0 -0.34374306956E+03  0.20344248570E+03 -0.30384840493E+03  0.82805929878E+03  0.65864270000E+03 0.  1.
    8880022    1    1    2    0    0  0.34374306956E+03 -0.20344248570E+03  0.13724978875E+04  0.14375987782E+04  0.15294330000E+03 0.  0.
<mgrwt>
<rscale>  0 0.66493994E+03</rscale>
<asrwt>0</asrwt>
<pdfrwt beam="1">  1        2 0.25648520E+00 0.77029757E+03</pdfrwt>
<pdfrwt beam="2">  1       -2 0.92077583E-01 0.77029757E+03</pdfrwt>
<totfact> 0.10510051E+01</totfact>
</mgrwt>
</event>
<event>
 4    1  0.9654646E-007  0.7062161E+03  0.7818608E-02  0.9972330E-01
         -2   -1    0    0    0  501 -0.00000000000E+00  0.00000000000E+00  0.70894467011E+03  0.70894467011E+03  0.25500000000E-02 0.  1.
          2   -1    0    0  501    0  0.00000000000E+00 -0.00000000000E+00 -0.18301609961E+04  0.18301609961E+04  0.25500000000E-02 0. -1.
    8880023    1    1    2    0    0 -0.50494370327E+02 -0.24976234652E+03  0.51631348063E+03  0.87482611285E+03  0.65864270000E+03 0.  1.
    8880022    1    1    2    0    0  0.50494370327E+02  0.24976234652E+03 -0.16375298067E+04  0.16642795534E+04  0.15294330000E+03 0.  0.
<mgrwt>
<rscale>  0 0.56880335E+03</rscale>
<asrwt>0</asrwt>
<pdfrwt beam="1">  1        2 0.28156323E+00 0.70621606E+03</pdfrwt>
<pdfrwt beam="2">  1       -2 0.10906841E+00 0.70621606E+03</pdfrwt>
<totfact> 0.57874066E+00</totfact>
</mgrwt>
</event>
<event>
 4    1  0.9654646E-007  0.7350878E+03  0.7818608E-02  0.9874494E-01
          2   -1    0    0  501    0  0.00000000000E+00  0.00000000000E+00  0.69149428205E+03  0.69149428206E+03  0.25500000000E-02 0. -1.
         -2   -1    0    0    0  501 -0.00000000000E+00 -0.00000000000E+00 -0.45932971994E+03  0.45932971995E+03  0.25500000000E-02 0.  1.
    8880023    1    1    2    0    0 -0.15908686492E+03  0.28501806367E+03  0.25960417749E+02  0.73554610784E+03  0.65864270000E+03 0.  0.
    8880022    1    1    2    0    0  0.15908686492E+03 -0.28501806367E+03  0.20620414436E+03  0.41527789416E+03  0.15294330000E+03 0.  0.
<mgrwt>
<rscale>  0 0.61513500E+03</rscale>
<asrwt>0</asrwt>
<pdfrwt beam="1">  1        2 0.10638374E+00 0.73508784E+03</pdfrwt>
<pdfrwt beam="2">  1       -2 0.70666111E-01 0.73508784E+03</pdfrwt>
<totfact> 0.76777945E+01</totfact>
</mgrwt>
</event>
<event>
 4    1  0.9654646E-007  0.7376386E+03  0.7818608E-02  0.9866880E-01
          2   -1    0    0  501    0  0.00000000000E+00  0.00000000000E+00  0.10167957624E+04  0.10167957624E+04  0.25500000000E-02 0. -1.
         -2   -1    0    0    0  501 -0.00000000000E+00 -0.00000000000E+00 -0.10436276952E+04  0.10436276952E+04  0.25500000000E-02 0.  1.
    8880023    1    1    2    0    0  0.12063609979E+03  0.30943092422E+03 -0.87045840122E+03  0.11409682730E+04  0.65864270000E+03 0.  1.
    8880022    1    1    2    0    0 -0.12063609979E+03 -0.30943092422E+03  0.84362646834E+03  0.91945518463E+03  0.15294330000E+03 0.  0.
<mgrwt>
<rscale>  0 0.61893638E+03</rscale>
<asrwt>0</asrwt>
<pdfrwt beam="1">  1        2 0.15643012E+00 0.73763865E+03</pdfrwt>
<pdfrwt beam="2">  1       -2 0.16055811E+00 0.73763865E+03</pdfrwt>
<totfact> 0.62607509E+00</totfact>
</mgrwt>
</event>
<event>
 4    1  0.9654646E-007  0.7574602E+03  0.7818608E-02  0.9811728E-01
          2   -1    0    0  501    0  0.00000000000E+00  0.00000000000E+00  0.19342954975E+04  0.19342954975E+04  0.25500000000E-02 0. -1.
         -2   -1    0    0    0  501 -0.00000000000E+00 -0.00000000000E+00 -0.57576405666E+03  0.57576405667E+03  0.25500000000E-02 0.  1.
    8880023    1    1    2    0    0  0.35786790024E+03  0.10893266525E+03  0.17749235017E+04  0.19297925803E+04  0.65864270000E+03 0.  0.
    8880022    1    1    2    0    0 -0.35786790024E+03 -0.10893266525E+03 -0.41639206091E+03  0.58026697389E+03  0.15294330000E+03 0.  0.
<mgrwt>
<rscale>  0 0.64736953E+03</rscale>
<asrwt>0</asrwt>
<pdfrwt beam="1">  1        2 0.29758392E+00 0.75746021E+03</pdfrwt>
<pdfrwt beam="2">  1       -2 0.88579085E-01 0.75746021E+03</pdfrwt>
<totfact> 0.82293091E+00</totfact>
</mgrwt>
</event>
<event>
 4    1  0.9654646E-007  0.7163765E+03  0.7818608E-02  0.9935043E-01
         -2   -1    0    0    0  501 -0.00000000000E+00  0.00000000000E+00  0.37711314669E+03  0.37711314670E+03  0.25500000000E-02 0.  1.
          2   -1    0    0  501    0  0.00000000000E+00 -0.00000000000E+00 -0.85456733271E+03  0.85456733271E+03  0.25500000000E-02 0. -1.
    8880023    1    1    2    0    0  0.97884548371E+02 -0.26420388820E+03 -0.79674404709E+02  0.72079351855E+03  0.65864270000E+03 0.  1.
    8880022    1    1    2    0    0 -0.97884548371E+02  0.26420388820E+03 -0.39777978131E+03  0.51088696087E+03  0.15294330000E+03 0.  0.
<mgrwt>
<rscale>  0 0.58592610E+03</rscale>
<asrwt>0</asrwt>
<pdfrwt beam="1">  1        2 0.13147190E+00 0.71637650E+03</pdfrwt>
<pdfrwt beam="2">  1       -2 0.58017407E-01 0.71637650E+03</pdfrwt>
<totfact> 0.88946765E+01</totfact>
</mgrwt>
</event>
<event>
 4    1  0.9654646E-007  0.8233102E+03  0.7818608E-02  0.9662492E-01
          2   -1    0    0  501    0  0.00000000000E+00  0.00000000000E+00  0.11435168371E+04  0.11435168371E+04  0.25500000000E-02 0. -1.
         -2   -1    0    0    0  501 -0.00000000000E+00 -0.00000000000E+00 -0.58534419764E+03  0.58534419764E+03  0.25500000000E-02 0.  1.
    8880023    1    1    2    0    0 -0.45529859613E+03 -0.19165764937E+03 -0.16513408704E+03  0.83970765101E+03  0.65864270000E+03 0.  0.
    8880022    1    1    2    0    0  0.45529859613E+03  0.19165764937E+03  0.72330672650E+03  0.88915338374E+03  0.15294330000E+03 0.  0.
<mgrwt>
<rscale>  0 0.73294617E+03</rscale>
<asrwt>0</asrwt>
<pdfrwt beam="1">  1        2 0.17592566E+00 0.82331019E+03</pdfrwt>
<pdfrwt beam="2">  1       -2 0.90052955E-01 0.82331019E+03</pdfrwt>
<totfact> 0.21850867E+01</totfact>
</mgrwt>
</event>
<event>
 4    1  0.9654646E-007  0.1246467E+04  0.7818608E-02  0.9113225E-01
          2   -1    0    0  501    0  0.00000000000E+00  0.00000000000E+00  0.12634764542E+04  0.12634764542E+04  0.25500000000E-02 0. -1.
         -2   -1    0    0    0  501 -0.00000000000E+00 -0.00000000000E+00 -0.13427033918E+04  0.13427033918E+04  0.25500000000E-02 0.  1.
    8880023    1    1    2    0    0 -0.30280714484E+03 -0.10139910065E+04 -0.63743905063E+03  0.14000030992E+04  0.65864270000E+03 0.  0.
    8880022    1    1    2    0    0  0.30280714484E+03  0.10139910065E+04  0.55821211304E+03  0.12061767468E+04  0.15294330000E+03 0.  0.
<mgrwt>
<rscale>  0 0.11995789E+04</rscale>
<asrwt>0</asrwt>
<pdfrwt beam="1">  1        2 0.19438099E+00 0.12464671E+04</pdfrwt>
<pdfrwt beam="2">  1       -2 0.20656975E+00 0.12464671E+04</pdfrwt>
<totfact> 0.20220318E+00</totfact>
</mgrwt>
</event>
<event>
 4    1  0.9654646E-007  0.1063326E+04  0.7818608E-02  0.9303030E-01
          2   -1    0    0  501    0  0.00000000000E+00  0.00000000000E+00  0.23990297772E+04  0.23990297772E+04  0.25500000000E-02 0. -1.
         -2   -1    0    0    0  501 -0.00000000000E+00 -0.00000000000E+00 -0.49785653129E+03  0.49785653129E+03  0.25500000000E-02 0.  1.
    8880023    1    1    2    0    0  0.82795825190E+03  0.10647785871E+03  0.33378146569E+03  0.11144831423E+04  0.65864270000E+03 0.  0.
    8880022    1    1    2    0    0 -0.82795825190E+03 -0.10647785871E+03  0.15673917802E+04  0.17824031662E+04  0.15294330000E+03 0.  0.
<mgrwt>
<rscale>  0 0.10050435E+04</rscale>
<asrwt>0</asrwt>
<pdfrwt beam="1">  1        2 0.36908150E+00 0.10633262E+04</pdfrwt>
<pdfrwt beam="2">  1       -2 0.76593314E-01 0.10633262E+04</pdfrwt>
<totfact> 0.60707630E+00</totfact>
</mgrwt>
</event>
<event>
 4    1  0.9654646E-007  0.7209231E+03  0.7818608E-02  0.9919475E-01
          2   -1    0    0  501    0  0.00000000000E+00  0.00000000000E+00  0.44088512037E+04  0.44088512037E+04  0.25500000000E-02 0. -1.
         -2   -1    0    0    0  501 -0.00000000000E+00 -0.00000000000E+00 -0.73730306846E+02  0.73730306890E+02  0.25500000000E-02 0.  1.
    8880023    1    1    2    0    0 -0.28887424078E+03 -0.49714829854E+02  0.20372168975E+04  0.21610142954E+04  0.65864270000E+03 0.  1.
    8880022    1    1    2    0    0  0.28887424078E+03  0.49714829854E+02  0.22979039993E+04  0.23215672151E+04  0.15294330000E+03 0.  0.
<mgrwt>
<rscale>  0 0.59326668E+03</rscale>
<asrwt>0</asrwt>
<pdfrwt beam="1">  1        2 0.67828485E+00 0.72092309E+03</pdfrwt>
<pdfrwt beam="2">  1       -2 0.11343123E-01 0.72092309E+03</pdfrwt>
<totfact> 0.95211638E+00</totfact>
</mgrwt>
</event>
<event>
 4    1  0.9654646E-007  0.6977587E+03  0.7818608E-02  0.1000663E+00
         -2   -1    0    0    0  501 -0.00000000000E+00  0.00000000000E+00  0.11099757570E+04  0.11099757570E+04  0.25500000000E-02 0.  1.
          2   -1    0    0  501    0  0.00000000000E+00 -0.00000000000E+00 -0.10028494503E+04  0.10028494503E+04  0.25500000000E-02 0. -1.
    8880023    1    1    2    0    0  0.13541165670E+03  0.18633494706E+03  0.97670828650E+03  0.12003442475E+04  0.65864270000E+03 0.  1.
    8880022    1    1    2    0    0 -0.13541165670E+03 -0.18633494706E+03 -0.86958197988E+03  0.91248095981E+03  0.15294330000E+03 0.  0.
<mgrwt>
<rscale>  0 0.55360526E+03</rscale>
<asrwt>0</asrwt>
<pdfrwt beam="1">  1        2 0.15428453E+00 0.69775872E+03</pdfrwt>
<pdfrwt beam="2">  1       -2 0.17076550E+00 0.69775872E+03</pdfrwt>
<totfact> 0.54262650E+00</totfact>
</mgrwt>
</event>
<event>
 4    1  0.9654646E-007  0.8802018E+03  0.7818608E-02  0.9558592E-01
          2   -1    0    0  501    0  0.00000000000E+00  0.00000000000E+00  0.96617408331E+03  0.96617408332E+03  0.25500000000E-02 0. -1.
         -2   -1    0    0    0  501 -0.00000000000E+00 -0.00000000000E+00 -0.81701101106E+03  0.81701101106E+03  0.25500000000E-02 0.  1.
    8880023    1    1    2    0    0  0.98154878877E+02 -0.57559584509E+03  0.56884651489E+03  0.10480179010E+04  0.65864270000E+03 0.  0.
    8880022    1    1    2    0    0 -0.98154878877E+02  0.57559584509E+03 -0.41968344263E+03  0.73516719334E+03  0.15294330000E+03 0.  0.
<mgrwt>
<rscale>  0 0.80098527E+03</rscale>
<asrwt>0</asrwt>
<pdfrwt beam="1">  1        2 0.14864217E+00 0.88020177E+03</pdfrwt>
<pdfrwt beam="2">  1       -2 0.12569400E+00 0.88020177E+03</pdfrwt>
<totfact> 0.12565898E+01</totfact>
</mgrwt>
</event>
<event>
 4    1  0.9654646E-007  0.6773282E+03  0.7818608E-02  0.1010877E+00
          2   -1    0    0  501    0  0.00000000000E+00  0.00000000000E+00  0.83149964950E+03  0.83149964951E+03  0.25500000000E-02 0. -1.
         -2   -1    0    0    0  501 -0.00000000000E+00 -0.00000000000E+00 -0.40533033429E+03  0.40533033430E+03  0.25500000000E-02 0.  1.
    8880023    1    1    2    0    0  0.76005585477E+02 -0.13851513063E+03 -0.82817998682E+02  0.68237256510E+03  0.65864270000E+03 0.  1.
    8880022    1    1    2    0    0 -0.76005585477E+02  0.13851513063E+03  0.50898731389E+03  0.55445741871E+03  0.15294330000E+03 0.  0.
<mgrwt>
<rscale>  0 0.51127491E+03</rscale>
<asrwt>0</asrwt>
<pdfrwt beam="1">  1        2 0.12792302E+00 0.67732820E+03</pdfrwt>
<pdfrwt beam="2">  1       -2 0.62358513E-01 0.67732820E+03</pdfrwt>
<totfact> 0.79493847E+01</totfact>
</mgrwt>
</event>
<event>
 4    1  0.9654646E-007  0.6780705E+03  0.7818608E-02  0.1010437E+00
         -2   -1    0    0    0  501 -0.00000000000E+00  0.00000000000E+00  0.56686307746E+03  0.56686307747E+03  0.25500000000E-02 0.  1.
          2   -1    0    0  501    0  0.00000000000E+00 -0.00000000000E+00 -0.58060228400E+03  0.58060228400E+03  0.25500000000E-02 0. -1.
    8880023    1    1    2    0    0 -0.15936130857E+03  0.23943780358E+02  0.31741530392E+03  0.74868685892E+03  0.65864270000E+03 0.  1.
    8880022    1    1    2    0    0  0.15936130857E+03 -0.23943780358E+02 -0.33115451046E+03  0.39877850255E+03  0.15294330000E+03 0.  0.
<mgrwt>
<rscale>  0 0.51301385E+03</rscale>
<asrwt>0</asrwt>
<pdfrwt beam="1">  1        2 0.89323429E-01 0.67807045E+03</pdfrwt>
<pdfrwt beam="2">  1       -2 0.87209703E-01 0.67807045E+03</pdfrwt>
<totfact> 0.59638293E+01</totfact>
</mgrwt>
</event>
<event>
 4    1  0.9654646E-007  0.6994737E+03  0.7818608E-02  0.9999392E-01
         -2   -1    0    0    0  501 -0.00000000000E+00  0.00000000000E+00  0.22537759900E+03  0.22537759902E+03  0.25500000000E-02 0.  1.
          2   -1    0    0  501    0  0.00000000000E+00 -0.00000000000E+00 -0.23697136289E+04  0.23697136289E+04  0.25500000000E-02 0. -1.
    8880023    1    1    2    0    0  0.13295716930E+03  0.19435947214E+03 -0.35602075352E+03  0.78486571876E+03  0.65864270000E+03 0.  0.
    8880022    1    1    2    0    0 -0.13295716930E+03 -0.19435947214E+03 -0.17883152764E+04  0.18102255091E+04  0.15294330000E+03 0.  0.
<mgrwt>
<rscale>  0 0.55676921E+03</rscale>
<asrwt>0</asrwt>
<pdfrwt beam="1">  1        2 0.36457131E+00 0.69947367E+03</pdfrwt>
<pdfrwt beam="2">  1       -2 0.34673478E-01 0.69947367E+03</pdfrwt>
<totfact> 0.33795423E+01</totfact>
</mgrwt>
</event>
<event>
 4    1  0.9654646E-007  0.8976480E+03  0.7818608E-02  0.9529818E-01
          2   -1    0    0  501    0  0.00000000000E+00  0.00000000000E+00  0.26117178556E+04  0.26117178556E+04  0.25500000000E-02 0. -1.
         -2   -1    0    0    0  501 -0.00000000000E+00 -0.00000000000E+00 -0.25500221115E+03  0.25500221116E+03  0.25500000000E-02 0.  1.
    8880023    1    1    2    0    0  0.45944696464E+03  0.40108626443E+03  0.85928598521E+03  0.12426360350E+04  0.65864270000E+03 0.  0.
    8880022    1    1    2    0    0 -0.45944696464E+03 -0.40108626443E+03  0.14974296593E+04  0.16240840318E+04  0.15294330000E+03 0.  0.
<mgrwt>
<rscale>  0 0.82120716E+03</rscale>
<asrwt>0</asrwt>
<pdfrwt beam="1">  1        2 0.40180277E+00 0.89764799E+03</pdfrwt>
<pdfrwt beam="2">  1       -2 0.39231107E-01 0.89764799E+03</pdfrwt>
<totfact> 0.18897573E+01</totfact>
</mgrwt>
</event>
<event>
 4    1  0.9654646E-007  0.6902672E+03  0.7818608E-02  0.1004026E+00
          2   -1    0    0  501    0  0.00000000000E+00  0.00000000000E+00  0.44126243854E+03  0.44126243854E+03  0.25500000000E-02 0. -1.
         -2   -1    0    0    0  501 -0.00000000000E+00 -0.00000000000E+00 -0.60236289601E+03  0.60236289602E+03  0.25500000000E-02 0.  1.
    8880023    1    1    2    0    0  0.69024503502E+02  0.19466436803E+03 -0.29867858573E+03  0.75211548455E+03  0.65864270000E+03 0.  0.
    8880022    1    1    2    0    0 -0.69024503502E+02 -0.19466436803E+03  0.13757812825E+03  0.29150985001E+03  0.15294330000E+03 0.  0.
<mgrwt>
<rscale>  0 0.53919671E+03</rscale>
<asrwt>0</asrwt>
<pdfrwt beam="1">  1        2 0.67886529E-01 0.69026720E+03</pdfrwt>
<pdfrwt beam="2">  1       -2 0.92671215E-01 0.69026720E+03</pdfrwt>
<totfact> 0.71272266E+01</totfact>
</mgrwt>
</event>
<event>
 4    1  0.9654646E-007  0.6643585E+03  0.7818608E-02  0.1020078E+00
         -2   -1    0    0    0  501 -0.00000000000E+00  0.00000000000E+00  0.47650267462E+03  0.47650267462E+03  0.25500000000E-02 0.  1.
          2   -1    0    0  501    0  0.00000000000E+00 -0.00000000000E+00 -0.13121171889E+04  0.13121171889E+04  0.25500000000E-02 0. -1.
    8880023    1    1    2    0    0  0.39221583114E+02 -0.77611964294E+02  0.23420374036E+03  0.70443136489E+03  0.65864270000E+03 0.  1.
    8880022    1    1    2    0    0 -0.39221583114E+02  0.77611964294E+02 -0.10698182546E+04  0.10841884986E+04  0.15294330000E+03 0.  0.
<mgrwt>
<rscale>  0 0.47658542E+03</rscale>
<asrwt>0</asrwt>
<pdfrwt beam="1">  1        2 0.20186418E+00 0.66435845E+03</pdfrwt>
<pdfrwt beam="2">  1       -2 0.73308105E-01 0.66435845E+03</pdfrwt>
<totfact> 0.28153868E+01</totfact>
</mgrwt>
</event>
<event>
 4    1  0.9654646E-007  0.8033980E+03  0.7818608E-02  0.9703496E-01
         -2   -1    0    0    0  501 -0.00000000000E+00  0.00000000000E+00  0.43642318380E+03  0.43642318381E+03  0.25500000000E-02 0.  1.
          2   -1    0    0  501    0  0.00000000000E+00 -0.00000000000E+00 -0.18190740977E+04  0.18190740977E+04  0.25500000000E-02 0. -1.
    8880023    1    1    2    0    0 -0.35421766398E+03 -0.29354396441E+03 -0.13998963380E+02  0.80351999960E+03  0.65864270000E+03 0.  0.
    8880022    1    1    2    0    0  0.35421766398E+03  0.29354396441E+03 -0.13686519505E+04  0.14519772819E+04  0.15294330000E+03 0.  0.
<mgrwt>
<rscale>  0 0.70809000E+03</rscale>
<asrwt>0</asrwt>
<pdfrwt beam="1">  1        2 0.27985755E+00 0.80339805E+03</pdfrwt>
<pdfrwt beam="2">  1       -2 0.67142029E-01 0.80339805E+03</pdfrwt>
<totfact> 0.17539867E+01</totfact>
</mgrwt>
</event>
<event>
 4    1  0.9654646E-007  0.7572739E+03  0.7818608E-02  0.9812217E-01
          2   -1    0    0  501    0  0.00000000000E+00  0.00000000000E+00  0.19267012618E+04  0.19267012618E+04  0.25500000000E-02 0. -1.
         -2   -1    0    0    0  501 -0.00000000000E+00 -0.00000000000E+00 -0.26795414239E+03  0.26795414241E+03  0.25500000000E-02 0.  1.
    8880023    1    1    2    0    0  0.37357495068E+03 -0.97615204481E+01  0.36748157723E+03  0.84172825005E+03  0.65864270000E+03 0.  1.
    8880022    1    1    2    0    0 -0.37357495068E+03  0.97615204481E+01  0.12912655422E+04  0.13529271542E+04  0.15294330000E+03 0.  0.
<mgrwt>
<rscale>  0 0.64711018E+03</rscale>
<asrwt>0</asrwt>
<pdfrwt beam="1">  1        2 0.29641558E+00 0.75727389E+03</pdfrwt>
<pdfrwt beam="2">  1       -2 0.41223714E-01 0.75727389E+03</pdfrwt>
<totfact> 0.42075736E+01</totfact>
</mgrwt>
</event>
<event>
 4    1  0.9654646E-007  0.7237042E+03  0.7818608E-02  0.9910246E-01
          2   -1    0    0  501    0  0.00000000000E+00  0.00000000000E+00  0.23374279649E+04  0.23374279649E+04  0.25500000000E-02 0. -1.
         -2   -1    0    0    0  501 -0.00000000000E+00 -0.00000000000E+00 -0.14200563540E+03  0.14200563543E+03  0.25500000000E-02 0.  1.
    8880023    1    1    2    0    0 -0.25369256163E+03  0.15993024765E+03  0.98002957293E+03  0.12182798406E+04  0.65864270000E+03 0.  0.
    8880022    1    1    2    0    0  0.25369256163E+03 -0.15993024765E+03  0.12153927566E+04  0.12611537598E+04  0.15294330000E+03 0.  0.
<mgrwt>
<rscale>  0 0.59767293E+03</rscale>
<asrwt>0</asrwt>
<pdfrwt beam="1">  1        2 0.35960430E+00 0.72370423E+03</pdfrwt>
<pdfrwt beam="2">  1       -2 0.21847021E-01 0.72370423E+03</pdfrwt>
<totfact> 0.81794392E+01</totfact>
</mgrwt>
</event>
<event>
 4    1  0.9654646E-007  0.8286156E+03  0.7818608E-02  0.9652032E-01
          2   -1    0    0  501    0  0.00000000000E+00  0.00000000000E+00  0.29033191765E+04  0.29033191765E+04  0.25500000000E-02 0. -1.
         -2   -1    0    0    0  501 -0.00000000000E+00 -0.00000000000E+00 -0.40073770142E+03  0.40073770143E+03  0.25500000000E-02 0.  1.
    8880023    1    1    2    0    0 -0.24474632360E+03 -0.43919571204E+03  0.88378030703E+02  0.83331537785E+03  0.65864270000E+03 0.  0.
    8880022    1    1    2    0    0  0.24474632360E+03  0.43919571204E+03  0.24142034443E+04  0.24707415000E+04  0.15294330000E+03 0.  0.
<mgrwt>
<rscale>  0 0.73946037E+03</rscale>
<asrwt>0</asrwt>
<pdfrwt beam="1">  1        2 0.44666449E+00 0.82861562E+03</pdfrwt>
<pdfrwt beam="2">  1       -2 0.61651953E-01 0.82861562E+03</pdfrwt>
<totfact> 0.51219083E+00</totfact>
</mgrwt>
</event>
<event>
 4    1  0.9654646E-007  0.7316670E+03  0.7818608E-02  0.9884921E-01
         -2   -1    0    0    0  501 -0.00000000000E+00  0.00000000000E+00  0.24178180572E+03  0.24178180574E+03  0.25500000000E-02 0.  1.
          2   -1    0    0  501    0  0.00000000000E+00 -0.00000000000E+00 -0.12174795678E+04  0.12174795678E+04  0.25500000000E-02 0. -1.
    8880023    1    1    2    0    0  0.11334461678E+03  0.29779093018E+03 -0.65940034714E+03  0.98495962573E+03  0.65864270000E+03 0. -1.
    8880022    1    1    2    0    0 -0.11334461678E+03 -0.29779093018E+03 -0.31629741490E+03  0.47430174777E+03  0.15294330000E+03 0. -1.
<mgrwt>
<rscale>  0 0.60997675E+03</rscale>
<asrwt>0</asrwt>
<pdfrwt beam="1">  1        2 0.18730455E+00 0.73166703E+03</pdfrwt>
<pdfrwt beam="2">  1       -2 0.37197202E-01 0.73166703E+03</pdfrwt>
<totfact> 0.12792476E+02</totfact>
</mgrwt>
</event>
<event>
 4    1  0.9654646E-007  0.1223106E+04  0.7818608E-02  0.9134983E-01
         -2   -1    0    0    0  501 -0.00000000000E+00  0.00000000000E+00  0.85492420181E+03  0.85492420181E+03  0.25500000000E-02 0.  1.
          2   -1    0    0  501    0  0.00000000000E+00 -0.00000000000E+00 -0.33655656590E+04  0.33655656590E+04  0.25500000000E-02 0. -1.
    8880023    1    1    2    0    0  0.13934617325E+03  0.10211563526E+04  0.26870049333E+03  0.12522730588E+04  0.65864270000E+03 0.  0.
    8880022    1    1    2    0    0 -0.13934617325E+03 -0.10211563526E+04 -0.27793419505E+04  0.29682168020E+04  0.15294330000E+03 0.  0.
<mgrwt>
<rscale>  0 0.11750470E+04</rscale>
<asrwt>0</asrwt>
<pdfrwt beam="1">  1        2 0.51777932E+00 0.12231058E+04</pdfrwt>
<pdfrwt beam="2">  1       -2 0.13152680E+00 0.12231058E+04</pdfrwt>
<totfact> 0.42006330E-01</totfact>
</mgrwt>
</event>
<event>
 4    1  0.9654646E-007  0.7395954E+03  0.7818608E-02  0.9861127E-01
         -2   -1    0    0    0  501 -0.00000000000E+00  0.00000000000E+00  0.81886643832E+03  0.81886643833E+03  0.25500000000E-02 0.  1.
          2   -1    0    0  501    0  0.00000000000E+00 -0.00000000000E+00 -0.42392371562E+03  0.42392371563E+03  0.25500000000E-02 0. -1.
    8880023    1    1    2    0    0  0.27209456835E+03  0.19787798492E+03  0.45503523874E+03  0.86836537575E+03  0.65864270000E+03 0.  0.
    8880022    1    1    2    0    0 -0.27209456835E+03 -0.19787798492E+03 -0.60092516043E+02  0.37442477821E+03  0.15294330000E+03 0.  0.
<mgrwt>
<rscale>  0 0.62182783E+03</rscale>
<asrwt>0</asrwt>
<pdfrwt beam="1">  1        2 0.65219034E-01 0.73959540E+03</pdfrwt>
<pdfrwt beam="2">  1       -2 0.12597945E+00 0.73959540E+03</pdfrwt>
<totfact> 0.35443455E+01</totfact>
</mgrwt>
</event>
<event>
 4    1  0.9654646E-007  0.6965414E+03  0.7818608E-02  0.1001186E+00
          2   -1    0    0  501    0  0.00000000000E+00  0.00000000000E+00  0.22997575399E+04  0.22997575400E+04  0.25500000000E-02 0. -1.
         -2   -1    0    0    0  501 -0.00000000000E+00 -0.00000000000E+00 -0.16269920086E+03  0.16269920088E+03  0.25500000000E-02 0.  1.
    8880023    1    1    2    0    0 -0.15518753471E+03 -0.16515628044E+03  0.65750249518E+03  0.95785150484E+03  0.65864270000E+03 0.  1.
    8880022    1    1    2    0    0  0.15518753471E+03  0.16515628044E+03  0.14795558439E+04  0.15046052360E+04  0.15294330000E+03 0.  0.
<mgrwt>
<rscale>  0 0.55133130E+03</rscale>
<asrwt>0</asrwt>
<pdfrwt beam="1">  1        2 0.35380883E+00 0.69654144E+03</pdfrwt>
<pdfrwt beam="2">  1       -2 0.25030648E-01 0.69654144E+03</pdfrwt>
<totfact> 0.67554623E+01</totfact>
</mgrwt>
</event>
<event>
 4    1  0.9857076E-007  0.1077750E+04  0.7818608E-02  0.9286242E-01
          2   -1    0    0  501    0  0.00000000000E+00  0.00000000000E+00  0.16652846499E+04  0.16652846499E+04  0.25500000000E-02 0. -1.
         -2   -1    0    0    0  501 -0.00000000000E+00 -0.00000000000E+00 -0.16144170463E+04  0.16144170463E+04  0.25500000000E-02 0.  1.
    8880023    1    1    2    0    0 -0.60908594883E+03  0.59728519307E+03 -0.12913440946E+04  0.16819973460E+04  0.65864270000E+03 0.  1.
    8880022    1    1    2    0    0  0.60908594883E+03 -0.59728519307E+03  0.13422116982E+04  0.15977043502E+04  0.15294330000E+03 0.  0.
<mgrwt>
<rscale>  0 0.10205934E+04</rscale>
<asrwt>0</asrwt>
<pdfrwt beam="1">  1        2 0.25619764E+00 0.10777502E+04</pdfrwt>
<pdfrwt beam="2">  1       -2 0.24837185E+00 0.10777502E+04</pdfrwt>
<totfact> 0.66608753E-01</totfact>
</mgrwt>
</event>
<event>
 4    1  0.9654646E-007  0.8714669E+03  0.7818608E-02  0.9573483E-01
         -2   -1    0    0    0  501 -0.00000000000E+00  0.00000000000E+00  0.71971228219E+03  0.71971228220E+03  0.25500000000E-02 0.  1.
          2   -1    0    0  501    0  0.00000000000E+00 -0.00000000000E+00 -0.13675761150E+04  0.13675761150E+04  0.25500000000E-02 0. -1.
    8880023    1    1    2    0    0 -0.47183523799E+03 -0.32096087708E+03  0.34065225314E+03  0.93568078972E+03  0.65864270000E+03 0.  1.
    8880022    1    1    2    0    0  0.47183523799E+03  0.32096087708E+03 -0.98851608598E+03  0.11516076075E+04  0.15294330000E+03 0.  0.
<mgrwt>
<rscale>  0 0.79076413E+03</rscale>
<asrwt>0</asrwt>
<pdfrwt beam="1">  1        2 0.21039632E+00 0.87146691E+03</pdfrwt>
<pdfrwt beam="2">  1       -2 0.11072497E+00 0.87146691E+03</pdfrwt>
<totfact> 0.98393200E+00</totfact>
</mgrwt>
</event>
<event>
 4    1  0.9654646E-007  0.6599670E+03  0.7818608E-02  0.1024190E+00
          2   -1    0    0  501    0  0.00000000000E+00  0.00000000000E+00  0.40964467639E+04  0.40964467639E+04  0.25500000000E-02 0. -1.
         -2   -1    0    0    0  501 -0.00000000000E+00 -0.00000000000E+00 -0.15950055963E+03  0.15950055965E+03  0.25500000000E-02 0.  1.
    8880023    1    1    2    0    0  0.77636271058E+01 -0.41060816756E+02  0.53302307154E+03  0.84833369946E+03  0.65864270000E+03 0.  1.
    8880022    1    1    2    0    0 -0.77636271058E+01  0.41060816756E+02  0.34039231328E+04  0.34076136241E+04  0.15294330000E+03 0.  0.
<mgrwt>
<rscale>  0 0.46204347E+03</rscale>
<asrwt>0</asrwt>
<pdfrwt beam="1">  1        2 0.63022264E+00 0.65996702E+03</pdfrwt>
<pdfrwt beam="2">  1       -2 0.24538545E-01 0.65996702E+03</pdfrwt>
<totfact> 0.47872775E+00</totfact>
</mgrwt>
</event>
<event>
 4    1  0.9654646E-007  0.7474728E+03  0.7818608E-02  0.9838691E-01
          2   -1    0    0  501    0  0.00000000000E+00  0.00000000000E+00  0.18797056348E+04  0.18797056348E+04  0.25500000000E-02 0. -1.
         -2   -1    0    0    0  501 -0.00000000000E+00 -0.00000000000E+00 -0.19663623706E+03  0.19663623708E+03  0.25500000000E-02 0.  1.
    8880023    1    1    2    0    0 -0.13014662208E+03 -0.32858370037E+03  0.71453534286E+03  0.10340581965E+04  0.65864270000E+03 0.  1.
    8880022    1    1    2    0    0  0.13014662208E+03  0.32858370037E+03  0.96853405493E+03  0.10422836754E+04  0.15294330000E+03 0.  0.
<mgrwt>
<rscale>  0 0.63326883E+03</rscale>
<asrwt>0</asrwt>
<pdfrwt beam="1">  1        2 0.28918548E+00 0.74747281E+03</pdfrwt>
<pdfrwt beam="2">  1       -2 0.30251729E-01 0.74747281E+03</pdfrwt>
<totfact> 0.80648284E+01</totfact>
</mgrwt>
</event>
<event>
 4    1  0.9654646E-007  0.7279967E+03  0.7818608E-02  0.9896402E-01
         -2   -1    0    0    0  501 -0.00000000000E+00  0.00000000000E+00  0.44735011858E+03  0.44735011859E+03  0.25500000000E-02 0.  1.
          2   -1    0    0  501    0  0.00000000000E+00 -0.00000000000E+00 -0.11921532222E+04  0.11921532222E+04  0.25500000000E-02 0. -1.
    8880023    1    1    2    0    0 -0.30488232449E+03  0.56708076061E+02  0.92274603663E+02  0.73382139954E+03  0.65864270000E+03 0.  1.
    8880022    1    1    2    0    0  0.30488232449E+03 -0.56708076061E+02 -0.83707770732E+03  0.90568194130E+03  0.15294330000E+03 0.  0.
<mgrwt>
<rscale>  0 0.60435988E+03</rscale>
<asrwt>0</asrwt>
<pdfrwt beam="1">  1        2 0.18340819E+00 0.72799673E+03</pdfrwt>
<pdfrwt beam="2">  1       -2 0.68823096E-01 0.72799673E+03</pdfrwt>
<totfact> 0.37691014E+01</totfact>
</mgrwt>
</event>
<event>
 4    1  0.9654646E-007  0.6599471E+03  0.7818608E-02  0.1024211E+00
          2   -1    0    0  501    0  0.00000000000E+00  0.00000000000E+00  0.27079008217E+03  0.27079008218E+03  0.25500000000E-02 0. -1.
         -2   -1    0    0    0  501 -0.00000000000E+00 -0.00000000000E+00 -0.71209141488E+03  0.71209141489E+03  0.25500000000E-02 0.  1.
    8880023    1    1    2    0    0 -0.84902175670E+01 -0.40594816428E+02 -0.48442020484E+03  0.81865326240E+03  0.65864270000E+03 0.  1.
    8880022    1    1    2    0    0  0.84902175670E+01  0.40594816428E+02  0.43118872119E+02  0.16422823467E+03  0.15294330000E+03 0.  0.
<mgrwt>
<rscale>  0 0.46197272E+03</rscale>
<asrwt>0</asrwt>
<pdfrwt beam="1">  1        2 0.41660013E-01 0.65994714E+03</pdfrwt>
<pdfrwt beam="2">  1       -2 0.10955252E+00 0.65994714E+03</pdfrwt>
<totfact> 0.82827953E+01</totfact>
</mgrwt>
</event>
<event>
 4    1  0.9654646E-007  0.7769873E+03  0.7818608E-02  0.9762962E-01
          2   -1    0    0  501    0  0.00000000000E+00  0.00000000000E+00  0.14943694351E+04  0.14943694351E+04  0.25500000000E-02 0. -1.
         -2   -1    0    0    0  501 -0.00000000000E+00 -0.00000000000E+00 -0.49418497400E+03  0.49418497401E+03  0.25500000000E-02 0.  1.
    8880023    1    1    2    0    0 -0.45337143225E+01  0.41216321848E+03 -0.11906104746E+03  0.78605649448E+03  0.65864270000E+03 0.  1.
    8880022    1    1    2    0    0  0.45337143225E+01 -0.41216321848E+03  0.11192455086E+04  0.12024979146E+04  0.15294330000E+03 0.  0.
<mgrwt>
<rscale>  0 0.67388660E+03</rscale>
<asrwt>0</asrwt>
<pdfrwt beam="1">  1        2 0.22990299E+00 0.77698731E+03</pdfrwt>
<pdfrwt beam="2">  1       -2 0.76028456E-01 0.77698731E+03</pdfrwt>
<totfact> 0.20217130E+01</totfact>
</mgrwt>
</event>
<event>
 4    1  0.9654646E-007  0.7130735E+03  0.7818608E-02  0.9946760E-01
         -2   -1    0    0    0  501 -0.00000000000E+00  0.00000000000E+00  0.16720436483E+03  0.16720436485E+03  0.25500000000E-02 0.  1.
          2   -1    0    0  501    0  0.00000000000E+00 -0.00000000000E+00 -0.16366504774E+04  0.16366504774E+04  0.25500000000E-02 0. -1.
    8880023    1    1    2    0    0 -0.26335677033E+03 -0.72847962534E+02 -0.84790125753E+03  0.11078855369E+04  0.65864270000E+03 0.  0.
    8880022    1    1    2    0    0  0.26335677033E+03  0.72847962534E+02 -0.62154485502E+03  0.69596930531E+03  0.15294330000E+03 0.  0.
<mgrwt>
<rscale>  0 0.58047643E+03</rscale>
<asrwt>0</asrwt>
<pdfrwt beam="1">  1        2 0.25179237E+00 0.71307350E+03</pdfrwt>
<pdfrwt beam="2">  1       -2 0.25723750E-01 0.71307350E+03</pdfrwt>
<totfact> 0.14787988E+02</totfact>
</mgrwt>
</event>
<event>
 4    1  0.1428433E-006  0.7986806E+03  0.7818608E-02  0.9713656E-01
          2   -1    0    0  501    0  0.00000000000E+00  0.00000000000E+00  0.21452066110E+04  0.21452066110E+04  0.25500000000E-02 0. -1.
         -2   -1    0    0    0  501 -0.00000000000E+00 -0.00000000000E+00 -0.11131027745E+04  0.11131027745E+04  0.25500000000E-02 0.  1.
    8880023    1    1    2    0    0  0.42554136746E+03  0.15164110802E+03 -0.93761502266E+03  0.12316706614E+04  0.65864270000E+03 0.  1.
    8880022    1    1    2    0    0 -0.42554136746E+03 -0.15164110802E+03  0.19697188592E+04  0.20266387242E+04  0.15294330000E+03 0.  0.
<mgrwt>
<rscale>  0 0.70209499E+03</rscale>
<asrwt>0</asrwt>
<pdfrwt beam="1">  1        2 0.33003178E+00 0.79868059E+03</pdfrwt>
<pdfrwt beam="2">  1       -2 0.17124658E+00 0.79868059E+03</pdfrwt>
<totfact> 0.11968831E+00</totfact>
</mgrwt>
</event>
<event>
 4    1  0.9654646E-007  0.7843078E+03  0.7818608E-02  0.9745813E-01
         -2   -1    0    0    0  501 -0.00000000000E+00  0.00000000000E+00  0.12884784463E+03  0.12884784466E+03  0.25500000000E-02 0.  1.
          2   -1    0    0  501    0  0.00000000000E+00 -0.00000000000E+00 -0.30517826488E+04  0.30517826488E+04  0.25500000000E-02 0. -1.
    8880023    1    1    2    0    0  0.41435871867E+03 -0.98160124647E+02 -0.20971831928E+04  0.22390435700E+04  0.65864270000E+03 0.  0.
    8880022    1    1    2    0    0 -0.41435871867E+03  0.98160124647E+02 -0.82575161142E+03  0.94158692355E+03  0.15294330000E+03 0. -1.
<mgrwt>
<rscale>  0 0.68353381E+03</rscale>
<asrwt>0</asrwt>
<pdfrwt beam="1">  1        2 0.46950497E+00 0.78430782E+03</pdfrwt>
<pdfrwt beam="2">  1       -2 0.19822748E-01 0.78430782E+03</pdfrwt>
<totfact> 0.36858031E+01</totfact>
</mgrwt>
</event>
<event>
 4    1  0.9654646E-007  0.7915330E+03  0.7818608E-02  0.9729412E-01
          2   -1    0    0  501    0  0.00000000000E+00  0.00000000000E+00  0.21532055500E+04  0.21532055500E+04  0.25500000000E-02 0. -1.
         -2   -1    0    0    0  501 -0.00000000000E+00 -0.00000000000E+00 -0.21656919166E+03  0.21656919167E+03  0.25500000000E-02 0.  1.
    8880023    1    1    2    0    0  0.77137829465E+02 -0.43216196556E+03  0.73031049580E+03  0.10769762466E+04  0.65864270000E+03 0.  0.
    8880022    1    1    2    0    0 -0.77137829465E+02  0.43216196556E+03  0.12063258626E+04  0.12927984951E+04  0.15294330000E+03 0.  0.
<mgrwt>
<rscale>  0 0.69292315E+03</rscale>
<asrwt>0</asrwt>
<pdfrwt beam="1">  1        2 0.33126240E+00 0.79153295E+03</pdfrwt>
<pdfrwt beam="2">  1       -2 0.33318336E-01 0.79153295E+03</pdfrwt>
<totfact> 0.47453530E+01</totfact>
</mgrwt>
</event>
<event>
 4    1  0.9654646E-007  0.7525511E+03  0.7818608E-02  0.9824788E-01
         -2   -1    0    0    0  501 -0.00000000000E+00  0.00000000000E+00  0.30946658060E+03  0.30946658061E+03  0.25500000000E-02 0.  1.
          2   -1    0    0  501    0  0.00000000000E+00 -0.00000000000E+00 -0.20934399305E+04  0.20934399305E+04  0.25500000000E-02 0. -1.
    8880023    1    1    2    0    0 -0.22583425110E+03 -0.28552026151E+03 -0.21163153607E+03  0.78174231178E+03  0.65864270000E+03 0.  0.
    8880022    1    1    2    0    0  0.22583425110E+03  0.28552026151E+03 -0.15723418138E+04  0.16211641993E+04  0.15294330000E+03 0.  0.
<mgrwt>
<rscale>  0 0.64049070E+03</rscale>
<asrwt>0</asrwt>
<pdfrwt beam="1">  1        2 0.32206767E+00 0.75255108E+03</pdfrwt>
<pdfrwt beam="2">  1       -2 0.47610244E-01 0.75255108E+03</pdfrwt>
<totfact> 0.25634801E+01</totfact>
</mgrwt>
</event>
<event>
 4    1  0.9654646E-007  0.1656570E+04  0.7818608E-02  0.8806323E-01
          2   -1    0    0  501    0  0.00000000000E+00  0.00000000000E+00  0.14367146330E+04  0.14367146330E+04  0.25500000000E-02 0. -1.
         -2   -1    0    0    0  501 -0.00000000000E+00 -0.00000000000E+00 -0.46247275985E+04  0.46247275985E+04  0.25500000000E-02 0.  1.
    8880023    1    1    2    0    0 -0.45595678774E+03 -0.14500059960E+04 -0.40013749791E+04  0.43307304130E+04  0.65864270000E+03 0.  1.
    8880022    1    1    2    0    0  0.45595678774E+03  0.14500059960E+04  0.81336201354E+03  0.17307118185E+04  0.15294330000E+03 0.  0.
<mgrwt>
<rscale>  0 0.16233622E+04</rscale>
<asrwt>0</asrwt>
<pdfrwt beam="1">  1        2 0.22103302E+00 0.16565700E+04</pdfrwt>
<pdfrwt beam="2">  1       -2 0.71149655E+00 0.16565700E+04</pdfrwt>
<totfact> 0.25990206E-03</totfact>
</mgrwt>
</event>
<event>
 4    1  0.9654646E-007  0.7049755E+03  0.7818608E-02  0.9977155E-01
         -2   -1    0    0    0  501 -0.00000000000E+00  0.00000000000E+00  0.13609554414E+03  0.13609554416E+03  0.25500000000E-02 0.  1.
          2   -1    0    0  501    0  0.00000000000E+00 -0.00000000000E+00 -0.26749212063E+04  0.26749212063E+04  0.25500000000E-02 0. -1.
    8880023    1    1    2    0    0 -0.25120033886E+03  0.88679089923E+01 -0.88620854836E+03  0.11324116069E+04  0.65864270000E+03 0.  1.
    8880022    1    1    2    0    0  0.25120033886E+03 -0.88679089923E+01 -0.16526171138E+04  0.16786051436E+04  0.15294330000E+03 0.  0.
<mgrwt>
<rscale>  0 0.56663401E+03</rscale>
<asrwt>0</asrwt>
<pdfrwt beam="1">  1        2 0.41152630E+00 0.70497550E+03</pdfrwt>
<pdfrwt beam="2">  1       -2 0.20937778E-01 0.70497550E+03</pdfrwt>
<totfact> 0.56889079E+01</totfact>
</mgrwt>
</event>
<event>
 4    1  0.9654646E-007  0.1021003E+04  0.7818608E-02  0.9354581E-01
         -2   -1    0    0    0  501 -0.00000000000E+00  0.00000000000E+00  0.63116066270E+03  0.63116066271E+03  0.25500000000E-02 0.  1.
          2   -1    0    0  501    0  0.00000000000E+00 -0.00000000000E+00 -0.14178175061E+04  0.14178175061E+04  0.25500000000E-02 0. -1.
    8880023    1    1    2    0    0  0.38915910536E+03 -0.67615994231E+03 -0.15312940659E+03  0.10324223449E+04  0.65864270000E+03 0.  1.
    8880022    1    1    2    0    0 -0.38915910536E+03  0.67615994231E+03 -0.63352743680E+03  0.10165558239E+04  0.15294330000E+03 0. -1.
<mgrwt>
<rscale>  0 0.95909669E+03</rscale>
<asrwt>0</asrwt>
<pdfrwt beam="1">  1        2 0.21812577E+00 0.10210031E+04</pdfrwt>
<pdfrwt beam="2">  1       -2 0.97101641E-01 0.10210031E+04</pdfrwt>
<totfact> 0.12430110E+01</totfact>
</mgrwt>
</event>
<event>
 4    1  0.9654646E-007  0.8775504E+03  0.7818608E-02  0.9563076E-01
         -2   -1    0    0    0  501 -0.00000000000E+00  0.00000000000E+00  0.39029813219E+03  0.39029813220E+03  0.25500000000E-02 0.  1.
          2   -1    0    0  501    0  0.00000000000E+00 -0.00000000000E+00 -0.18329751914E+04  0.18329751914E+04  0.25500000000E-02 0. -1.
    8880023    1    1    2    0    0  0.50888144478E+03  0.27807229608E+03 -0.29054944101E+03  0.92439910787E+03  0.65864270000E+03 0.  0.
    8880022    1    1    2    0    0 -0.50888144478E+03 -0.27807229608E+03 -0.11521276182E+04  0.12988742158E+04  0.15294330000E+03 0.  0.
<mgrwt>
<rscale>  0 0.79788999E+03</rscale>
<asrwt>0</asrwt>
<pdfrwt beam="1">  1        2 0.28199618E+00 0.87755042E+03</pdfrwt>
<pdfrwt beam="2">  1       -2 0.60045868E-01 0.87755042E+03</pdfrwt>
<totfact> 0.21699475E+01</totfact>
</mgrwt>
</event>
<event>
 4    1  0.9654646E-007  0.7569634E+03  0.7818608E-02  0.9813033E-01
          2   -1    0    0  501    0  0.00000000000E+00  0.00000000000E+00  0.89740039482E+03  0.89740039482E+03  0.25500000000E-02 0. -1.
         -2   -1    0    0    0  501 -0.00000000000E+00 -0.00000000000E+00 -0.45738296504E+03  0.45738296505E+03  0.25500000000E-02 0.  1.
    8880023    1    1    2    0    0 -0.14317615205E+03  0.34450530029E+03 -0.13580768178E+01  0.75696457188E+03  0.65864270000E+03 0.  1.
    8880022    1    1    2    0    0  0.14317615205E+03 -0.34450530029E+03  0.44137550659E+03  0.59781878799E+03  0.15294330000E+03 0.  0.
<mgrwt>
<rscale>  0 0.64667765E+03</rscale>
<asrwt>0</asrwt>
<pdfrwt beam="1">  1        2 0.13806160E+00 0.75696335E+03</pdfrwt>
<pdfrwt beam="2">  1       -2 0.70366610E-01 0.75696335E+03</pdfrwt>
<totfact> 0.54851460E+01</totfact>
</mgrwt>
</event>
<event>
 4    1  0.9654646E-007  0.6613137E+03  0.7818608E-02  0.1022849E+00
         -2   -1    0    0    0  501 -0.00000000000E+00  0.00000000000E+00  0.11690918598E+03  0.11690918601E+03  0.25500000000E-02 0.  1.
          2   -1    0    0  501    0  0.00000000000E+00 -0.00000000000E+00 -0.17658862127E+04  0.17658862127E+04  0.25500000000E-02 0. -1.
    8880023    1    1    2    0    0 -0.49690730242E+02  0.32503420526E+02 -0.90459846735E+03  0.11205508620E+04  0.65864270000E+03 0.  0.
    8880022    1    1    2    0    0  0.49690730242E+02 -0.32503420526E+02 -0.74437855938E+03  0.76224453668E+03  0.15294330000E+03 0.  0.
<mgrwt>
<rscale>  0 0.46672340E+03</rscale>
<asrwt>0</asrwt>
<pdfrwt beam="1">  1        2 0.27167478E+00 0.66131373E+03</pdfrwt>
<pdfrwt beam="2">  1       -2 0.17986030E-01 0.66131373E+03</pdfrwt>
<totfact> 0.23752048E+02</totfact>
</mgrwt>
</event>
<event>
 4    1  0.9654646E-007  0.1016718E+04  0.7818608E-02  0.9360005E-01
         -2   -1    0    0    0  501 -0.00000000000E+00  0.00000000000E+00  0.53979504030E+03  0.53979504031E+03  0.25500000000E-02 0.  1.
          2   -1    0    0  501    0  0.00000000000E+00 -0.00000000000E+00 -0.22123845207E+04  0.22123845207E+04  0.25500000000E-02 0. -1.
    8880023    1    1    2    0    0  0.76717327584E+03  0.10654094139E+03 -0.13750417510E+03  0.10259743719E+04  0.65864270000E+03 0.  1.
    8880022    1    1    2    0    0 -0.76717327584E+03 -0.10654094139E+03 -0.15350853053E+04  0.17262051891E+04  0.15294330000E+03 0.  0.
<mgrwt>
<rscale>  0 0.95441529E+03</rscale>
<asrwt>0</asrwt>
<pdfrwt beam="1">  1        2 0.34036685E+00 0.10167183E+04</pdfrwt>
<pdfrwt beam="2">  1       -2 0.83045392E-01 0.10167183E+04</pdfrwt>
<totfact> 0.64742756E+00</totfact>
</mgrwt>
</event>
<event>
 4    1  0.9654646E-007  0.6741338E+03  0.7818608E-02  0.1012858E+00
          2   -1    0    0  501    0  0.00000000000E+00  0.00000000000E+00  0.15409835898E+04  0.15409835898E+04  0.25500000000E-02 0. -1.
         -2   -1    0    0    0  501 -0.00000000000E+00 -0.00000000000E+00 -0.49282767995E+03  0.49282767996E+03  0.25500000000E-02 0.  1.
    8880023    1    1    2    0    0  0.56814958145E+02 -0.13197817251E+03 -0.24985486099E+03  0.71894633688E+03  0.65864270000E+03 0.  1.
    8880022    1    1    2    0    0 -0.56814958145E+02  0.13197817251E+03  0.12980107708E+04  0.13148649328E+04  0.15294330000E+03 0.  0.
<mgrwt>
<rscale>  0 0.50354445E+03</rscale>
<asrwt>0</asrwt>
<pdfrwt beam="1">  1        2 0.23707440E+00 0.67413380E+03</pdfrwt>
<pdfrwt beam="2">  1       -2 0.75819643E-01 0.67413380E+03</pdfrwt>
<totfact> 0.19417734E+01</totfact>
</mgrwt>
</event>
<event>
 4    1  0.9654646E-007  0.9780063E+03  0.7818608E-02  0.9410915E-01
          2   -1    0    0  501    0  0.00000000000E+00  0.00000000000E+00  0.14660249667E+04  0.14660249667E+04  0.25500000000E-02 0. -1.
         -2   -1    0    0    0  501 -0.00000000000E+00 -0.00000000000E+00 -0.12036218936E+04  0.12036218936E+04  0.25500000000E-02 0.  1.
    8880023    1    1    2    0    0  0.20839219801E+03 -0.69228516537E+03 -0.87564553448E+03  0.13127266915E+04  0.65864270000E+03 0.  0.
    8880022    1    1    2    0    0 -0.20839219801E+03  0.69228516537E+03  0.11380486075E+04  0.13569201688E+04  0.15294330000E+03 0.  0.
<mgrwt>
<rscale>  0 0.91182823E+03</rscale>
<asrwt>0</asrwt>
<pdfrwt beam="1">  1        2 0.22554230E+00 0.97800627E+03</pdfrwt>
<pdfrwt beam="2">  1       -2 0.18517260E+00 0.97800627E+03</pdfrwt>
<totfact> 0.22072586E+00</totfact>
</mgrwt>
</event>
<event>
 4    1  0.9654646E-007  0.7314519E+03  0.7818608E-02  0.9885585E-01
          2   -1    0    0  501    0  0.00000000000E+00  0.00000000000E+00  0.83470278982E+03  0.83470278982E+03  0.25500000000E-02 0. -1.
         -2   -1    0    0    0  501 -0.00000000000E+00 -0.00000000000E+00 -0.71375777008E+03  0.71375777009E+03  0.25500000000E-02 0.  1.
    8880023    1    1    2    0    0  0.12590656303E+03 -0.29216298826E+03 -0.46331750815E+03  0.86584351585E+03  0.65864270000E+03 0.  1.
    8880022    1    1    2    0    0 -0.12590656303E+03  0.29216298826E+03  0.58426252789E+03  0.68261704405E+03  0.15294330000E+03 0.  0.
<mgrwt>
<rscale>  0 0.60964994E+03</rscale>
<asrwt>0</asrwt>
<pdfrwt beam="1">  1        2 0.12841581E+00 0.73145190E+03</pdfrwt>
<pdfrwt beam="2">  1       -2 0.10980889E+00 0.73145190E+03</pdfrwt>
<totfact> 0.21822617E+01</totfact>
</mgrwt>
</event>
<event>
 4    1  0.9654646E-007  0.7299323E+03  0.7818608E-02  0.9890308E-01
         -2   -1    0    0    0  501 -0.00000000000E+00  0.00000000000E+00  0.97892254368E+03  0.97892254368E+03  0.25500000000E-02 0.  1.
          2   -1    0    0  501    0  0.00000000000E+00 -0.00000000000E+00 -0.71414203243E+03  0.71414203243E+03  0.25500000000E-02 0. -1.
    8880023    1    1    2    0    0 -0.23089957401E+03  0.21372030278E+03  0.78130377868E+03  0.10692225128E+04  0.65864270000E+03 0.  0.
    8880022    1    1    2    0    0  0.23089957401E+03 -0.21372030278E+03 -0.51652326744E+03  0.62384206328E+03  0.15294330000E+03 0.  0.
<mgrwt>
<rscale>  0 0.60733305E+03</rscale>
<asrwt>0</asrwt>
<pdfrwt beam="1">  1        2 0.10986801E+00 0.72993232E+03</pdfrwt>
<pdfrwt beam="2">  1       -2 0.15060347E+00 0.72993232E+03</pdfrwt>
<totfact> 0.12049205E+01</totfact>
</mgrwt>
</event>
<event>
 4    1  0.9654646E-007  0.1202628E+04  0.7818608E-02  0.9154572E-01
         -2   -1    0    0    0  501 -0.00000000000E+00  0.00000000000E+00  0.11118986697E+04  0.11118986697E+04  0.25500000000E-02 0.  1.
          2   -1    0    0  501    0  0.00000000000E+00 -0.00000000000E+00 -0.14256971094E+04  0.14256971094E+04  0.25500000000E-02 0. -1.
    8880023    1    1    2    0    0 -0.74060242078E+03 -0.68118415129E+03 -0.76389145117E+03  0.14247259909E+04  0.65864270000E+03 0. -1.
    8880022    1    1    2    0    0  0.74060242078E+03  0.68118415129E+03  0.45009301152E+03  0.11128697883E+04  0.15294330000E+03 0.  0.
<mgrwt>
<rscale>  0 0.11534877E+04</rscale>
<asrwt>0</asrwt>
<pdfrwt beam="1">  1        2 0.21933802E+00 0.12026280E+04</pdfrwt>
<pdfrwt beam="2">  1       -2 0.17106133E+00 0.12026280E+04</pdfrwt>
<totfact> 0.28440899E+00</totfact>
</mgrwt>
</event>
<event>
 4    1  0.9654646E-007  0.9062021E+03  0.7818608E-02  0.9516148E-01
          2   -1    0    0  501    0  0.00000000000E+00  0.00000000000E+00  0.23730200332E+04  0.23730200332E+04  0.25500000000E-02 0. -1.
         -2   -1    0    0    0  501 -0.00000000000E+00 -0.00000000000E+00 -0.33592703602E+03  0.33592703603E+03  0.25500000000E-02 0.  1.
    8880023    1    1    2    0    0 -0.16350674700E+03 -0.60054768021E+03  0.48081305239E+03  0.10258573829E+04  0.65864270000E+03 0.  1.
    8880022    1    1    2    0    0  0.16350674700E+03  0.60054768021E+03  0.15562799448E+04  0.16830896863E+04  0.15294330000E+03 0.  0.
<mgrwt>
<rscale>  0 0.83103712E+03</rscale>
<asrwt>0</asrwt>
<pdfrwt beam="1">  1        2 0.36508000E+00 0.90620206E+03</pdfrwt>
<pdfrwt beam="2">  1       -2 0.51681082E-01 0.90620206E+03</pdfrwt>
<totfact> 0.14876819E+01</totfact>
</mgrwt>
</event>
<event>
 4    1  0.9654646E-007  0.1019037E+04  0.7818608E-02  0.9357064E-01
          2   -1    0    0  501    0  0.00000000000E+00  0.00000000000E+00  0.46528745421E+03  0.46528745422E+03  0.25500000000E-02 0. -1.
         -2   -1    0    0    0  501 -0.00000000000E+00 -0.00000000000E+00 -0.19745851199E+04  0.19745851199E+04  0.25500000000E-02 0.  1.
    8880023    1    1    2    0    0  0.62276858656E+03  0.46560287482E+03 -0.12352791500E+04  0.16013592770E+04  0.65864270000E+03 0.  1.
    8880022    1    1    2    0    0 -0.62276858656E+03 -0.46560287482E+03 -0.27401851567E+03  0.83851329708E+03  0.15294330000E+03 0. -1.
<mgrwt>
<rscale>  0 0.95694967E+03</rscale>
<asrwt>0</asrwt>
<pdfrwt beam="1">  1        2 0.71582686E-01 0.10190373E+04</pdfrwt>
<pdfrwt beam="2">  1       -2 0.30378232E+00 0.10190373E+04</pdfrwt>
<totfact> 0.20286222E+00</totfact>
</mgrwt>
</event>
<event>
 4    1  0.9654646E-007  0.1057893E+04  0.7818608E-02  0.9309452E-01
         -2   -1    0    0    0  501 -0.00000000000E+00  0.00000000000E+00  0.59887701224E+03  0.59887701224E+03  0.25500000000E-02 0.  1.
          2   -1    0    0  501    0  0.00000000000E+00 -0.00000000000E+00 -0.21260908680E+04  0.21260908680E+04  0.25500000000E-02 0. -1.
    8880023    1    1    2    0    0  0.71144517991E+03 -0.42328940812E+03 -0.93053690128E+02  0.10619780424E+04  0.65864270000E+03 0.  0.
    8880022    1    1    2    0    0 -0.71144517991E+03  0.42328940812E+03 -0.14341601657E+04  0.16629898379E+04  0.15294330000E+03 0.  0.
<mgrwt>
<rscale>  0 0.99917312E+03</rscale>
<asrwt>0</asrwt>
<pdfrwt beam="1">  1        2 0.32709090E+00 0.10578934E+04</pdfrwt>
<pdfrwt beam="2">  1       -2 0.92134926E-01 0.10578934E+04</pdfrwt>
<totfact> 0.56642743E+00</totfact>
</mgrwt>
</event>
<event>
 4    1  0.9654646E-007  0.9644548E+03  0.7818608E-02  0.9429615E-01
          2   -1    0    0  501    0  0.00000000000E+00  0.00000000000E+00  0.41522292190E+03  0.41522292191E+03  0.25500000000E-02 0. -1.
         -2   -1    0    0    0  501 -0.00000000000E+00 -0.00000000000E+00 -0.21431944366E+04  0.21431944366E+04  0.25500000000E-02 0.  1.
    8880023    1    1    2    0    0  0.28820165964E+03 -0.64288622668E+03 -0.15337322454E+04  0.18117692193E+04  0.65864270000E+03 0.  0.
    8880022    1    1    2    0    0 -0.28820165964E+03  0.64288622668E+03 -0.19423926928E+03  0.74664813923E+03  0.15294330000E+03 0.  0.
<mgrwt>
<rscale>  0 0.89678060E+03</rscale>
<asrwt>0</asrwt>
<pdfrwt beam="1">  1        2 0.63880451E-01 0.96445482E+03</pdfrwt>
<pdfrwt beam="2">  1       -2 0.32972221E+00 0.96445482E+03</pdfrwt>
<totfact> 0.16158373E+00</totfact>
</mgrwt>
</event>
<event>
 4    1  0.9654646E-007  0.7317954E+03  0.7818608E-02  0.9884525E-01
         -2   -1    0    0    0  501 -0.00000000000E+00  0.00000000000E+00  0.65309465190E+03  0.65309465191E+03  0.25500000000E-02 0.  1.
          2   -1    0    0  501    0  0.00000000000E+00 -0.00000000000E+00 -0.77706785826E+03  0.77706785827E+03  0.25500000000E-02 0. -1.
    8880023    1    1    2    0    0 -0.73732640194E+02 -0.31028674377E+03  0.37205296907E+03  0.82094334984E+03  0.65864270000E+03 0.  0.
    8880022    1    1    2    0    0  0.73732640194E+02  0.31028674377E+03 -0.49602617543E+03  0.60921916033E+03  0.15294330000E+03 0. -1.
<mgrwt>
<rscale>  0 0.61017169E+03</rscale>
<asrwt>0</asrwt>
<pdfrwt beam="1">  1        2 0.11954890E+00 0.73179544E+03</pdfrwt>
<pdfrwt beam="2">  1       -2 0.10047610E+00 0.73179544E+03</pdfrwt>
<totfact> 0.29696240E+01</totfact>
</mgrwt>
</event>
<event>
 4    1  0.9654646E-007  0.1057037E+04  0.7818608E-02  0.9310470E-01
         -2   -1    0    0    0  501 -0.00000000000E+00  0.00000000000E+00  0.14476130226E+04  0.14476130226E+04  0.25500000000E-02 0.  1.
          2   -1    0    0  501    0  0.00000000000E+00 -0.00000000000E+00 -0.96851713672E+03  0.96851713672E+03  0.25500000000E-02 0. -1.
    8880023    1    1    2    0    0 -0.59803818625E+03 -0.57084767061E+03  0.97665368311E+03  0.14391592540E+04  0.65864270000E+03 0.  0.
    8880022    1    1    2    0    0  0.59803818625E+03  0.57084767061E+03 -0.49755779726E+03  0.97697090534E+03  0.15294330000E+03 0.  0.
<mgrwt>
<rscale>  0 0.99824695E+03</rscale>
<asrwt>0</asrwt>
<pdfrwt beam="1">  1        2 0.14900264E+00 0.10570369E+04</pdfrwt>
<pdfrwt beam="2">  1       -2 0.22270969E+00 0.10570369E+04</pdfrwt>
<totfact> 0.24771320E+00</totfact>
</mgrwt>
</event>
<event>
 4    1  0.9654646E-007  0.7213144E+03  0.7818608E-02  0.9918163E-01
          2   -1    0    0  501    0  0.00000000000E+00  0.00000000000E+00  0.14684218081E+04  0.14684218081E+04  0.25500000000E-02 0. -1.
         -2   -1    0    0    0  501 -0.00000000000E+00 -0.00000000000E+00 -0.21850816514E+03  0.21850816516E+03  0.25500000000E-02 0.  1.
    8880023    1    1    2    0    0  0.26435504930E+03 -0.12884365222E+03  0.53230012714E+03  0.89645853804E+03  0.65864270000E+03 0.  1.
    8880022    1    1    2    0    0 -0.26435504930E+03  0.12884365222E+03  0.71761351585E+03  0.79047143525E+03  0.15294330000E+03 0.  0.
<mgrwt>
<rscale>  0 0.59389037E+03</rscale>
<asrwt>0</asrwt>
<pdfrwt beam="1">  1        2 0.22591105E+00 0.72131441E+03</pdfrwt>
<pdfrwt beam="2">  1       -2 0.33616641E-01 0.72131441E+03</pdfrwt>
<totfact> 0.11160684E+02</totfact>
</mgrwt>
</event>
<event>
 4    1  0.9654646E-007  0.8932698E+03  0.7818608E-02  0.9536923E-01
         -2   -1    0    0    0  501 -0.00000000000E+00  0.00000000000E+00  0.94444205590E+03  0.94444205590E+03  0.25500000000E-02 0.  1.
          2   -1    0    0  501    0  0.00000000000E+00 -0.00000000000E+00 -0.10353708994E+04  0.10353708994E+04  0.25500000000E-02 0. -1.
    8880023    1    1    2    0    0 -0.50645647156E+03  0.32805878278E+03  0.57962949235E+03  0.10648480066E+04  0.65864270000E+03 0.  0.
    8880022    1    1    2    0    0  0.50645647156E+03 -0.32805878278E+03 -0.67055833590E+03  0.91496494873E+03  0.15294330000E+03 0.  0.
<mgrwt>
<rscale>  0 0.81615507E+03</rscale>
<asrwt>0</asrwt>
<pdfrwt beam="1">  1        2 0.15928783E+00 0.89326980E+03</pdfrwt>
<pdfrwt beam="2">  1       -2 0.14529878E+00 0.89326980E+03</pdfrwt>
<totfact> 0.78081785E+00</totfact>
</mgrwt>
</event>
<event>
 4    1  0.9654646E-007  0.6902510E+03  0.7818608E-02  0.1004034E+00
          2   -1    0    0  501    0  0.00000000000E+00  0.00000000000E+00  0.16557814983E+04  0.16557814983E+04  0.25500000000E-02 0. -1.
         -2   -1    0    0    0  501 -0.00000000000E+00 -0.00000000000E+00 -0.58638979630E+03  0.58638979630E+03  0.25500000000E-02 0.  1.
    8880023    1    1    2    0    0 -0.20136735218E+03 -0.45688466288E+02 -0.36784243356E+03  0.78214737017E+03  0.65864270000E+03 0.  1.
    8880022    1    1    2    0    0  0.20136735218E+03  0.45688466288E+02  0.14372341355E+04  0.14600239244E+04  0.15294330000E+03 0.  0.
<mgrwt>
<rscale>  0 0.53916442E+03</rscale>
<asrwt>0</asrwt>
<pdfrwt beam="1">  1        2 0.25473561E+00 0.69025101E+03</pdfrwt>
<pdfrwt beam="2">  1       -2 0.90213817E-01 0.69025101E+03</pdfrwt>
<totfact> 0.11307474E+01</totfact>
</mgrwt>
</event>
<event>
 4    1  0.9654646E-007  0.6714217E+03  0.7818608E-02  0.1014664E+00
          2   -1    0    0  501    0  0.00000000000E+00  0.00000000000E+00  0.20648308182E+04  0.20648308182E+04  0.25500000000E-02 0. -1.
         -2   -1    0    0    0  501 -0.00000000000E+00 -0.00000000000E+00 -0.14251490585E+03  0.14251490588E+03  0.25500000000E-02 0.  1.
    8880023    1    1    2    0    0  0.73948995364E+02  0.10737051938E+03  0.70505534351E+03  0.97360676149E+03  0.65864270000E+03 0.  0.
    8880022    1    1    2    0    0 -0.73948995364E+02 -0.10737051938E+03  0.12172605689E+04  0.12337389626E+04  0.15294330000E+03 0.  0.
<mgrwt>
<rscale>  0 0.49662524E+03</rscale>
<asrwt>0</asrwt>
<pdfrwt beam="1">  1        2 0.31766630E+00 0.67142169E+03</pdfrwt>
<pdfrwt beam="2">  1       -2 0.21925369E-01 0.67142169E+03</pdfrwt>
<totfact> 0.11553449E+02</totfact>
</mgrwt>
</event>
<event>
 4    1  0.1123652E-006  0.8191683E+03  0.7818608E-02  0.9670787E-01
         -2   -1    0    0    0  501 -0.00000000000E+00  0.00000000000E+00  0.20016922330E+04  0.20016922330E+04  0.25500000000E-02 0.  1.
          2   -1    0    0  501    0  0.00000000000E+00 -0.00000000000E+00 -0.11489982753E+04  0.11489982753E+04  0.25500000000E-02 0. -1.
    8880023    1    1    2    0    0 -0.46941996074E+03 -0.12988991558E+03  0.18539154961E+04  0.20268298801E+04  0.65864270000E+03 0.  1.
    8880022    1    1    2    0    0  0.46941996074E+03  0.12988991558E+03 -0.10012215384E+04  0.11238606282E+04  0.15294330000E+03 0.  0.
<mgrwt>
<rscale>  0 0.72783080E+03</rscale>
<asrwt>0</asrwt>
<pdfrwt beam="1">  1        2 0.17676897E+00 0.81916830E+03</pdfrwt>
<pdfrwt beam="2">  1       -2 0.30795265E+00 0.81916830E+03</pdfrwt>
<totfact> 0.59853376E-01</totfact>
</mgrwt>
</event>
<event>
 4    1  0.9654646E-007  0.9547026E+03  0.7818608E-02  0.9443380E-01
          2   -1    0    0  501    0  0.00000000000E+00  0.00000000000E+00  0.99803071488E+03  0.99803071489E+03  0.25500000000E-02 0. -1.
         -2   -1    0    0    0  501 -0.00000000000E+00 -0.00000000000E+00 -0.15449829434E+04  0.15449829434E+04  0.25500000000E-02 0.  1.
    8880023    1    1    2    0    0 -0.17424138346E+03  0.66879503873E+03 -0.12315596560E+04  0.15582670683E+04  0.65864270000E+03 0.  0.
    8880022    1    1    2    0    0  0.17424138346E+03 -0.66879503873E+03  0.68460742755E+03  0.98474658995E+03  0.15294330000E+03 0.  0.
<mgrwt>
<rscale>  0 0.88590055E+03</rscale>
<asrwt>0</asrwt>
<pdfrwt beam="1">  1        2 0.15354319E+00 0.95470261E+03</pdfrwt>
<pdfrwt beam="2">  1       -2 0.23768968E+00 0.95470261E+03</pdfrwt>
<totfact> 0.19361725E+00</totfact>
</mgrwt>
</event>
<event>
 4    1  0.9654646E-007  0.1190491E+04  0.7818608E-02  0.9166421E-01
         -2   -1    0    0    0  501 -0.00000000000E+00  0.00000000000E+00  0.90627613913E+03  0.90627613914E+03  0.25500000000E-02 0.  1.
          2   -1    0    0  501    0  0.00000000000E+00 -0.00000000000E+00 -0.24179361479E+04  0.24179361479E+04  0.25500000000E-02 0. -1.
    8880023    1    1    2    0    0 -0.88137474758E+03  0.45457390245E+03  0.32260561446E+03  0.12334275281E+04  0.65864270000E+03 0.  1.
    8880022    1    1    2    0    0  0.88137474758E+03 -0.45457390245E+03 -0.18342656232E+04  0.20907847589E+04  0.15294330000E+03 0.  0.
<mgrwt>
<rscale>  0 0.11406837E+04</rscale>
<asrwt>0</asrwt>
<pdfrwt beam="1">  1        2 0.37199017E+00 0.11904911E+04</pdfrwt>
<pdfrwt beam="2">  1       -2 0.13942710E+00 0.11904911E+04</pdfrwt>
<totfact> 0.13795985E+00</totfact>
</mgrwt>
</event>
<event>
 4    1  0.9654646E-007  0.6672340E+03  0.7818608E-02  0.1017728E+00
         -2   -1    0    0    0  501 -0.00000000000E+00  0.00000000000E+00  0.10172843452E+03  0.10172843455E+03  0.25500000000E-02 0.  1.
          2   -1    0    0  501    0  0.00000000000E+00 -0.00000000000E+00 -0.20617311131E+04  0.20617311131E+04  0.25500000000E-02 0. -1.
    8880023    1    1    2    0    0 -0.94436800023E+02 -0.49725597167E+02 -0.11258901408E+04  0.13087512215E+04  0.65864270000E+03 0.  1.
    8880022    1    1    2    0    0  0.94436800023E+02  0.49725597167E+02 -0.83411253779E+03  0.85470832623E+03  0.15294330000E+03 0.  0.
<mgrwt>
<rscale>  0 0.48515315E+03</rscale>
<asrwt>0</asrwt>
<pdfrwt beam="1">  1        2 0.31718937E+00 0.66723395E+03</pdfrwt>
<pdfrwt beam="2">  1       -2 0.15650530E-01 0.66723395E+03</pdfrwt>
<totfact> 0.20795808E+02</totfact>
</mgrwt>
</event>
<event>
 4    1  0.9654646E-007  0.1255184E+04  0.7818608E-02  0.9105261E-01
          2   -1    0    0  501    0  0.00000000000E+00  0.00000000000E+00  0.27954849004E+04  0.27954849004E+04  0.25500000000E-02 0. -1.
         -2   -1    0    0    0  501 -0.00000000000E+00 -0.00000000000E+00 -0.99938068542E+03  0.99938068542E+03  0.25500000000E-02 0.  1.
    8880023    1    1    2    0    0  0.40935459417E+03  0.98696785534E+03 -0.42515864600E+03  0.13252346252E+04  0.65864270000E+03 0.  1.
    8880022    1    1    2    0    0 -0.40935459417E+03 -0.98696785534E+03  0.22212628610E+04  0.24696309607E+04  0.15294330000E+03 0.  0.
<mgrwt>
<rscale>  0 0.12087166E+04</rscale>
<asrwt>0</asrwt>
<pdfrwt beam="1">  1        2 0.43007460E+00 0.12551840E+04</pdfrwt>
<pdfrwt beam="2">  1       -2 0.15375088E+00 0.12551840E+04</pdfrwt>
<totfact> 0.63583907E-01</totfact>
</mgrwt>
</event>
<event>
 4    1  0.9654646E-007  0.1066295E+04  0.7818608E-02  0.9299544E-01
         -2   -1    0    0    0  501 -0.00000000000E+00  0.00000000000E+00  0.69443156235E+03  0.69443156235E+03  0.25500000000E-02 0.  1.
          2   -1    0    0  501    0  0.00000000000E+00 -0.00000000000E+00 -0.20058457817E+04  0.20058457817E+04  0.25500000000E-02 0. -1.
    8880023    1    1    2    0    0  0.83361324046E+03  0.90906032010E+02  0.79177940351E+02  0.10692307019E+04  0.65864270000E+03 0.  1.
    8880022    1    1    2    0    0 -0.83361324046E+03 -0.90906032010E+02 -0.13905921597E+04  0.16310466422E+04  0.15294330000E+03 0.  1.
<mgrwt>
<rscale>  0 0.10082482E+04</rscale>
<asrwt>0</asrwt>
<pdfrwt beam="1">  1        2 0.30859166E+00 0.10662951E+04</pdfrwt>
<pdfrwt beam="2">  1       -2 0.10683563E+00 0.10662951E+04</pdfrwt>
<totfact> 0.46389842E+00</totfact>
</mgrwt>
</event>
<event>
 4    1  0.9654646E-007  0.7706121E+03  0.7818608E-02  0.9778370E-01
          2   -1    0    0  501    0  0.00000000000E+00  0.00000000000E+00  0.13288599069E+04  0.13288599069E+04  0.25500000000E-02 0. -1.
         -2   -1    0    0    0  501 -0.00000000000E+00 -0.00000000000E+00 -0.68097413858E+03  0.68097413859E+03  0.25500000000E-02 0.  1.
    8880023    1    1    2    0    0 -0.59515166837E+02  0.39558919462E+03 -0.40688094214E+03  0.87143282778E+03  0.65864270000E+03 0.  1.
    8880022    1    1    2    0    0  0.59515166837E+02 -0.39558919462E+03  0.10547667105E+04  0.11384012177E+04  0.15294330000E+03 0.  0.
<mgrwt>
<rscale>  0 0.66536363E+03</rscale>
<asrwt>0</asrwt>
<pdfrwt beam="1">  1        2 0.20443999E+00 0.77061214E+03</pdfrwt>
<pdfrwt beam="2">  1       -2 0.10476525E+00 0.77061214E+03</pdfrwt>
<totfact> 0.11976545E+01</totfact>
</mgrwt>
</event>
<event>
 4    1  0.9654646E-007  0.1152455E+04  0.7818608E-02  0.9204785E-01
          2   -1    0    0  501    0  0.00000000000E+00  0.00000000000E+00  0.19680286341E+04  0.19680286341E+04  0.25500000000E-02 0. -1.
         -2   -1    0    0    0  501 -0.00000000000E+00 -0.00000000000E+00 -0.10233776509E+04  0.10233776509E+04  0.25500000000E-02 0.  1.
    8880023    1    1    2    0    0  0.89604716423E+03 -0.30239348919E+03  0.14941877337E+04  0.18869948417E+04  0.65864270000E+03 0.  0.
    8880022    1    1    2    0    0 -0.89604716423E+03  0.30239348919E+03 -0.54953675050E+03  0.11044114433E+04  0.15294330000E+03 0.  0.
<mgrwt>
<rscale>  0 0.11004178E+04</rscale>
<asrwt>0</asrwt>
<pdfrwt beam="1">  1        2 0.30277363E+00 0.11524550E+04</pdfrwt>
<pdfrwt beam="2">  1       -2 0.15744272E+00 0.11524550E+04</pdfrwt>
<totfact> 0.17915145E+00</totfact>
</mgrwt>
</event>
<event>
 4    1  0.9654646E-007  0.6718386E+03  0.7818608E-02  0.1014378E+00
         -2   -1    0    0    0  501 -0.00000000000E+00  0.00000000000E+00  0.19204166966E+03  0.19204166968E+03  0.25500000000E-02 0.  1.
          2   -1    0    0  501    0  0.00000000000E+00 -0.00000000000E+00 -0.17907424442E+04  0.17907424442E+04  0.25500000000E-02 0. -1.
    8880023    1    1    2    0    0  0.12847576107E+03  0.32417443570E+02 -0.43217770064E+03  0.79883958529E+03  0.65864270000E+03 0.  0.
    8880022    1    1    2    0    0 -0.12847576107E+03 -0.32417443570E+02 -0.11665230739E+04  0.11839445286E+04  0.15294330000E+03 0.  0.
<mgrwt>
<rscale>  0 0.49771251E+03</rscale>
<asrwt>0</asrwt>
<pdfrwt beam="1">  1        2 0.27549883E+00 0.67183861E+03</pdfrwt>
<pdfrwt beam="2">  1       -2 0.29544873E-01 0.67183861E+03</pdfrwt>
<totfact> 0.94978452E+01</totfact>
</mgrwt>
</event>
<event>
 4    1  0.9654646E-007  0.7319626E+03  0.7818608E-02  0.9884010E-01
         -2   -1    0    0    0  501 -0.00000000000E+00  0.00000000000E+00  0.60235545662E+03  0.60235545662E+03  0.25500000000E-02 0.  1.
          2   -1    0    0  501    0  0.00000000000E+00 -0.00000000000E+00 -0.12707323871E+04  0.12707323871E+04  0.25500000000E-02 0. -1.
    8880023    1    1    2    0    0  0.11517918132E+03 -0.29781330434E+03  0.33801100704E+03  0.80623858453E+03  0.65864270000E+03 0.  1.
    8880022    1    1    2    0    0 -0.11517918132E+03  0.29781330434E+03 -0.10063879376E+04  0.10668492592E+04  0.15294330000E+03 0.  0.
<mgrwt>
<rscale>  0 0.61042525E+03</rscale>
<asrwt>0</asrwt>
<pdfrwt beam="1">  1        2 0.19549729E+00 0.73196258E+03</pdfrwt>
<pdfrwt beam="2">  1       -2 0.92670071E-01 0.73196258E+03</pdfrwt>
<totfact> 0.17365094E+01</totfact>
</mgrwt>
</event>
<event>
 4    1  0.9654646E-007  0.1281535E+04  0.7818608E-02  0.9081672E-01
          2   -1    0    0  501    0  0.00000000000E+00  0.00000000000E+00  0.17012689070E+04  0.17012689070E+04  0.25500000000E-02 0. -1.
         -2   -1    0    0    0  501 -0.00000000000E+00 -0.00000000000E+00 -0.17340866673E+04  0.17340866673E+04  0.25500000000E-02 0.  1.
    8880023    1    1    2    0    0 -0.75774232267E+03  0.79645976177E+03 -0.12485363810E+04  0.17891827410E+04  0.65864270000E+03 0.  1.
    8880022    1    1    2    0    0  0.75774232267E+03 -0.79645976177E+03  0.12157186207E+04  0.16461728334E+04  0.15294330000E+03 0.  0.
<mgrwt>
<rscale>  0 0.12362900E+04</rscale>
<asrwt>0</asrwt>
<pdfrwt beam="1">  1        2 0.26173368E+00 0.12815349E+04</pdfrwt>
<pdfrwt beam="2">  1       -2 0.26678256E+00 0.12815349E+04</pdfrwt>
<totfact> 0.47798100E-01</totfact>
</mgrwt>
</event>
<event>
 4    1  0.9654646E-007  0.7952906E+03  0.7818608E-02  0.9721073E-01
         -2   -1    0    0    0  501 -0.00000000000E+00  0.00000000000E+00  0.37654218688E+03  0.37654218688E+03  0.25500000000E-02 0.  1.
          2   -1    0    0  501    0  0.00000000000E+00 -0.00000000000E+00 -0.13253057089E+04  0.13253057089E+04  0.25500000000E-02 0. -1.
    8880023    1    1    2    0    0 -0.44487528202E+03 -0.27619908237E+02 -0.20487115065E+03  0.82125469284E+03  0.65864270000E+03 0.  1.
    8880022    1    1    2    0    0  0.44487528202E+03  0.27619908237E+02 -0.74389237139E+03  0.88059320296E+03  0.15294330000E+03 0.  0.
<mgrwt>
<rscale>  0 0.69775868E+03</rscale>
<asrwt>0</asrwt>
<pdfrwt beam="1">  1        2 0.20389318E+00 0.79529056E+03</pdfrwt>
<pdfrwt beam="2">  1       -2 0.57929568E-01 0.79529056E+03</pdfrwt>
<totfact> 0.45241866E+01</totfact>
</mgrwt>
</event>
<event>
 4    1  0.9654646E-007  0.1142478E+04  0.7818608E-02  0.9215174E-01
          2   -1    0    0  501    0  0.00000000000E+00  0.00000000000E+00  0.30358391838E+04  0.30358391838E+04  0.25500000000E-02 0. -1.
         -2   -1    0    0    0  501 -0.00000000000E+00 -0.00000000000E+00 -0.13392852127E+04  0.13392852127E+04  0.25500000000E-02 0.  1.
    8880023    1    1    2    0    0 -0.61725493394E+03  0.70031500942E+03  0.27388399150E+04  0.29675746077E+04  0.65864270000E+03 0.  0.
    8880022    1    1    2    0    0  0.61725493394E+03 -0.70031500942E+03 -0.10422859439E+04  0.14075497888E+04  0.15294330000E+03 0.  0.
<mgrwt>
<rscale>  0 0.10898173E+04</rscale>
<asrwt>0</asrwt>
<pdfrwt beam="1">  1        2 0.46705218E+00 0.11424776E+04</pdfrwt>
<pdfrwt beam="2">  1       -2 0.20604388E+00 0.11424776E+04</pdfrwt>
<totfact> 0.19934226E-01</totfact>
</mgrwt>
</event>
<event>
 4    1  0.9654646E-007  0.6643712E+03  0.7818608E-02  0.1020067E+00
          2   -1    0    0  501    0  0.00000000000E+00  0.00000000000E+00  0.30016992003E+04  0.30016992003E+04  0.25500000000E-02 0. -1.
         -2   -1    0    0    0  501 -0.00000000000E+00 -0.00000000000E+00 -0.82871941715E+02  0.82871941754E+02  0.25500000000E-02 0.  1.
    8880023    1    1    2    0    0 -0.75573277449E+01  0.86727935293E+02  0.13368477121E+04  0.14928331653E+04  0.65864270000E+03 0.  1.
    8880022    1    1    2    0    0  0.75573277449E+01 -0.86727935293E+02  0.15819795465E+04  0.15917379767E+04  0.15294330000E+03 0.  0.
<mgrwt>
<rscale>  0 0.47662478E+03</rscale>
<asrwt>0</asrwt>
<pdfrwt beam="1">  1        2 0.46179989E+00 0.66437117E+03</pdfrwt>
<pdfrwt beam="2">  1       -2 0.12749529E-01 0.66437117E+03</pdfrwt>
<totfact> 0.85371121E+01</totfact>
</mgrwt>
</event>
<event>
 4    1  0.9654646E-007  0.7519508E+03  0.7818608E-02  0.9826410E-01
         -2   -1    0    0    0  501 -0.00000000000E+00  0.00000000000E+00  0.69635466389E+03  0.69635466389E+03  0.25500000000E-02 0.  1.
          2   -1    0    0  501    0  0.00000000000E+00 -0.00000000000E+00 -0.60815106026E+03  0.60815106027E+03  0.25500000000E-02 0. -1.
    8880023    1    1    2    0    0 -0.28697038845E+03 -0.22196347550E+03  0.35233080683E+03  0.83040170520E+03  0.65864270000E+03 0.  1.
    8880022    1    1    2    0    0  0.28697038845E+03  0.22196347550E+03 -0.26412720320E+03  0.47410401896E+03  0.15294330000E+03 0.  0.
<mgrwt>
<rscale>  0 0.63964283E+03</rscale>
<asrwt>0</asrwt>
<pdfrwt beam="1">  1        2 0.93561702E-01 0.75195079E+03</pdfrwt>
<pdfrwt beam="2">  1       -2 0.10713149E+00 0.75195079E+03</pdfrwt>
<totfact> 0.34599469E+01</totfact>
</mgrwt>
</event>
<event>
 4    1  0.9654646E-007  0.9237076E+03  0.7818608E-02  0.9488997E-01
          2   -1    0    0  501    0  0.00000000000E+00  0.00000000000E+00  0.97816290535E+03  0.97816290535E+03  0.25500000000E-02 0. -1.
         -2   -1    0    0    0  501 -0.00000000000E+00 -0.00000000000E+00 -0.79068232613E+03  0.79068232613E+03  0.25500000000E-02 0.  1.
    8880023    1    1    2    0    0 -0.13569405753E+03  0.63325558534E+03 -0.26876495355E+03  0.96201367980E+03  0.65864270000E+03 0.  1.
    8880022    1    1    2    0    0  0.13569405753E+03 -0.63325558534E+03  0.45624553277E+03  0.80683155169E+03  0.15294330000E+03 0.  0.
<mgrwt>
<rscale>  0 0.85099879E+03</rscale>
<asrwt>0</asrwt>
<pdfrwt beam="1">  1        2 0.15048660E+00 0.92370759E+03</pdfrwt>
<pdfrwt beam="2">  1       -2 0.12164344E+00 0.92370759E+03</pdfrwt>
<totfact> 0.13345260E+01</totfact>
</mgrwt>
</event>
<event>
 4    1  0.9654646E-007  0.7053188E+03  0.7818608E-02  0.9975813E-01
         -2   -1    0    0    0  501 -0.00000000000E+00  0.00000000000E+00  0.97326199592E+03  0.97326199593E+03  0.25500000000E-02 0.  1.
          2   -1    0    0  501    0  0.00000000000E+00 -0.00000000000E+00 -0.51665869983E+03  0.51665869984E+03  0.25500000000E-02 0. -1.
    8880023    1    1    2    0    0 -0.12529591742E+03 -0.21900984763E+03  0.78036890347E+03  0.10518793714E+04  0.65864270000E+03 0.  0.
    8880022    1    1    2    0    0  0.12529591742E+03  0.21900984763E+03 -0.32376560739E+03  0.43804132433E+03  0.15294330000E+03 0.  0.
<mgrwt>
<rscale>  0 0.56723621E+03</rscale>
<asrwt>0</asrwt>
<pdfrwt beam="1">  1        2 0.79485954E-01 0.70531878E+03</pdfrwt>
<pdfrwt beam="2">  1       -2 0.14973261E+00 0.70531878E+03</pdfrwt>
<totfact> 0.18162059E+01</totfact>
</mgrwt>
</event>
<event>
 4    1  0.9654646E-007  0.6854342E+03  0.7818608E-02  0.1006403E+00
         -2   -1    0    0    0  501 -0.00000000000E+00  0.00000000000E+00  0.44356656785E+03  0.44356656786E+03  0.25500000000E-02 0.  1.
          2   -1    0    0  501    0  0.00000000000E+00 -0.00000000000E+00 -0.56975554786E+03  0.56975554787E+03  0.25500000000E-02 0. -1.
    8880023    1    1    2    0    0  0.28638430307E+01  0.18974111219E+03  0.85184626026E+02  0.69070725928E+03  0.65864270000E+03 0.  1.
    8880022    1    1    2    0    0 -0.28638430307E+01 -0.18974111219E+03 -0.21137360604E+03  0.32261485644E+03  0.15294330000E+03 0.  0.
<mgrwt>
<rscale>  0 0.52929655E+03</rscale>
<asrwt>0</asrwt>
<pdfrwt beam="1">  1        2 0.87654700E-01 0.68543424E+03</pdfrwt>
<pdfrwt beam="2">  1       -2 0.68241010E-01 0.68543424E+03</pdfrwt>
<totfact> 0.10527627E+02</totfact>
</mgrwt>
</event>
<event>
 4    1  0.9654646E-007  0.8039737E+03  0.7818608E-02  0.9702269E-01
          2   -1    0    0  501    0  0.00000000000E+00  0.00000000000E+00  0.14613032620E+04  0.14613032620E+04  0.25500000000E-02 0. -1.
         -2   -1    0    0    0  501 -0.00000000000E+00 -0.00000000000E+00 -0.37472129442E+03  0.37472129443E+03  0.25500000000E-02 0.  1.
    8880023    1    1    2    0    0  0.26912466053E+03  0.37434671912E+03  0.20535474996E+03  0.82978571247E+03  0.65864270000E+03 0.  0.
    8880022    1    1    2    0    0 -0.26912466053E+03 -0.37434671912E+03  0.88122721765E+03  0.10062388440E+04  0.15294330000E+03 0.  0.
<mgrwt>
<rscale>  0 0.70881857E+03</rscale>
<asrwt>0</asrwt>
<pdfrwt beam="1">  1        2 0.22481589E+00 0.80397373E+03</pdfrwt>
<pdfrwt beam="2">  1       -2 0.57649430E-01 0.80397373E+03</pdfrwt>
<totfact> 0.38230943E+01</totfact>
</mgrwt>
</event>
<event>
 4    1  0.9654646E-007  0.7365464E+03  0.7818608E-02  0.9870124E-01
          2   -1    0    0  501    0  0.00000000000E+00  0.00000000000E+00  0.21671390652E+04  0.21671390652E+04  0.25500000000E-02 0. -1.
         -2   -1    0    0    0  501 -0.00000000000E+00 -0.00000000000E+00 -0.14105243171E+03  0.14105243173E+03  0.25500000000E-02 0.  1.
    8880023    1    1    2    0    0 -0.26617387265E+03 -0.19452988566E+03  0.14641108899E+04  0.16389390810E+04  0.65864270000E+03 0.  0.
    8880022    1    1    2    0    0  0.26617387265E+03  0.19452988566E+03  0.56197574359E+03  0.66925241598E+03  0.15294330000E+03 0. -1.
<mgrwt>
<rscale>  0 0.61731320E+03</rscale>
<asrwt>0</asrwt>
<pdfrwt beam="1">  1        2 0.33340601E+00 0.73654641E+03</pdfrwt>
<pdfrwt beam="2">  1       -2 0.21700374E-01 0.73654641E+03</pdfrwt>
<totfact> 0.10266570E+02</totfact>
</mgrwt>
</event>
<event>
 4    1  0.9654646E-007  0.6722097E+03  0.7818608E-02  0.1014126E+00
          2   -1    0    0  501    0  0.00000000000E+00  0.00000000000E+00  0.64991201101E+03  0.64991201101E+03  0.25500000000E-02 0. -1.
         -2   -1    0    0    0  501 -0.00000000000E+00 -0.00000000000E+00 -0.33761981829E+03  0.33761981830E+03  0.25500000000E-02 0.  1.
    8880023    1    1    2    0    0  0.11806352028E+03 -0.64161635673E+02  0.77336958082E+02  0.67664386620E+03  0.65864270000E+03 0.  1.
    8880022    1    1    2    0    0 -0.11806352028E+03  0.64161635673E+02  0.23495523464E+03  0.31088796312E+03  0.15294330000E+03 0.  0.
<mgrwt>
<rscale>  0 0.49867283E+03</rscale>
<asrwt>0</asrwt>
<pdfrwt beam="1">  1        2 0.99986463E-01 0.67220973E+03</pdfrwt>
<pdfrwt beam="2">  1       -2 0.51941511E-01 0.67220973E+03</pdfrwt>
<totfact> 0.15967803E+02</totfact>
</mgrwt>
</event>
<event>
 4    1  0.9654646E-007  0.9258103E+03  0.7818608E-02  0.9485807E-01
          2   -1    0    0  501    0  0.00000000000E+00  0.00000000000E+00  0.44895027890E+03  0.44895027891E+03  0.25500000000E-02 0. -1.
         -2   -1    0    0    0  501 -0.00000000000E+00 -0.00000000000E+00 -0.18186800430E+04  0.18186800430E+04  0.25500000000E-02 0.  1.
    8880023    1    1    2    0    0 -0.62553630319E+03 -0.17893785060E+03 -0.12995363407E+04  0.15955937227E+04  0.65864270000E+03 0.  1.
    8880022    1    1    2    0    0  0.62553630319E+03  0.17893785060E+03 -0.70193423456E+02  0.67203659922E+03  0.15294330000E+03 0.  0.
<mgrwt>
<rscale>  0 0.85338346E+03</rscale>
<asrwt>0</asrwt>
<pdfrwt beam="1">  1        2 0.69069275E-01 0.92581025E+03</pdfrwt>
<pdfrwt beam="2">  1       -2 0.27979693E+00 0.92581025E+03</pdfrwt>
<totfact> 0.29831978E+00</totfact>
</mgrwt>
</event>
<event>
 4    1  0.9654646E-007  0.9278489E+03  0.7818608E-02  0.9482728E-01
          2   -1    0    0  501    0  0.00000000000E+00  0.00000000000E+00  0.94763007154E+03  0.94763007155E+03  0.25500000000E-02 0. -1.
         -2   -1    0    0    0  501 -0.00000000000E+00 -0.00000000000E+00 -0.14334522660E+04  0.14334522660E+04  0.25500000000E-02 0.  1.
    8880023    1    1    2    0    0  0.62592942354E+03  0.18789842737E+03 -0.11222461702E+04  0.14561387760E+04  0.65864270000E+03 0.  1.
    8880022    1    1    2    0    0 -0.62592942354E+03 -0.18789842737E+03  0.63642397568E+03  0.92494356157E+03  0.15294330000E+03 0.  0.
<mgrwt>
<rscale>  0 0.85569307E+03</rscale>
<asrwt>0</asrwt>
<pdfrwt beam="1">  1        2 0.14578924E+00 0.92784895E+03</pdfrwt>
<pdfrwt beam="2">  1       -2 0.22053112E+00 0.92784895E+03</pdfrwt>
<totfact> 0.26785071E+00</totfact>
</mgrwt>
</event>
<event>
 4    1  0.9654646E-007  0.7115725E+03  0.7818608E-02  0.9952207E-01
          2   -1    0    0  501    0  0.00000000000E+00  0.00000000000E+00  0.19108222777E+04  0.19108222777E+04  0.25500000000E-02 0. -1.
         -2   -1    0    0    0  501 -0.00000000000E+00 -0.00000000000E+00 -0.38832521719E+03  0.38832521719E+03  0.25500000000E-02 0.  1.
    8880023    1    1    2    0    0 -0.26411929816E+03 -0.52595285716E+02 -0.33760158031E+02  0.71237295167E+03  0.65864270000E+03 0.  1.
    8880022    1    1    2    0    0  0.26411929816E+03  0.52595285716E+02  0.15562572185E+04  0.15867745432E+04  0.15294330000E+03 0.  0.
<mgrwt>
<rscale>  0 0.57796466E+03</rscale>
<asrwt>0</asrwt>
<pdfrwt beam="1">  1        2 0.29397266E+00 0.71157254E+03</pdfrwt>
<pdfrwt beam="2">  1       -2 0.59742341E-01 0.71157254E+03</pdfrwt>
<totfact> 0.20309228E+01</totfact>
</mgrwt>
</event>
<event>
 4    1  0.9654646E-007  0.9247248E+03  0.7818608E-02  0.9487452E-01
          2   -1    0    0  501    0  0.00000000000E+00  0.00000000000E+00  0.26215019910E+04  0.26215019910E+04  0.25500000000E-02 0. -1.
         -2   -1    0    0    0  501 -0.00000000000E+00 -0.00000000000E+00 -0.77997487846E+03  0.77997487846E+03  0.25500000000E-02 0.  1.
    8880023    1    1    2    0    0 -0.38130202943E+03  0.52527559733E+03 -0.44030395298E+03  0.10241989397E+04  0.65864270000E+03 0.  1.
    8880022    1    1    2    0    0  0.38130202943E+03 -0.52527559733E+03  0.22818310655E+04  0.23772779297E+04  0.15294330000E+03 0.  0.
<mgrwt>
<rscale>  0 0.85215272E+03</rscale>
<asrwt>0</asrwt>
<pdfrwt beam="1">  1        2 0.40330800E+00 0.92472477E+03</pdfrwt>
<pdfrwt beam="2">  1       -2 0.11999613E+00 0.92472477E+03</pdfrwt>
<totfact> 0.16035513E+00</totfact>
</mgrwt>
</event>
<event>
 4    1  0.9654646E-007  0.6896966E+03  0.7818608E-02  0.1004297E+00
         -2   -1    0    0    0  501 -0.00000000000E+00  0.00000000000E+00  0.33142312064E+03  0.33142312065E+03  0.25500000000E-02 0.  1.
          2   -1    0    0  501    0  0.00000000000E+00 -0.00000000000E+00 -0.68080205967E+03  0.68080205968E+03  0.25500000000E-02 0. -1.
    8880023    1    1    2    0    0 -0.18008930880E+03 -0.97154510558E+02 -0.20867401734E+03  0.72057352841E+03  0.65864270000E+03 0.  1.
    8880022    1    1    2    0    0  0.18008930880E+03  0.97154510558E+02 -0.14070492169E+03  0.29165165192E+03  0.15294330000E+03 0. -1.
<mgrwt>
<rscale>  0 0.53805513E+03</rscale>
<asrwt>0</asrwt>
<pdfrwt beam="1">  1        2 0.10473878E+00 0.68969657E+03</pdfrwt>
<pdfrwt beam="2">  1       -2 0.50988172E-01 0.68969657E+03</pdfrwt>
<totfact> 0.15641535E+02</totfact>
</mgrwt>
</event>
<event>
 4    1  0.9654646E-007  0.7790871E+03  0.7818608E-02  0.9757986E-01
          2   -1    0    0  501    0  0.00000000000E+00  0.00000000000E+00  0.26160589078E+04  0.26160589078E+04  0.25500000000E-02 0. -1.
         -2   -1    0    0    0  501 -0.00000000000E+00 -0.00000000000E+00 -0.45905797229E+03  0.45905797230E+03  0.25500000000E-02 0.  1.
    8880023    1    1    2    0    0  0.33437777160E+03  0.24770551518E+03 -0.90481111633E+02  0.78432362849E+03  0.65864270000E+03 0.  1.
    8880022    1    1    2    0    0 -0.33437777160E+03 -0.24770551518E+03  0.22474820471E+04  0.22907932516E+04  0.15294330000E+03 0.  0.
<mgrwt>
<rscale>  0 0.67666841E+03</rscale>
<asrwt>0</asrwt>
<pdfrwt beam="1">  1        2 0.40247059E+00 0.77908711E+03</pdfrwt>
<pdfrwt beam="2">  1       -2 0.70624305E-01 0.77908711E+03</pdfrwt>
<totfact> 0.56885505E+00</totfact>
</mgrwt>
</event>
<event>
 4    1  0.9654646E-007  0.7035495E+03  0.7818608E-02  0.9982783E-01
          2   -1    0    0  501    0  0.00000000000E+00  0.00000000000E+00  0.14123726472E+04  0.14123726472E+04  0.25500000000E-02 0. -1.
         -2   -1    0    0    0  501 -0.00000000000E+00 -0.00000000000E+00 -0.20650110789E+03  0.20650110791E+03  0.25500000000E-02 0.  1.
    8880023    1    1    2    0    0  0.15337883761E+03 -0.19402754818E+03  0.52295260394E+03  0.87661929565E+03  0.65864270000E+03 0.  1.
    8880022    1    1    2    0    0 -0.15337883761E+03  0.19402754818E+03  0.68291893534E+03  0.74225445943E+03  0.15294330000E+03 0.  0.
<mgrwt>
<rscale>  0 0.56411653E+03</rscale>
<asrwt>0</asrwt>
<pdfrwt beam="1">  1        2 0.21728810E+00 0.70354955E+03</pdfrwt>
<pdfrwt beam="2">  1       -2 0.31769401E-01 0.70354955E+03</pdfrwt>
<totfact> 0.13365012E+02</totfact>
</mgrwt>
</event>
<event>
 4    1  0.9654646E-007  0.8462708E+03  0.7818608E-02  0.9618468E-01
          2   -1    0    0  501    0  0.00000000000E+00  0.00000000000E+00  0.12182182346E+04  0.12182182346E+04  0.25500000000E-02 0. -1.
         -2   -1    0    0    0  501 -0.00000000000E+00 -0.00000000000E+00 -0.60304944229E+03  0.60304944230E+03  0.25500000000E-02 0.  1.
    8880023    1    1    2    0    0 -0.45035203208E+03  0.28204107773E+03  0.86886976893E+03  0.12128928246E+04  0.65864270000E+03 0.  0.
    8880022    1    1    2    0    0  0.45035203208E+03 -0.28204107773E+03 -0.25370097665E+03  0.60837485228E+03  0.15294330000E+03 0.  0.
<mgrwt>
<rscale>  0 0.76085844E+03</rscale>
<asrwt>0</asrwt>
<pdfrwt beam="1">  1        2 0.18741819E+00 0.84627084E+03</pdfrwt>
<pdfrwt beam="2">  1       -2 0.92776839E-01 0.84627084E+03</pdfrwt>
<totfact> 0.18357517E+01</totfact>
</mgrwt>
</event>
<event>
 4    1  0.9654646E-007  0.7070290E+03  0.7818608E-02  0.9969203E-01
         -2   -1    0    0    0  501 -0.00000000000E+00  0.00000000000E+00  0.80500708883E+03  0.80500708884E+03  0.25500000000E-02 0.  1.
          2   -1    0    0  501    0  0.00000000000E+00 -0.00000000000E+00 -0.65989299739E+03  0.65989299739E+03  0.25500000000E-02 0. -1.
    8880023    1    1    2    0    0 -0.18185709257E+03  0.18168054786E+03  0.59539002925E+03  0.92432641247E+03  0.65864270000E+03 0.  1.
    8880022    1    1    2    0    0  0.18185709257E+03 -0.18168054786E+03 -0.45027593780E+03  0.54057367376E+03  0.15294330000E+03 0.  0.
<mgrwt>
<rscale>  0 0.57021482E+03</rscale>
<asrwt>0</asrwt>
<pdfrwt beam="1">  1        2 0.10152200E+00 0.70702902E+03</pdfrwt>
<pdfrwt beam="2">  1       -2 0.12384725E+00 0.70702902E+03</pdfrwt>
<totfact> 0.22036607E+01</totfact>
</mgrwt>
</event>
<event>
 4    1  0.9654646E-007  0.1178179E+04  0.7818608E-02  0.9178632E-01
         -2   -1    0    0    0  501 -0.00000000000E+00  0.00000000000E+00  0.10826941984E+04  0.10826941984E+04  0.25500000000E-02 0.  1.
          2   -1    0    0  501    0  0.00000000000E+00 -0.00000000000E+00 -0.17480791117E+04  0.17480791117E+04  0.25500000000E-02 0. -1.
    8880023    1    1    2    0    0  0.55543293097E+03 -0.80360996337E+03  0.51940584682E+03  0.12875897460E+04  0.65864270000E+03 0.  0.
    8880022    1    1    2    0    0 -0.55543293097E+03  0.80360996337E+03 -0.11847907602E+04  0.15431835641E+04  0.15294330000E+03 0.  0.
<mgrwt>
<rscale>  0 0.11276733E+04</rscale>
<asrwt>0</asrwt>
<pdfrwt beam="1">  1        2 0.26893525E+00 0.11781786E+04</pdfrwt>
<pdfrwt beam="2">  1       -2 0.16656834E+00 0.11781786E+04</pdfrwt>
<totfact> 0.20247966E+00</totfact>
</mgrwt>
</event>
<event>
 4    1  0.9654646E-007  0.7074372E+03  0.7818608E-02  0.9967644E-01
         -2   -1    0    0    0  501 -0.00000000000E+00  0.00000000000E+00  0.61085140716E+03  0.61085140716E+03  0.25500000000E-02 0.  1.
          2   -1    0    0  501    0  0.00000000000E+00 -0.00000000000E+00 -0.13186474583E+04  0.13186474583E+04  0.25500000000E-02 0. -1.
    8880023    1    1    2    0    0  0.25786679972E+03 -0.12724591443E+02  0.37863193453E+03  0.80238989882E+03  0.65864270000E+03 0.  1.
    8880022    1    1    2    0    0 -0.25786679972E+03  0.12724591443E+02 -0.10864279857E+04  0.11271089666E+04  0.15294330000E+03 0.  0.
<mgrwt>
<rscale>  0 0.57092058E+03</rscale>
<asrwt>0</asrwt>
<pdfrwt beam="1">  1        2 0.20286884E+00 0.70743721E+03</pdfrwt>
<pdfrwt beam="2">  1       -2 0.93977140E-01 0.70743721E+03</pdfrwt>
<totfact> 0.15820582E+01</totfact>
</mgrwt>
</event>
<event>
 4    1  0.9654646E-007  0.7076301E+03  0.7818608E-02  0.9966909E-01
         -2   -1    0    0    0  501 -0.00000000000E+00  0.00000000000E+00  0.86875616869E+03  0.86875616869E+03  0.25500000000E-02 0.  1.
          2   -1    0    0  501    0  0.00000000000E+00 -0.00000000000E+00 -0.10574022627E+04  0.10574022627E+04  0.25500000000E-02 0. -1.
    8880023    1    1    2    0    0 -0.10227599315E+03 -0.23763372738E+03  0.69557876602E+03  0.99225510488E+03  0.65864270000E+03 0.  0.
    8880022    1    1    2    0    0  0.10227599315E+03  0.23763372738E+03 -0.88422485998E+03  0.93390332647E+03  0.15294330000E+03 0.  0.
<mgrwt>
<rscale>  0 0.57125342E+03</rscale>
<asrwt>0</asrwt>
<pdfrwt beam="1">  1        2 0.16267727E+00 0.70763011E+03</pdfrwt>
<pdfrwt beam="2">  1       -2 0.13365480E+00 0.70763011E+03</pdfrwt>
<totfact> 0.95951617E+00</totfact>
</mgrwt>
</event>
<event>
 4    1  0.9654646E-007  0.6764378E+03  0.7818608E-02  0.1011415E+00
          2   -1    0    0  501    0  0.00000000000E+00  0.00000000000E+00  0.12737988582E+04  0.12737988582E+04  0.25500000000E-02 0. -1.
         -2   -1    0    0    0  501 -0.00000000000E+00 -0.00000000000E+00 -0.24601636946E+03  0.24601636948E+03  0.25500000000E-02 0.  1.
    8880023    1    1    2    0    0 -0.95182060261E+02  0.12123631345E+03  0.26460695133E+03  0.72635040666E+03  0.65864270000E+03 0.  1.
    8880022    1    1    2    0    0  0.95182060261E+02 -0.12123631345E+03  0.76317553739E+03  0.79346482101E+03  0.15294330000E+03 0.  0.
<mgrwt>
<rscale>  0 0.50916150E+03</rscale>
<asrwt>0</asrwt>
<pdfrwt beam="1">  1        2 0.19596905E+00 0.67643778E+03</pdfrwt>
<pdfrwt beam="2">  1       -2 0.37848672E-01 0.67643778E+03</pdfrwt>
<totfact> 0.11523487E+02</totfact>
</mgrwt>
</event>
<event>
 4    1  0.9654646E-007  0.6767528E+03  0.7818608E-02  0.1011223E+00
          2   -1    0    0  501    0  0.00000000000E+00  0.00000000000E+00  0.11059985141E+04  0.11059985141E+04  0.25500000000E-02 0. -1.
         -2   -1    0    0    0  501 -0.00000000000E+00 -0.00000000000E+00 -0.19015672588E+03  0.19015672590E+03  0.25500000000E-02 0.  1.
    8880023    1    1    2    0    0  0.44315834352E+02 -0.14906462035E+03  0.55824698873E+03  0.87728790081E+03  0.65864270000E+03 0.  1.
    8880022    1    1    2    0    0 -0.44315834352E+02  0.14906462035E+03  0.35759479949E+03  0.41886733920E+03  0.15294330000E+03 0. -1.
<mgrwt>
<rscale>  0 0.50991269E+03</rscale>
<asrwt>0</asrwt>
<pdfrwt beam="1">  1        2 0.17015362E+00 0.67675281E+03</pdfrwt>
<pdfrwt beam="2">  1       -2 0.29254881E-01 0.67675281E+03</pdfrwt>
<totfact> 0.23541560E+02</totfact>
</mgrwt>
</event>
<event>
 4    1  0.9654646E-007  0.6959723E+03  0.7818608E-02  0.1001434E+00
          2   -1    0    0  501    0  0.00000000000E+00  0.00000000000E+00  0.31893614399E+04  0.31893614399E+04  0.25500000000E-02 0. -1.
         -2   -1    0    0    0  501 -0.00000000000E+00 -0.00000000000E+00 -0.49598346568E+03  0.49598346569E+03  0.25500000000E-02 0.  1.
    8880023    1    1    2    0    0 -0.14497567519E+03 -0.17189920801E+03 -0.24241554811E+03  0.73698221711E+03  0.65864270000E+03 0.  0.
    8880022    1    1    2    0    0  0.14497567519E+03  0.17189920801E+03  0.29357935223E+04  0.29483626885E+04  0.15294330000E+03 0.  0.
<mgrwt>
<rscale>  0 0.55025984E+03</rscale>
<asrwt>0</asrwt>
<pdfrwt beam="1">  1        2 0.49067098E+00 0.69597233E+03</pdfrwt>
<pdfrwt beam="2">  1       -2 0.76305150E-01 0.69597233E+03</pdfrwt>
<totfact> 0.22023243E+00</totfact>
</mgrwt>
</event>
<event>
 4    1  0.9654646E-007  0.9167795E+03  0.7818608E-02  0.9499615E-01
          2   -1    0    0  501    0  0.00000000000E+00  0.00000000000E+00  0.22973702512E+04  0.22973702512E+04  0.25500000000E-02 0. -1.
         -2   -1    0    0    0  501 -0.00000000000E+00 -0.00000000000E+00 -0.40903147488E+03  0.40903147488E+03  0.25500000000E-02 0.  1.
    8880023    1    1    2    0    0  0.54156690834E+03  0.33671904616E+03  0.26301354412E+03  0.95376137630E+03  0.65864270000E+03 0.  1.
    8880022    1    1    2    0    0 -0.54156690834E+03 -0.33671904616E+03  0.16253252322E+04  0.17526403498E+04  0.15294330000E+03 0.  0.
<mgrwt>
<rscale>  0 0.84312228E+03</rscale>
<asrwt>0</asrwt>
<pdfrwt beam="1">  1        2 0.35344157E+00 0.91677949E+03</pdfrwt>
<pdfrwt beam="2">  1       -2 0.62927920E-01 0.91677949E+03</pdfrwt>
<totfact> 0.10841032E+01</totfact>
</mgrwt>
</event>
<event>
 4    1  0.9654646E-007  0.7335797E+03  0.7818608E-02  0.9879060E-01
         -2   -1    0    0    0  501 -0.00000000000E+00  0.00000000000E+00  0.50898986440E+03  0.50898986440E+03  0.25500000000E-02 0.  1.
          2   -1    0    0  501    0  0.00000000000E+00 -0.00000000000E+00 -0.26020206611E+04  0.26020206611E+04  0.25500000000E-02 0. -1.
    8880023    1    1    2    0    0 -0.20766623040E+03  0.24739389766E+03  0.22365891924E+03  0.76691754594E+03  0.65864270000E+03 0.  1.
    8880022    1    1    2    0    0  0.20766623040E+03 -0.24739389766E+03 -0.23166897160E+04  0.23440929796E+04  0.15294330000E+03 0.  0.
<mgrwt>
<rscale>  0 0.61286967E+03</rscale>
<asrwt>0</asrwt>
<pdfrwt beam="1">  1        2 0.40031086E+00 0.73357972E+03</pdfrwt>
<pdfrwt beam="2">  1       -2 0.78306134E-01 0.73357972E+03</pdfrwt>
<totfact> 0.46493980E+00</totfact>
</mgrwt>
</event>
<event>
 4    1  0.9654646E-007  0.8646217E+03  0.7818608E-02  0.9585395E-01
         -2   -1    0    0    0  501 -0.00000000000E+00  0.00000000000E+00  0.62810233533E+03  0.62810233534E+03  0.25500000000E-02 0.  1.
          2   -1    0    0  501    0  0.00000000000E+00 -0.00000000000E+00 -0.19839903786E+04  0.19839903786E+04  0.25500000000E-02 0. -1.
    8880023    1    1    2    0    0  0.30002893380E+03  0.47301488296E+03  0.25361854242E+03  0.90105105956E+03  0.65864270000E+03 0.  0.
    8880022    1    1    2    0    0 -0.30002893380E+03 -0.47301488296E+03 -0.16095065857E+04  0.17110416544E+04  0.15294330000E+03 0.  0.
<mgrwt>
<rscale>  0 0.78270449E+03</rscale>
<asrwt>0</asrwt>
<pdfrwt beam="1">  1        2 0.30522929E+00 0.86462168E+03</pdfrwt>
<pdfrwt beam="2">  1       -2 0.96631129E-01 0.86462168E+03</pdfrwt>
<totfact> 0.62170807E+00</totfact>
</mgrwt>
</event>
<event>
 4    1  0.9654646E-007  0.6983554E+03  0.7818608E-02  0.1000409E+00
         -2   -1    0    0    0  501 -0.00000000000E+00  0.00000000000E+00  0.25016751312E+03  0.25016751313E+03  0.25500000000E-02 0.  1.
          2   -1    0    0  501    0  0.00000000000E+00 -0.00000000000E+00 -0.12667181332E+04  0.12667181332E+04  0.25500000000E-02 0. -1.
    8880023    1    1    2    0    0  0.99258451382E+01  0.23193009758E+03 -0.32248821653E+03  0.76921970115E+03  0.65864270000E+03 0.  0.
    8880022    1    1    2    0    0 -0.99258451382E+01 -0.23193009758E+03 -0.69406240355E+03  0.74766594519E+03  0.15294330000E+03 0. -1.
<mgrwt>
<rscale>  0 0.55471128E+03</rscale>
<asrwt>0</asrwt>
<pdfrwt beam="1">  1        2 0.19487971E+00 0.69835542E+03</pdfrwt>
<pdfrwt beam="2">  1       -2 0.38487311E-01 0.69835542E+03</pdfrwt>
<totfact> 0.11241314E+02</totfact>
</mgrwt>
</event>
<event>
 4    1  0.9654646E-007  0.8355168E+03  0.7818608E-02  0.9638692E-01
          2   -1    0    0  501    0  0.00000000000E+00  0.00000000000E+00  0.88639558266E+03  0.88639558267E+03  0.25500000000E-02 0. -1.
         -2   -1    0    0    0  501 -0.00000000000E+00 -0.00000000000E+00 -0.80957232228E+03  0.80957232228E+03  0.25500000000E-02 0.  1.
    8880023    1    1    2    0    0 -0.48755747375E+03  0.16299041352E+03  0.53368454459E+03  0.99141694786E+03  0.65864270000E+03 0. -1.
    8880022    1    1    2    0    0  0.48755747375E+03 -0.16299041352E+03 -0.45686128420E+03  0.70455095709E+03  0.15294330000E+03 0.  0.
<mgrwt>
<rscale>  0 0.74787358E+03</rscale>
<asrwt>0</asrwt>
<pdfrwt beam="1">  1        2 0.13636855E+00 0.83551683E+03</pdfrwt>
<pdfrwt beam="2">  1       -2 0.12454959E+00 0.83551683E+03</pdfrwt>
<totfact> 0.14594032E+01</totfact>
</mgrwt>
</event>
<event>
 4    1  0.1021624E-006  0.6720361E+03  0.7818608E-02  0.1014243E+00
          2   -1    0    0  501    0  0.00000000000E+00  0.00000000000E+00  0.18399444978E+04  0.18399444978E+04  0.25500000000E-02 0. -1.
         -2   -1    0    0    0  501 -0.00000000000E+00 -0.00000000000E+00 -0.85744417996E+03  0.85744417997E+03  0.25500000000E-02 0.  1.
    8880023    1    1    2    0    0 -0.10619306386E+03 -0.80903084557E+02 -0.71879612842E+03  0.98402253856E+03  0.65864270000E+03 0.  1.
    8880022    1    1    2    0    0  0.10619306386E+03  0.80903084557E+02  0.17012964462E+04  0.17133661392E+04  0.15294330000E+03 0.  0.
<mgrwt>
<rscale>  0 0.49822434E+03</rscale>
<asrwt>0</asrwt>
<pdfrwt beam="1">  1        2 0.28306839E+00 0.67203607E+03</pdfrwt>
<pdfrwt beam="2">  1       -2 0.13191449E+00 0.67203607E+03</pdfrwt>
<totfact> 0.35938295E+00</totfact>
</mgrwt>
</event>
<event>
 4    1  0.9654646E-007  0.7067678E+03  0.7818608E-02  0.9970205E-01
         -2   -1    0    0    0  501 -0.00000000000E+00  0.00000000000E+00  0.36106315101E+03  0.36106315102E+03  0.25500000000E-02 0.  1.
          2   -1    0    0  501    0  0.00000000000E+00 -0.00000000000E+00 -0.18303828040E+04  0.18303828041E+04  0.25500000000E-02 0. -1.
    8880023    1    1    2    0    0 -0.19257879337E+03  0.16918614808E+03 -0.15123452399E+02  0.70692960713E+03  0.65864270000E+03 0.  1.
    8880022    1    1    2    0    0  0.19257879337E+03 -0.16918614808E+03 -0.14541962006E+04  0.14845163479E+04  0.15294330000E+03 0.  0.
<mgrwt>
<rscale>  0 0.56976219E+03</rscale>
<asrwt>0</asrwt>
<pdfrwt beam="1">  1        2 0.28159735E+00 0.70676782E+03</pdfrwt>
<pdfrwt beam="2">  1       -2 0.55548178E-01 0.70676782E+03</pdfrwt>
<totfact> 0.26175798E+01</totfact>
</mgrwt>
</event>
<event>
 4    1  0.9654646E-007  0.8510344E+03  0.7818608E-02  0.9609715E-01
         -2   -1    0    0    0  501 -0.00000000000E+00  0.00000000000E+00  0.28452857567E+03  0.28452857568E+03  0.25500000000E-02 0.  1.
          2   -1    0    0  501    0  0.00000000000E+00 -0.00000000000E+00 -0.36964164238E+04  0.36964164238E+04  0.25500000000E-02 0. -1.
    8880023    1    1    2    0    0  0.40545082515E+03 -0.35504790261E+03 -0.44255274280E+03  0.95922495859E+03  0.65864270000E+03 0.  0.
    8880022    1    1    2    0    0 -0.40545082515E+03  0.35504790261E+03 -0.29693351054E+04  0.30217200409E+04  0.15294330000E+03 0.  0.
<mgrwt>
<rscale>  0 0.76656513E+03</rscale>
<asrwt>0</asrwt>
<pdfrwt beam="1">  1        2 0.56867941E+00 0.85103442E+03</pdfrwt>
<pdfrwt beam="2">  1       -2 0.43773630E-01 0.85103442E+03</pdfrwt>
<totfact> 0.31138000E+00</totfact>
</mgrwt>
</event>
<event>
 4    1  0.9654646E-007  0.7139801E+03  0.7818608E-02  0.9943508E-01
         -2   -1    0    0    0  501 -0.00000000000E+00  0.00000000000E+00  0.23448394615E+03  0.23448394616E+03  0.25500000000E-02 0.  1.
          2   -1    0    0  501    0  0.00000000000E+00 -0.00000000000E+00 -0.17859598270E+04  0.17859598270E+04  0.25500000000E-02 0. -1.
    8880023    1    1    2    0    0 -0.22663289355E+03  0.15682769268E+03 -0.38303653527E+03  0.81023736475E+03  0.65864270000E+03 0.  0.
    8880022    1    1    2    0    0  0.22663289355E+03 -0.15682769268E+03 -0.11684393456E+04  0.12102064084E+04  0.15294330000E+03 0.  0.
<mgrwt>
<rscale>  0 0.58198266E+03</rscale>
<asrwt>0</asrwt>
<pdfrwt beam="1">  1        2 0.27476304E+00 0.71398011E+03</pdfrwt>
<pdfrwt beam="2">  1       -2 0.36074454E-01 0.71398011E+03</pdfrwt>
<totfact> 0.65331095E+01</totfact>
</mgrwt>
</event>
<event>
 4    1  0.9654646E-007  0.7046852E+03  0.7818608E-02  0.9978293E-01
         -2   -1    0    0    0  501 -0.00000000000E+00  0.00000000000E+00  0.33702053118E+03  0.33702053119E+03  0.25500000000E-02 0.  1.
          2   -1    0    0  501    0  0.00000000000E+00 -0.00000000000E+00 -0.35231624167E+04  0.35231624167E+04  0.25500000000E-02 0. -1.
    8880023    1    1    2    0    0  0.20020175342E+03 -0.15063290682E+03 -0.45821224829E+02  0.70617335379E+03  0.65864270000E+03 0.  1.
    8880022    1    1    2    0    0 -0.20020175342E+03  0.15063290682E+03 -0.31403206607E+04  0.31540095941E+04  0.15294330000E+03 0.  0.
<mgrwt>
<rscale>  0 0.56612359E+03</rscale>
<asrwt>0</asrwt>
<pdfrwt beam="1">  1        2 0.54202496E+00 0.70468519E+03</pdfrwt>
<pdfrwt beam="2">  1       -2 0.51849315E-01 0.70468519E+03</pdfrwt>
<totfact> 0.30208454E+00</totfact>
</mgrwt>
</event>
<event>
 4    1  0.1611231E-006  0.6744348E+03  0.7818608E-02  0.1012665E+00
          2   -1    0    0  501    0  0.00000000000E+00  0.00000000000E+00  0.14979594276E+04  0.14979594276E+04  0.25500000000E-02 0. -1.
         -2   -1    0    0    0  501 -0.00000000000E+00 -0.00000000000E+00 -0.15478365563E+04  0.15478365563E+04  0.25500000000E-02 0.  1.
    8880023    1    1    2    0    0  0.42207385134E+02  0.13881876606E+03 -0.14661949578E+04  0.16138742125E+04  0.65864270000E+03 0.  1.
    8880022    1    1    2    0    0 -0.42207385134E+02 -0.13881876606E+03  0.14163178291E+04  0.14319217714E+04  0.15294330000E+03 0.  0.
<mgrwt>
<rscale>  0 0.50429115E+03</rscale>
<asrwt>0</asrwt>
<pdfrwt beam="1">  1        2 0.23045530E+00 0.67443481E+03</pdfrwt>
<pdfrwt beam="2">  1       -2 0.23812870E+00 0.67443481E+03</pdfrwt>
<totfact> 0.10226171E+00</totfact>
</mgrwt>
</event>
<event>
 4    1  0.9654646E-007  0.9517103E+03  0.7818608E-02  0.9447658E-01
         -2   -1    0    0    0  501 -0.00000000000E+00  0.00000000000E+00  0.76111179496E+03  0.76111179497E+03  0.25500000000E-02 0.  1.
          2   -1    0    0  501    0  0.00000000000E+00 -0.00000000000E+00 -0.10529992392E+04  0.10529992392E+04  0.25500000000E-02 0. -1.
    8880023    1    1    2    0    0  0.68638862839E+03 -0.28513108263E+02 -0.50678806912E+03  0.10782331380E+04  0.65864270000E+03 0.  0.
    8880022    1    1    2    0    0 -0.68638862839E+03  0.28513108263E+02  0.21490062489E+03  0.73587789620E+03  0.15294330000E+03 0.  0.
<mgrwt>
<rscale>  0 0.88255312E+03</rscale>
<asrwt>0</asrwt>
<pdfrwt beam="1">  1        2 0.16199988E+00 0.95171033E+03</pdfrwt>
<pdfrwt beam="2">  1       -2 0.11709412E+00 0.95171033E+03</pdfrwt>
<totfact> 0.13108956E+01</totfact>
</mgrwt>
</event>
<event>
 4    1  0.9654646E-007  0.6672738E+03  0.7818608E-02  0.1017697E+00
          2   -1    0    0  501    0  0.00000000000E+00  0.00000000000E+00  0.16857973054E+04  0.16857973054E+04  0.25500000000E-02 0. -1.
         -2   -1    0    0    0  501 -0.00000000000E+00 -0.00000000000E+00 -0.33765315033E+03  0.33765315034E+03  0.25500000000E-02 0.  1.
    8880023    1    1    2    0    0  0.10547330315E+03  0.17874138713E+02  0.48903472956E+01  0.66729170853E+03  0.65864270000E+03 0.  1.
    8880022    1    1    2    0    0 -0.10547330315E+03 -0.17874138713E+02  0.13432538078E+04  0.13561587472E+04  0.15294330000E+03 0.  0.
<mgrwt>
<rscale>  0 0.48526750E+03</rscale>
<asrwt>0</asrwt>
<pdfrwt beam="1">  1        2 0.25935343E+00 0.66727379E+03</pdfrwt>
<pdfrwt beam="2">  1       -2 0.51946640E-01 0.66727379E+03</pdfrwt>
<totfact> 0.36223529E+01</totfact>
</mgrwt>
</event>
<event>
 4    1  0.9654646E-007  0.8704156E+03  0.7818608E-02  0.9575298E-01
          2   -1    0    0  501    0  0.00000000000E+00  0.00000000000E+00  0.21840482655E+04  0.21840482656E+04  0.25500000000E-02 0. -1.
         -2   -1    0    0    0  501 -0.00000000000E+00 -0.00000000000E+00 -0.53489210920E+03  0.53489210921E+03  0.25500000000E-02 0.  1.
    8880023    1    1    2    0    0  0.37358245368E+03 -0.42924257663E+03 -0.97227239283E+02  0.87582896824E+03  0.65864270000E+03 0.  1.
    8880022    1    1    2    0    0 -0.37358245368E+03  0.42924257663E+03  0.17463833956E+04  0.18431114065E+04  0.15294330000E+03 0.  0.
<mgrwt>
<rscale>  0 0.78952917E+03</rscale>
<asrwt>0</asrwt>
<pdfrwt beam="1">  1        2 0.33600743E+00 0.87041556E+03</pdfrwt>
<pdfrwt beam="2">  1       -2 0.82291092E-01 0.87041556E+03</pdfrwt>
<totfact> 0.69846994E+00</totfact>
</mgrwt>
</event>
<event>
 4    1  0.9654646E-007  0.8968623E+03  0.7818608E-02  0.9531088E-01
         -2   -1    0    0    0  501 -0.00000000000E+00  0.00000000000E+00  0.54844209640E+03  0.54844209640E+03  0.25500000000E-02 0.  1.
          2   -1    0    0  501    0  0.00000000000E+00 -0.00000000000E+00 -0.16802915552E+04  0.16802915552E+04  0.25500000000E-02 0. -1.
    8880023    1    1    2    0    0 -0.65090348103E+02 -0.60523963786E+03  0.41756486261E+02  0.89783382820E+03  0.65864270000E+03 0.  0.
    8880022    1    1    2    0    0  0.65090348103E+02  0.60523963786E+03 -0.11736059451E+04  0.13308998234E+04  0.15294330000E+03 0.  0.
<mgrwt>
<rscale>  0 0.82030160E+03</rscale>
<asrwt>0</asrwt>
<pdfrwt beam="1">  1        2 0.25850639E+00 0.89686230E+03</pdfrwt>
<pdfrwt beam="2">  1       -2 0.84375708E-01 0.89686230E+03</pdfrwt>
<totfact> 0.12438792E+01</totfact>
</mgrwt>
</event>
<event>
 4    1  0.9654646E-007  0.6927889E+03  0.7818608E-02  0.1002854E+00
          2   -1    0    0  501    0  0.00000000000E+00  0.00000000000E+00  0.12040511821E+04  0.12040511821E+04  0.25500000000E-02 0. -1.
         -2   -1    0    0    0  501 -0.00000000000E+00 -0.00000000000E+00 -0.29714487599E+03  0.29714487601E+03  0.25500000000E-02 0.  1.
    8880023    1    1    2    0    0  0.14455800056E+03 -0.15890000097E+03  0.16268044741E+03  0.71163288293E+03  0.65864270000E+03 0.  1.
    8880022    1    1    2    0    0 -0.14455800056E+03  0.15890000097E+03  0.74422585872E+03  0.78956317520E+03  0.15294330000E+03 0. -1.
<mgrwt>
<rscale>  0 0.54416219E+03</rscale>
<asrwt>0</asrwt>
<pdfrwt beam="1">  1        2 0.18523864E+00 0.69278888E+03</pdfrwt>
<pdfrwt beam="2">  1       -2 0.45714597E-01 0.69278888E+03</pdfrwt>
<totfact> 0.87250398E+01</totfact>
</mgrwt>
</event>
<event>
 4    1  0.9654646E-007  0.1126121E+04  0.7818608E-02  0.9232516E-01
          2   -1    0    0  501    0  0.00000000000E+00  0.00000000000E+00  0.10066402788E+04  0.10066402788E+04  0.25500000000E-02 0. -1.
         -2   -1    0    0    0  501 -0.00000000000E+00 -0.00000000000E+00 -0.15376853725E+04  0.15376853725E+04  0.25500000000E-02 0.  1.
    8880023    1    1    2    0    0  0.64085644705E+03  0.65087706157E+03 -0.10001702924E+04  0.15061503096E+04  0.65864270000E+03 0.  0.
    8880022    1    1    2    0    0 -0.64085644705E+03 -0.65087706157E+03  0.46912519873E+03  0.10381753417E+04  0.15294330000E+03 0.  0.
<mgrwt>
<rscale>  0 0.10724018E+04</rscale>
<asrwt>0</asrwt>
<pdfrwt beam="1">  1        2 0.15486774E+00 0.11261208E+04</pdfrwt>
<pdfrwt beam="2">  1       -2 0.23656698E+00 0.11261208E+04</pdfrwt>
<totfact> 0.19036049E+00</totfact>
</mgrwt>
</event>
<event>
 4    1  0.9654646E-007  0.7410934E+03  0.7818608E-02  0.9856774E-01
          2   -1    0    0  501    0  0.00000000000E+00  0.00000000000E+00  0.40543384220E+03  0.40543384220E+03  0.25500000000E-02 0. -1.
         -2   -1    0    0    0  501 -0.00000000000E+00 -0.00000000000E+00 -0.84263081512E+03  0.84263081513E+03  0.25500000000E-02 0.  1.
    8880023    1    1    2    0    0  0.74070025277E+02 -0.33154611329E+03 -0.46429221697E+03  0.87452081901E+03  0.65864270000E+03 0.  1.
    8880022    1    1    2    0    0 -0.74070025277E+02  0.33154611329E+03  0.27095244045E+02  0.37354383832E+03  0.15294330000E+03 0.  0.
<mgrwt>
<rscale>  0 0.62402748E+03</rscale>
<asrwt>0</asrwt>
<pdfrwt beam="1">  1        2 0.62374438E-01 0.74109338E+03</pdfrwt>
<pdfrwt beam="2">  1       -2 0.12963551E+00 0.74109338E+03</pdfrwt>
<totfact> 0.34680409E+01</totfact>
</mgrwt>
</event>
<event>
 4    1  0.9654646E-007  0.8229029E+03  0.7818608E-02  0.9663302E-01
          2   -1    0    0  501    0  0.00000000000E+00  0.00000000000E+00  0.10360416779E+04  0.10360416779E+04  0.25500000000E-02 0. -1.
         -2   -1    0    0    0  501 -0.00000000000E+00 -0.00000000000E+00 -0.66101686851E+03  0.66101686851E+03  0.25500000000E-02 0.  1.
    8880023    1    1    2    0    0 -0.45120325089E+03  0.19943555862E+03 -0.27426399038E+03  0.86740409172E+03  0.65864270000E+03 0.  1.
    8880022    1    1    2    0    0  0.45120325089E+03 -0.19943555862E+03  0.64928879975E+03  0.82965445467E+03  0.15294330000E+03 0.  0.
<mgrwt>
<rscale>  0 0.73244429E+03</rscale>
<asrwt>0</asrwt>
<pdfrwt beam="1">  1        2 0.15939103E+00 0.82290286E+03</pdfrwt>
<pdfrwt beam="2">  1       -2 0.10169490E+00 0.82290286E+03</pdfrwt>
<totfact> 0.19137278E+01</totfact>
</mgrwt>
</event>
<event>
 4    1  0.9654646E-007  0.8031908E+03  0.7818608E-02  0.9703939E-01
          2   -1    0    0  501    0  0.00000000000E+00  0.00000000000E+00  0.13235024625E+04  0.13235024625E+04  0.25500000000E-02 0. -1.
         -2   -1    0    0    0  501 -0.00000000000E+00 -0.00000000000E+00 -0.37883731124E+03  0.37883731125E+03  0.25500000000E-02 0.  1.
    8880023    1    1    2    0    0  0.36782831557E+03 -0.27569473906E+03  0.91422120325E+03  0.12169288696E+04  0.65864270000E+03 0.  0.
    8880022    1    1    2    0    0 -0.36782831557E+03  0.27569473906E+03  0.30443947981E+02  0.48541090415E+03  0.15294330000E+03 0.  0.
<mgrwt>
<rscale>  0 0.70782756E+03</rscale>
<asrwt>0</asrwt>
<pdfrwt beam="1">  1        2 0.20361576E+00 0.80319080E+03</pdfrwt>
<pdfrwt beam="2">  1       -2 0.58282664E-01 0.80319080E+03</pdfrwt>
<totfact> 0.44741665E+01</totfact>
</mgrwt>
</event>
<event>
 4    1  0.9654646E-007  0.1684626E+04  0.7818608E-02  0.8789194E-01
          2   -1    0    0  501    0  0.00000000000E+00  0.00000000000E+00  0.14845961464E+04  0.14845961464E+04  0.25500000000E-02 0. -1.
         -2   -1    0    0    0  501 -0.00000000000E+00 -0.00000000000E+00 -0.19254867849E+04  0.19254867849E+04  0.25500000000E-02 0.  1.
    8880023    1    1    2    0    0  0.15457594099E+04  0.12158401642E+03  0.25475579252E+03  0.17037797823E+04  0.65864270000E+03 0.  1.
    8880022    1    1    2    0    0 -0.15457594099E+04 -0.12158401642E+03 -0.69564643096E+03  0.17063031490E+04  0.15294330000E+03 0.  0.
<mgrwt>
<rscale>  0 0.16520515E+04</rscale>
<asrwt>0</asrwt>
<pdfrwt beam="1">  1        2 0.22839941E+00 0.16846261E+04</pdfrwt>
<pdfrwt beam="2">  1       -2 0.29622873E+00 0.16846261E+04</pdfrwt>
<totfact> 0.40105269E-01</totfact>
</mgrwt>
</event>
<event>
 4    1  0.9654646E-007  0.8113404E+03  0.7818608E-02  0.9686792E-01
         -2   -1    0    0    0  501 -0.00000000000E+00  0.00000000000E+00  0.15734761589E+04  0.15734761589E+04  0.25500000000E-02 0.  1.
          2   -1    0    0  501    0  0.00000000000E+00 -0.00000000000E+00 -0.76055293536E+03  0.76055293537E+03  0.25500000000E-02 0. -1.
    8880023    1    1    2    0    0 -0.39975437431E+03  0.25428236623E+03  0.13666885042E+04  0.15893743282E+04  0.65864270000E+03 0.  1.
    8880022    1    1    2    0    0  0.39975437431E+03 -0.25428236623E+03 -0.55376528062E+03  0.74465476605E+03  0.15294330000E+03 0.  0.
<mgrwt>
<rscale>  0 0.71808688E+03</rscale>
<asrwt>0</asrwt>
<pdfrwt beam="1">  1        2 0.11700814E+00 0.81134043E+03</pdfrwt>
<pdfrwt beam="2">  1       -2 0.24207326E+00 0.81134043E+03</pdfrwt>
<totfact> 0.27025085E+00</totfact>
</mgrwt>
</event>
<event>
 4    1  0.9654646E-007  0.1000997E+04  0.7818608E-02  0.9380255E-01
          2   -1    0    0  501    0  0.00000000000E+00  0.00000000000E+00  0.25472883083E+04  0.25472883083E+04  0.25500000000E-02 0. -1.
         -2   -1    0    0    0  501 -0.00000000000E+00 -0.00000000000E+00 -0.44642076260E+03  0.44642076261E+03  0.25500000000E-02 0.  1.
    8880023    1    1    2    0    0 -0.31676848505E+03 -0.68398944716E+03  0.31521678162E+03  0.10494549360E+04  0.65864270000E+03 0.  0.
    8880022    1    1    2    0    0  0.31676848505E+03  0.68398944716E+03  0.17856507640E+04  0.19442541349E+04  0.15294330000E+03 0.  0.
<mgrwt>
<rscale>  0 0.93718580E+03</rscale>
<asrwt>0</asrwt>
<pdfrwt beam="1">  1        2 0.39189052E+00 0.10009965E+04</pdfrwt>
<pdfrwt beam="2">  1       -2 0.68680115E-01 0.10009965E+04</pdfrwt>
<totfact> 0.64072607E+00</totfact>
</mgrwt>
</event>
<event>
 4    1  0.9654646E-007  0.1094671E+04  0.7818608E-02  0.9267013E-01
         -2   -1    0    0    0  501 -0.00000000000E+00  0.00000000000E+00  0.74964496091E+03  0.74964496092E+03  0.25500000000E-02 0.  1.
          2   -1    0    0  501    0  0.00000000000E+00 -0.00000000000E+00 -0.22607685041E+04  0.22607685041E+04  0.25500000000E-02 0. -1.
    8880023    1    1    2    0    0 -0.34964899839E+03  0.80139845556E+03  0.17149482557E+03  0.11080228283E+04  0.65864270000E+03 0.  0.
    8880022    1    1    2    0    0  0.34964899839E+03 -0.80139845556E+03 -0.16826183687E+04  0.19023906367E+04  0.15294330000E+03 0.  0.
<mgrwt>
<rscale>  0 0.10387727E+04</rscale>
<asrwt>0</asrwt>
<pdfrwt beam="1">  1        2 0.34781054E+00 0.10946708E+04</pdfrwt>
<pdfrwt beam="2">  1       -2 0.11532999E+00 0.10946708E+04</pdfrwt>
<totfact> 0.27688933E+00</totfact>
</mgrwt>
</event>
<event>
 4    1  0.9654646E-007  0.6737196E+03  0.7818608E-02  0.1013126E+00
         -2   -1    0    0    0  501 -0.00000000000E+00  0.00000000000E+00  0.13142429085E+03  0.13142429088E+03  0.25500000000E-02 0.  1.
          2   -1    0    0  501    0  0.00000000000E+00 -0.00000000000E+00 -0.32130188427E+04  0.32130188427E+04  0.25500000000E-02 0. -1.
    8880023    1    1    2    0    0 -0.10281437223E+03  0.97555328673E+02 -0.76863950048E+03  0.10221079812E+04  0.65864270000E+03 0.  1.
    8880022    1    1    2    0    0  0.10281437223E+03 -0.97555328673E+02 -0.23129550513E+04  0.23223351524E+04  0.15294330000E+03 0.  0.
<mgrwt>
<rscale>  0 0.50251025E+03</rscale>
<asrwt>0</asrwt>
<pdfrwt beam="1">  1        2 0.49431053E+00 0.67371956E+03</pdfrwt>
<pdfrwt beam="2">  1       -2 0.20219124E-01 0.67371956E+03</pdfrwt>
<totfact> 0.28717671E+01</totfact>
</mgrwt>
</event>
<event>
 4    1  0.9654646E-007  0.6750579E+03  0.7818608E-02  0.1012270E+00
          2   -1    0    0  501    0  0.00000000000E+00  0.00000000000E+00  0.59810976339E+03  0.59810976340E+03  0.25500000000E-02 0. -1.
         -2   -1    0    0    0  501 -0.00000000000E+00 -0.00000000000E+00 -0.41029150503E+03  0.41029150504E+03  0.25500000000E-02 0.  1.
    8880023    1    1    2    0    0 -0.11624737054E+02 -0.14750517266E+03 -0.64726399110E+02  0.67815383467E+03  0.65864270000E+03 0.  1.
    8880022    1    1    2    0    0  0.11624737054E+02  0.14750517266E+03  0.25254465747E+03  0.33024743376E+03  0.15294330000E+03 0.  0.
<mgrwt>
<rscale>  0 0.50582411E+03</rscale>
<asrwt>0</asrwt>
<pdfrwt beam="1">  1        2 0.92016886E-01 0.67505786E+03</pdfrwt>
<pdfrwt beam="2">  1       -2 0.63121771E-01 0.67505786E+03</pdfrwt>
<totfact> 0.11753779E+02</totfact>
</mgrwt>
</event>
<event>
 4    1  0.9654646E-007  0.1183060E+04  0.7818608E-02  0.9173768E-01
         -2   -1    0    0    0  501 -0.00000000000E+00  0.00000000000E+00  0.38496127847E+03  0.38496127848E+03  0.25500000000E-02 0.  1.
          2   -1    0    0  501    0  0.00000000000E+00 -0.00000000000E+00 -0.31481218368E+04  0.31481218368E+04  0.25500000000E-02 0. -1.
    8880023    1    1    2    0    0  0.97813933111E+03 -0.95204979852E+02 -0.17581445990E+04  0.21191279283E+04  0.65864270000E+03 0.  0.
    8880022    1    1    2    0    0 -0.97813933111E+03  0.95204979852E+02 -0.10050159593E+04  0.14139551870E+04  0.15294330000E+03 0.  0.
<mgrwt>
<rscale>  0 0.11328339E+04</rscale>
<asrwt>0</asrwt>
<pdfrwt beam="1">  1        2 0.48432642E+00 0.11830599E+04</pdfrwt>
<pdfrwt beam="2">  1       -2 0.59224814E-01 0.11830599E+04</pdfrwt>
<totfact> 0.37360030E+00</totfact>
</mgrwt>
</event>
<event>
 4    1  0.9654646E-007  0.9156149E+03  0.7818608E-02  0.9501416E-01
         -2   -1    0    0    0  501 -0.00000000000E+00  0.00000000000E+00  0.68637566136E+03  0.68637566136E+03  0.25500000000E-02 0.  1.
          2   -1    0    0  501    0  0.00000000000E+00 -0.00000000000E+00 -0.12686727208E+04  0.12686727208E+04  0.25500000000E-02 0. -1.
    8880023    1    1    2    0    0  0.30564692614E+03  0.55778167892E+03  0.19803877258E+03  0.93678706572E+03  0.65864270000E+03 0.  1.
    8880022    1    1    2    0    0 -0.30564692614E+03 -0.55778167892E+03 -0.78033583198E+03  0.10182613164E+04  0.15294330000E+03 0.  0.
<mgrwt>
<rscale>  0 0.84179530E+03</rscale>
<asrwt>0</asrwt>
<pdfrwt beam="1">  1        2 0.19518042E+00 0.91561490E+03</pdfrwt>
<pdfrwt beam="2">  1       -2 0.10559626E+00 0.91561490E+03</pdfrwt>
<totfact> 0.12529912E+01</totfact>
</mgrwt>
</event>
<event>
 4    1  0.9654646E-007  0.6592765E+03  0.7818608E-02  0.1024910E+00
         -2   -1    0    0    0  501 -0.00000000000E+00  0.00000000000E+00  0.11821694617E+04  0.11821694617E+04  0.25500000000E-02 0.  1.
          2   -1    0    0  501    0  0.00000000000E+00 -0.00000000000E+00 -0.42917422689E+03  0.42917422690E+03  0.25500000000E-02 0. -1.
    8880023    1    1    2    0    0  0.87882663817E+01  0.27532182481E+02  0.10707936431E+04  0.12574754419E+04  0.65864270000E+03 0.  1.
    8880022    1    1    2    0    0 -0.87882663817E+01 -0.27532182481E+02 -0.31779840827E+03  0.35386824669E+03  0.15294330000E+03 0.  0.
<mgrwt>
<rscale>  0 0.45955546E+03</rscale>
<asrwt>0</asrwt>
<pdfrwt beam="1">  1        2 0.66026804E-01 0.65927647E+03</pdfrwt>
<pdfrwt beam="2">  1       -2 0.18187222E+00 0.65927647E+03</pdfrwt>
<totfact> 0.13255083E+01</totfact>
</mgrwt>
</event>
<event>
 4    1  0.9654646E-007  0.6959106E+03  0.7818608E-02  0.1001461E+00
          2   -1    0    0  501    0  0.00000000000E+00  0.00000000000E+00  0.17329371833E+04  0.17329371833E+04  0.25500000000E-02 0. -1.
         -2   -1    0    0    0  501 -0.00000000000E+00 -0.00000000000E+00 -0.22044920224E+03  0.22044920226E+03  0.25500000000E-02 0.  1.
    8880023    1    1    2    0    0 -0.21621631261E+03 -0.61089467234E+02  0.38851263445E+03  0.79701548933E+03  0.65864270000E+03 0.  1.
    8880022    1    1    2    0    0  0.21621631261E+03  0.61089467234E+02  0.11239753466E+04  0.11563708962E+04  0.15294330000E+03 0.  1.
<mgrwt>
<rscale>  0 0.55014336E+03</rscale>
<asrwt>0</asrwt>
<pdfrwt beam="1">  1        2 0.26660572E+00 0.69591064E+03</pdfrwt>
<pdfrwt beam="2">  1       -2 0.33915262E-01 0.69591064E+03</pdfrwt>
<totfact> 0.78684394E+01</totfact>
</mgrwt>
</event>
<event>
 4    1  0.9654646E-007  0.8464089E+03  0.7818608E-02  0.9618212E-01
         -2   -1    0    0    0  501 -0.00000000000E+00  0.00000000000E+00  0.34155956926E+03  0.34155956927E+03  0.25500000000E-02 0.  1.
          2   -1    0    0  501    0  0.00000000000E+00 -0.00000000000E+00 -0.20693074212E+04  0.20693074212E+04  0.25500000000E-02 0. -1.
    8880023    1    1    2    0    0  0.41913346750E+03  0.32699377177E+03 -0.33145572091E+03  0.90899443977E+03  0.65864270000E+03 0.  0.
    8880022    1    1    2    0    0 -0.41913346750E+03 -0.32699377177E+03 -0.13962921311E+04  0.15018725507E+04  0.15294330000E+03 0.  0.
<mgrwt>
<rscale>  0 0.76102420E+03</rscale>
<asrwt>0</asrwt>
<pdfrwt beam="1">  1        2 0.31835498E+00 0.84640888E+03</pdfrwt>
<pdfrwt beam="2">  1       -2 0.52547628E-01 0.84640888E+03</pdfrwt>
<totfact> 0.21354619E+01</totfact>
</mgrwt>
</event>
<event>
 4    1  0.9654646E-007  0.6958076E+03  0.7818608E-02  0.1001506E+00
         -2   -1    0    0    0  501 -0.00000000000E+00  0.00000000000E+00  0.26686152009E+03  0.26686152011E+03  0.25500000000E-02 0.  1.
          2   -1    0    0  501    0  0.00000000000E+00 -0.00000000000E+00 -0.12604144028E+04  0.12604144028E+04  0.25500000000E-02 0. -1.
    8880023    1    1    2    0    0 -0.22297283465E+03 -0.24922685480E+02 -0.25613286819E+03  0.74145281554E+03  0.65864270000E+03 0.  0.
    8880022    1    1    2    0    0  0.22297283465E+03  0.24922685480E+02 -0.73742001448E+03  0.78582310733E+03  0.15294330000E+03 0.  0.
<mgrwt>
<rscale>  0 0.54994869E+03</rscale>
<asrwt>0</asrwt>
<pdfrwt beam="1">  1        2 0.19390990E+00 0.69580761E+03</pdfrwt>
<pdfrwt beam="2">  1       -2 0.41055619E-01 0.69580761E+03</pdfrwt>
<totfact> 0.99995594E+01</totfact>
</mgrwt>
</event>
<event>
 4    1  0.9654646E-007  0.1325228E+04  0.7818608E-02  0.9044074E-01
          2   -1    0    0  501    0  0.00000000000E+00  0.00000000000E+00  0.24608197776E+04  0.24608197776E+04  0.25500000000E-02 0. -1.
         -2   -1    0    0    0  501 -0.00000000000E+00 -0.00000000000E+00 -0.89091924483E+03  0.89091924483E+03  0.25500000000E-02 0.  1.
    8880023    1    1    2    0    0  0.38227561844E+03  0.10845669303E+04 -0.88133647539E+02  0.13281557969E+04  0.65864270000E+03 0.  0.
    8880022    1    1    2    0    0 -0.38227561844E+03 -0.10845669303E+04  0.16580341803E+04  0.20235832255E+04  0.15294330000E+03 0.  0.
<mgrwt>
<rscale>  0 0.12818614E+04</rscale>
<asrwt>0</asrwt>
<pdfrwt beam="1">  1        2 0.37858766E+00 0.13252284E+04</pdfrwt>
<pdfrwt beam="2">  1       -2 0.13706450E+00 0.13252284E+04</pdfrwt>
<totfact> 0.13418010E+00</totfact>
</mgrwt>
</event>
<event>
 4    1  0.9654646E-007  0.7106795E+03  0.7818608E-02  0.9955486E-01
         -2   -1    0    0    0  501 -0.00000000000E+00  0.00000000000E+00  0.14520722366E+03  0.14520722369E+03  0.25500000000E-02 0.  1.
          2   -1    0    0  501    0  0.00000000000E+00 -0.00000000000E+00 -0.24836323372E+04  0.24836323372E+04  0.25500000000E-02 0. -1.
    8880023    1    1    2    0    0 -0.25227291676E+03 -0.87255586010E+02 -0.84531958869E+03  0.11043688583E+04  0.65864270000E+03 0.  1.
    8880022    1    1    2    0    0  0.25227291676E+03  0.87255586010E+02 -0.14931055249E+04  0.15244707027E+04  0.15294330000E+03 0.  0.
<mgrwt>
<rscale>  0 0.57645923E+03</rscale>
<asrwt>0</asrwt>
<pdfrwt beam="1">  1        2 0.38209725E+00 0.71067951E+03</pdfrwt>
<pdfrwt beam="2">  1       -2 0.22339575E-01 0.71067951E+03</pdfrwt>
<totfact> 0.65210709E+01</totfact>
</mgrwt>
</event>
<event>
 4    1  0.9654646E-007  0.1484331E+04  0.7818608E-02  0.8920780E-01
          2   -1    0    0  501    0  0.00000000000E+00  0.00000000000E+00  0.30321789315E+04  0.30321789315E+04  0.25500000000E-02 0. -1.
         -2   -1    0    0    0  501 -0.00000000000E+00 -0.00000000000E+00 -0.27548653863E+04  0.27548653863E+04  0.25500000000E-02 0.  1.
    8880023    1    1    2    0    0  0.13006189806E+04 -0.27895975182E+03  0.26644648847E+04  0.30500182957E+04  0.65864270000E+03 0.  0.
    8880022    1    1    2    0    0 -0.13006189806E+04  0.27895975182E+03 -0.23871513395E+04  0.27370260222E+04  0.15294330000E+03 0.  0.
<mgrwt>
<rscale>  0 0.14465723E+04</rscale>
<asrwt>0</asrwt>
<pdfrwt beam="1">  1        2 0.46648907E+00 0.14843310E+04</pdfrwt>
<pdfrwt beam="2">  1       -2 0.42382544E+00 0.14843310E+04</pdfrwt>
<totfact> 0.81252823E-03</totfact>
</mgrwt>
</event>
<event>
 4    1  0.9654646E-007  0.8711167E+03  0.7818608E-02  0.9574087E-01
         -2   -1    0    0    0  501 -0.00000000000E+00  0.00000000000E+00  0.87764523555E+03  0.87764523555E+03  0.25500000000E-02 0.  1.
          2   -1    0    0  501    0  0.00000000000E+00 -0.00000000000E+00 -0.81724021689E+03  0.81724021689E+03  0.25500000000E-02 0. -1.
    8880023    1    1    2    0    0  0.32712128528E+03  0.46693236228E+03  0.45703530652E+03  0.98373047320E+03  0.65864270000E+03 0.  1.
    8880022    1    1    2    0    0 -0.32712128528E+03 -0.46693236228E+03 -0.39663028786E+03  0.71115497924E+03  0.15294330000E+03 0.  0.
<mgrwt>
<rscale>  0 0.79035292E+03</rscale>
<asrwt>0</asrwt>
<pdfrwt beam="1">  1        2 0.12572926E+00 0.87111674E+03</pdfrwt>
<pdfrwt beam="2">  1       -2 0.13502234E+00 0.87111674E+03</pdfrwt>
<totfact> 0.13245512E+01</totfact>
</mgrwt>
</event>
<event>
 4    1  0.9654646E-007  0.7220836E+03  0.7818608E-02  0.9915598E-01
          2   -1    0    0  501    0  0.00000000000E+00  0.00000000000E+00  0.15607719492E+04  0.15607719492E+04  0.25500000000E-02 0. -1.
         -2   -1    0    0    0  501 -0.00000000000E+00 -0.00000000000E+00 -0.28681898242E+03  0.28681898243E+03  0.25500000000E-02 0.  1.
    8880023    1    1    2    0    0 -0.28599368580E+03 -0.76171633688E+02  0.23942110460E+03  0.76074120283E+03  0.65864270000E+03 0.  1.
    8880022    1    1    2    0    0  0.28599368580E+03  0.76171633688E+02  0.10345318622E+04  0.10868497288E+04  0.15294330000E+03 0.  0.
<mgrwt>
<rscale>  0 0.59511269E+03</rscale>
<asrwt>0</asrwt>
<pdfrwt beam="1">  1        2 0.24011876E+00 0.72208359E+03</pdfrwt>
<pdfrwt beam="2">  1       -2 0.44125998E-01 0.72208359E+03</pdfrwt>
<totfact> 0.58560750E+01</totfact>
</mgrwt>
</event>
<event>
 4    1  0.9654646E-007  0.7307915E+03  0.7818608E-02  0.9887631E-01
         -2   -1    0    0    0  501 -0.00000000000E+00  0.00000000000E+00  0.18813218606E+04  0.18813218606E+04  0.25500000000E-02 0.  1.
          2   -1    0    0  501    0  0.00000000000E+00 -0.00000000000E+00 -0.18682940747E+03  0.18682940749E+03  0.25500000000E-02 0. -1.
    8880023    1    1    2    0    0 -0.26008110752E+03 -0.18056546396E+03  0.14945666328E+04  0.16636663414E+04  0.65864270000E+03 0.  1.
    8880022    1    1    2    0    0  0.26008110752E+03  0.18056546396E+03  0.19992582026E+03  0.40448492665E+03  0.15294330000E+03 0.  0.
<mgrwt>
<rscale>  0 0.60864493E+03</rscale>
<asrwt>0</asrwt>
<pdfrwt beam="1">  1        2 0.28742986E-01 0.73079154E+03</pdfrwt>
<pdfrwt beam="2">  1       -2 0.28943413E+00 0.73079154E+03</pdfrwt>
<totfact> 0.71532296E+00</totfact>
</mgrwt>
</event>
<event>
 4    1  0.9654646E-007  0.9462676E+03  0.7818608E-02  0.9455505E-01
         -2   -1    0    0    0  501 -0.00000000000E+00  0.00000000000E+00  0.75871739854E+03  0.75871739854E+03  0.25500000000E-02 0.  1.
          2   -1    0    0  501    0  0.00000000000E+00 -0.00000000000E+00 -0.27829991851E+04  0.27829991851E+04  0.25500000000E-02 0. -1.
    8880023    1    1    2    0    0  0.67845112161E+03  0.36280978698E+02  0.39410183241E+03  0.10250554592E+04  0.65864270000E+03 0.  1.
    8880022    1    1    2    0    0 -0.67845112161E+03 -0.36280978698E+02 -0.24183836190E+04  0.25166611245E+04  0.15294330000E+03 0.  0.
<mgrwt>
<rscale>  0 0.87645302E+03</rscale>
<asrwt>0</asrwt>
<pdfrwt beam="1">  1        2 0.42815372E+00 0.94626764E+03</pdfrwt>
<pdfrwt beam="2">  1       -2 0.11672575E+00 0.94626764E+03</pdfrwt>
<totfact> 0.13758358E+00</totfact>
</mgrwt>
</event>
<event>
 4    1  0.9654646E-007  0.6668855E+03  0.7818608E-02  0.1018001E+00
          2   -1    0    0  501    0  0.00000000000E+00  0.00000000000E+00  0.16184508134E+04  0.16184508134E+04  0.25500000000E-02 0. -1.
         -2   -1    0    0    0  501 -0.00000000000E+00 -0.00000000000E+00 -0.22080621357E+03  0.22080621359E+03  0.25500000000E-02 0.  1.
    8880023    1    1    2    0    0 -0.10301092067E+03 -0.17741684694E+02  0.30905563424E+03  0.73501810078E+03  0.65864270000E+03 0.  0.
    8880022    1    1    2    0    0  0.10301092067E+03  0.17741684694E+02  0.10885889656E+04  0.11042389262E+04  0.15294330000E+03 0.  0.
<mgrwt>
<rscale>  0 0.48414802E+03</rscale>
<asrwt>0</asrwt>
<pdfrwt beam="1">  1        2 0.24899245E+00 0.66688546E+03</pdfrwt>
<pdfrwt beam="2">  1       -2 0.33970185E-01 0.66688546E+03</pdfrwt>
<totfact> 0.90887040E+01</totfact>
</mgrwt>
</event>
<event>
 4    1  0.9654646E-007  0.7239548E+03  0.7818608E-02  0.9909424E-01
          2   -1    0    0  501    0  0.00000000000E+00  0.00000000000E+00  0.35777339361E+04  0.35777339361E+04  0.25500000000E-02 0. -1.
         -2   -1    0    0    0  501 -0.00000000000E+00 -0.00000000000E+00 -0.24775716985E+03  0.24775716987E+03  0.25500000000E-02 0.  1.
    8880023    1    1    2    0    0 -0.29109177260E+03  0.74605507243E+02  0.31130979770E+03  0.78805101243E+03  0.65864270000E+03 0.  1.
    8880022    1    1    2    0    0  0.29109177260E+03 -0.74605507243E+02  0.30186669685E+04  0.30374400935E+04  0.15294330000E+03 0.  0.
<mgrwt>
<rscale>  0 0.59806704E+03</rscale>
<asrwt>0</asrwt>
<pdfrwt beam="1">  1        2 0.55042061E+00 0.72395484E+03</pdfrwt>
<pdfrwt beam="2">  1       -2 0.38116487E-01 0.72395484E+03</pdfrwt>
<totfact> 0.50852935E+00</totfact>
</mgrwt>
</event>
<event>
 4    1  0.9654646E-007  0.1057792E+04  0.7818608E-02  0.9309572E-01
         -2   -1    0    0    0  501 -0.00000000000E+00  0.00000000000E+00  0.19595256893E+04  0.19595256893E+04  0.25500000000E-02 0.  1.
          2   -1    0    0  501    0  0.00000000000E+00 -0.00000000000E+00 -0.17856666008E+04  0.17856666008E+04  0.25500000000E-02 0. -1.
    8880023    1    1    2    0    0  0.81500185945E+03 -0.14452052356E+03 -0.15210936673E+04  0.18527413105E+04  0.65864270000E+03 0.  0.
    8880022    1    1    2    0    0 -0.81500185945E+03  0.14452052356E+03  0.16949527559E+04  0.18924509796E+04  0.15294330000E+03 0.  0.
<mgrwt>
<rscale>  0 0.99906378E+03</rscale>
<asrwt>0</asrwt>
<pdfrwt beam="1">  1        2 0.27471794E+00 0.10577922E+04</pdfrwt>
<pdfrwt beam="2">  1       -2 0.30146549E+00 0.10577922E+04</pdfrwt>
<totfact> 0.27305735E-01</totfact>
</mgrwt>
</event>
<event>
 4    1  0.9654646E-007  0.8210361E+03  0.7818608E-02  0.9667032E-01
         -2   -1    0    0    0  501 -0.00000000000E+00  0.00000000000E+00  0.27642456164E+03  0.27642456166E+03  0.25500000000E-02 0.  1.
          2   -1    0    0  501    0  0.00000000000E+00 -0.00000000000E+00 -0.16662155042E+04  0.16662155042E+04  0.25500000000E-02 0. -1.
    8880023    1    1    2    0    0  0.27881187697E+02 -0.48940040867E+03 -0.10223329232E+04  0.13112074331E+04  0.65864270000E+03 0.  0.
    8880022    1    1    2    0    0 -0.27881187697E+02  0.48940040867E+03 -0.36745801936E+03  0.63143263270E+03  0.15294330000E+03 0.  0.
<mgrwt>
<rscale>  0 0.73014097E+03</rscale>
<asrwt>0</asrwt>
<pdfrwt beam="1">  1        2 0.25634084E+00 0.82103613E+03</pdfrwt>
<pdfrwt beam="2">  1       -2 0.42526857E-01 0.82103613E+03</pdfrwt>
<totfact> 0.54555409E+01</totfact>
</mgrwt>
</event>
<event>
 4    1  0.9654646E-007  0.1245635E+04  0.7818608E-02  0.9113990E-01
          2   -1    0    0  501    0  0.00000000000E+00  0.00000000000E+00  0.17944550252E+04  0.17944550252E+04  0.25500000000E-02 0. -1.
         -2   -1    0    0    0  501 -0.00000000000E+00 -0.00000000000E+00 -0.94324952077E+03  0.94324952078E+03  0.25500000000E-02 0.  1.
    8880023    1    1    2    0    0 -0.44729850033E+03  0.95797708315E+03 -0.17322448292E+03  0.12576219495E+04  0.65864270000E+03 0.  1.
    8880022    1    1    2    0    0  0.44729850033E+03 -0.95797708315E+03  0.10244299873E+04  0.14800825964E+04  0.15294330000E+03 0. -1.
<mgrwt>
<rscale>  0 0.11987061E+04</rscale>
<asrwt>0</asrwt>
<pdfrwt beam="1">  1        2 0.27607000E+00 0.12456349E+04</pdfrwt>
<pdfrwt beam="2">  1       -2 0.14511531E+00 0.12456349E+04</pdfrwt>
<totfact> 0.27513602E+00</totfact>
</mgrwt>
</event>
<event>
 4    1  0.9654646E-007  0.7521712E+03  0.7818608E-02  0.9825814E-01
          2   -1    0    0  501    0  0.00000000000E+00  0.00000000000E+00  0.12797439677E+04  0.12797439677E+04  0.25500000000E-02 0. -1.
         -2   -1    0    0    0  501 -0.00000000000E+00 -0.00000000000E+00 -0.35099647202E+03  0.35099647203E+03  0.25500000000E-02 0.  1.
    8880023    1    1    2    0    0  0.16167818724E+03  0.32528680129E+03  0.16317255157E+03  0.76966669876E+03  0.65864270000E+03 0.  1.
    8880022    1    1    2    0    0 -0.16167818724E+03 -0.32528680129E+03  0.76557494412E+03  0.86107374098E+03  0.15294330000E+03 0.  0.
<mgrwt>
<rscale>  0 0.63995435E+03</rscale>
<asrwt>0</asrwt>
<pdfrwt beam="1">  1        2 0.19688369E+00 0.75217122E+03</pdfrwt>
<pdfrwt beam="2">  1       -2 0.53999457E-01 0.75217122E+03</pdfrwt>
<totfact> 0.55867659E+01</totfact>
</mgrwt>
</event>
<event>
 4    1  0.9654646E-007  0.8333932E+03  0.7818608E-02  0.9642766E-01
         -2   -1    0    0    0  501 -0.00000000000E+00  0.00000000000E+00  0.46783322640E+03  0.46783322641E+03  0.25500000000E-02 0.  1.
          2   -1    0    0  501    0  0.00000000000E+00 -0.00000000000E+00 -0.10618255436E+04  0.10618255436E+04  0.25500000000E-02 0. -1.
    8880023    1    1    2    0    0 -0.31690014171E+03  0.40038527326E+03 -0.54190559395E+03  0.99408548218E+03  0.65864270000E+03 0.  0.
    8880022    1    1    2    0    0  0.31690014171E+03 -0.40038527326E+03 -0.52086723225E+02  0.53557328780E+03  0.15294330000E+03 0.  0.
<mgrwt>
<rscale>  0 0.74529172E+03</rscale>
<asrwt>0</asrwt>
<pdfrwt beam="1">  1        2 0.16335778E+00 0.83339323E+03</pdfrwt>
<pdfrwt beam="2">  1       -2 0.71974343E-01 0.83339323E+03</pdfrwt>
<totfact> 0.40607943E+01</totfact>
</mgrwt>
</event>
<event>
 4    1  0.9654646E-007  0.1117006E+04  0.7818608E-02  0.9242354E-01
         -2   -1    0    0    0  501 -0.00000000000E+00  0.00000000000E+00  0.86905377211E+03  0.86905377212E+03  0.25500000000E-02 0.  1.
          2   -1    0    0  501    0  0.00000000000E+00 -0.00000000000E+00 -0.12211304324E+04  0.12211304324E+04  0.25500000000E-02 0. -1.
    8880023    1    1    2    0    0 -0.27714290644E+03  0.85853594544E+03 -0.36479093306E+03  0.11750637393E+04  0.65864270000E+03 0.  0.
    8880022    1    1    2    0    0  0.27714290644E+03 -0.85853594544E+03  0.12714272775E+02  0.91512046527E+03  0.15294330000E+03 0.  0.
<mgrwt>
<rscale>  0 0.10626756E+04</rscale>
<asrwt>0</asrwt>
<pdfrwt beam="1">  1        2 0.18786622E+00 0.11170060E+04</pdfrwt>
<pdfrwt beam="2">  1       -2 0.13370058E+00 0.11170060E+04</pdfrwt>
<totfact> 0.73006392E+00</totfact>
</mgrwt>
</event>
<event>
 4    1  0.9654646E-007  0.7806624E+03  0.7818608E-02  0.9754283E-01
          2   -1    0    0  501    0  0.00000000000E+00  0.00000000000E+00  0.18905677507E+04  0.18905677507E+04  0.25500000000E-02 0. -1.
         -2   -1    0    0    0  501 -0.00000000000E+00 -0.00000000000E+00 -0.32027528946E+03  0.32027528947E+03  0.25500000000E-02 0.  1.
    8880023    1    1    2    0    0 -0.40250493349E+03  0.11667645872E+03  0.25390020094E+03  0.82091359826E+03  0.65864270000E+03 0.  0.
    8880022    1    1    2    0    0  0.40250493349E+03 -0.11667645872E+03  0.13163922603E+04  0.13899294420E+04  0.15294330000E+03 0.  0.
<mgrwt>
<rscale>  0 0.67874752E+03</rscale>
<asrwt>0</asrwt>
<pdfrwt beam="1">  1        2 0.29085657E+00 0.78066243E+03</pdfrwt>
<pdfrwt beam="2">  1       -2 0.49273123E-01 0.78066243E+03</pdfrwt>
<totfact> 0.30756230E+01</totfact>
</mgrwt>
</event>
<event>
 4    1  0.9654646E-007  0.6790043E+03  0.7818608E-02  0.1009893E+00
          2   -1    0    0  501    0  0.00000000000E+00  0.00000000000E+00  0.21722111718E+04  0.21722111718E+04  0.25500000000E-02 0. -1.
         -2   -1    0    0    0  501 -0.00000000000E+00 -0.00000000000E+00 -0.11378634532E+03  0.11378634535E+03  0.25500000000E-02 0.  1.
    8880023    1    1    2    0    0  0.15099263260E+03 -0.66616786039E+02  0.10330102971E+04  0.12361864954E+04  0.65864270000E+03 0.  0.
    8880022    1    1    2    0    0 -0.15099263260E+03  0.66616786039E+02  0.10254145294E+04  0.10498110217E+04  0.15294330000E+03 0.  1.
<mgrwt>
<rscale>  0 0.51517343E+03</rscale>
<asrwt>0</asrwt>
<pdfrwt beam="1">  1        2 0.33418637E+00 0.67900425E+03</pdfrwt>
<pdfrwt beam="2">  1       -2 0.17505590E-01 0.67900425E+03</pdfrwt>
<totfact> 0.14928367E+02</totfact>
</mgrwt>
</event>
<event>
 4    1  0.9654646E-007  0.1137699E+04  0.7818608E-02  0.9220200E-01
         -2   -1    0    0    0  501 -0.00000000000E+00  0.00000000000E+00  0.10318592209E+04  0.10318592209E+04  0.25500000000E-02 0.  1.
          2   -1    0    0  501    0  0.00000000000E+00 -0.00000000000E+00 -0.11242740412E+04  0.11242740412E+04  0.25500000000E-02 0. -1.
    8880023    1    1    2    0    0  0.91400451577E+03  0.15856794554E+03  0.23284128115E+03  0.11612808948E+04  0.65864270000E+03 0.  0.
    8880022    1    1    2    0    0 -0.91400451577E+03 -0.15856794554E+03 -0.32525610141E+03  0.99485236730E+03  0.15294330000E+03 0.  0.
<mgrwt>
<rscale>  0 0.10847340E+04</rscale>
<asrwt>0</asrwt>
<pdfrwt beam="1">  1        2 0.17296524E+00 0.11376987E+04</pdfrwt>
<pdfrwt beam="2">  1       -2 0.15874757E+00 0.11376987E+04</pdfrwt>
<totfact> 0.52987798E+00</totfact>
</mgrwt>
</event>
<event>
 4    1  0.9654646E-007  0.6831677E+03  0.7818608E-02  0.1007586E+00
         -2   -1    0    0    0  501 -0.00000000000E+00  0.00000000000E+00  0.54072513013E+03  0.54072513014E+03  0.25500000000E-02 0.  1.
          2   -1    0    0  501    0  0.00000000000E+00 -0.00000000000E+00 -0.68901444623E+03  0.68901444624E+03  0.25500000000E-02 0. -1.
    8880023    1    1    2    0    0  0.99936196863E+02  0.15139586139E+03  0.28142990205E+03  0.73886463329E+03  0.65864270000E+03 0.  1.
    8880022    1    1    2    0    0 -0.99936196863E+02 -0.15139586139E+03 -0.42971921815E+03  0.49087494309E+03  0.15294330000E+03 0. -1.
<mgrwt>
<rscale>  0 0.52445554E+03</rscale>
<asrwt>0</asrwt>
<pdfrwt beam="1">  1        2 0.10600222E+00 0.68316774E+03</pdfrwt>
<pdfrwt beam="2">  1       -2 0.83188481E-01 0.68316774E+03</pdfrwt>
<totfact> 0.53846649E+01</totfact>
</mgrwt>
</event>
<event>
 4    1  0.9654646E-007  0.7347641E+03  0.7818608E-02  0.9875470E-01
          2   -1    0    0  501    0  0.00000000000E+00  0.00000000000E+00  0.24331100304E+04  0.24331100304E+04  0.25500000000E-02 0. -1.
         -2   -1    0    0    0  501 -0.00000000000E+00 -0.00000000000E+00 -0.32694261716E+03  0.32694261717E+03  0.25500000000E-02 0.  1.
    8880023    1    1    2    0    0 -0.23283308072E+03 -0.22772105197E+03  0.12358438371E+03  0.74508484560E+03  0.65864270000E+03 0.  0.
    8880022    1    1    2    0    0  0.23283308072E+03  0.22772105197E+03  0.19825830295E+04  0.20149678020E+04  0.15294330000E+03 0. -1.
<mgrwt>
<rscale>  0 0.61464990E+03</rscale>
<asrwt>0</asrwt>
<pdfrwt beam="1">  1        2 0.37432461E+00 0.73476413E+03</pdfrwt>
<pdfrwt beam="2">  1       -2 0.50298865E-01 0.73476413E+03</pdfrwt>
<totfact> 0.14906712E+01</totfact>
</mgrwt>
</event>
<event>
 4    1  0.9654646E-007  0.7815322E+03  0.7818608E-02  0.9752250E-01
          2   -1    0    0  501    0  0.00000000000E+00  0.00000000000E+00  0.15132105403E+04  0.15132105403E+04  0.25500000000E-02 0. -1.
         -2   -1    0    0    0  501 -0.00000000000E+00 -0.00000000000E+00 -0.36299604898E+03  0.36299604899E+03  0.25500000000E-02 0.  1.
    8880023    1    1    2    0    0  0.34018821798E+03  0.24749630276E+03  0.17170802326E+03  0.80017266577E+03  0.65864270000E+03 0.  0.
    8880022    1    1    2    0    0 -0.34018821798E+03 -0.24749630276E+03  0.97850646805E+03  0.10760339235E+04  0.15294330000E+03 0.  0.
<mgrwt>
<rscale>  0 0.67989269E+03</rscale>
<asrwt>0</asrwt>
<pdfrwt beam="1">  1        2 0.23280162E+00 0.78153224E+03</pdfrwt>
<pdfrwt beam="2">  1       -2 0.55845545E-01 0.78153224E+03</pdfrwt>
<totfact> 0.38305709E+01</totfact>
</mgrwt>
</event>
<event>
 4    1  0.9654646E-007  0.7136717E+03  0.7818608E-02  0.9944611E-01
         -2   -1    0    0    0  501 -0.00000000000E+00  0.00000000000E+00  0.56584566732E+03  0.56584566733E+03  0.25500000000E-02 0.  1.
          2   -1    0    0  501    0  0.00000000000E+00 -0.00000000000E+00 -0.64586504100E+03  0.64586504101E+03  0.25500000000E-02 0. -1.
    8880023    1    1    2    0    0 -0.27252974438E+03 -0.35278288930E+02  0.24966203578E+03  0.75608092002E+03  0.65864270000E+03 0.  1.
    8880022    1    1    2    0    0  0.27252974438E+03  0.35278288930E+02 -0.32968140946E+03  0.45562978832E+03  0.15294330000E+03 0.  0.
<mgrwt>
<rscale>  0 0.58147110E+03</rscale>
<asrwt>0</asrwt>
<pdfrwt beam="1">  1        2 0.99363853E-01 0.71367165E+03</pdfrwt>
<pdfrwt beam="2">  1       -2 0.87053179E-01 0.71367165E+03</pdfrwt>
<totfact> 0.52494193E+01</totfact>
</mgrwt>
</event>
<event>
 4    1  0.9654646E-007  0.6594833E+03  0.7818608E-02  0.1024692E+00
         -2   -1    0    0    0  501 -0.00000000000E+00  0.00000000000E+00  0.22256794513E+03  0.22256794515E+03  0.25500000000E-02 0.  1.
          2   -1    0    0  501    0  0.00000000000E+00 -0.00000000000E+00 -0.33342232724E+04  0.33342232724E+04  0.25500000000E-02 0. -1.
    8880023    1    1    2    0    0 -0.80471875378E+01 -0.32299162315E+02 -0.27288945306E+03  0.71371342496E+03  0.65864270000E+03 0.  1.
    8880022    1    1    2    0    0  0.80471875378E+01  0.32299162315E+02 -0.28387658742E+04  0.28430777925E+04  0.15294330000E+03 0.  0.
<mgrwt>
<rscale>  0 0.46030725E+03</rscale>
<asrwt>0</asrwt>
<pdfrwt beam="1">  1        2 0.51295739E+00 0.65948328E+03</pdfrwt>
<pdfrwt beam="2">  1       -2 0.34241225E-01 0.65948328E+03</pdfrwt>
<totfact> 0.92372237E+00</totfact>
</mgrwt>
</event>
<event>
 4    1  0.9654646E-007  0.6812172E+03  0.7818608E-02  0.1008643E+00
         -2   -1    0    0    0  501 -0.00000000000E+00  0.00000000000E+00  0.21005855403E+03  0.21005855405E+03  0.25500000000E-02 0.  1.
          2   -1    0    0  501    0  0.00000000000E+00 -0.00000000000E+00 -0.14935212165E+04  0.14935212165E+04  0.25500000000E-02 0. -1.
    8880023    1    1    2    0    0  0.12607192915E+03 -0.11980194670E+03 -0.39936713472E+03  0.78965242500E+03  0.65864270000E+03 0.  1.
    8880022    1    1    2    0    0 -0.12607192915E+03  0.11980194670E+03 -0.88409552778E+03  0.91392734558E+03  0.15294330000E+03 0.  0.
<mgrwt>
<rscale>  0 0.52017390E+03</rscale>
<asrwt>0</asrwt>
<pdfrwt beam="1">  1        2 0.22977249E+00 0.68121718E+03</pdfrwt>
<pdfrwt beam="2">  1       -2 0.32316701E-01 0.68121718E+03</pdfrwt>
<totfact> 0.11683873E+02</totfact>
</mgrwt>
</event>
<event>
 4    1  0.9654646E-007  0.7782632E+03  0.7818608E-02  0.9759933E-01
         -2   -1    0    0    0  501 -0.00000000000E+00  0.00000000000E+00  0.58894585802E+03  0.58894585803E+03  0.25500000000E-02 0.  1.
          2   -1    0    0  501    0  0.00000000000E+00 -0.00000000000E+00 -0.10425160933E+04  0.10425160933E+04  0.25500000000E-02 0. -1.
    8880023    1    1    2    0    0 -0.40105945633E+03 -0.10504619172E+03  0.23528456993E+03  0.81305130528E+03  0.65864270000E+03 0.  0.
    8880022    1    1    2    0    0  0.40105945633E+03  0.10504619172E+03 -0.68885480522E+03  0.81841064607E+03  0.15294330000E+03 0.  0.
<mgrwt>
<rscale>  0 0.67557833E+03</rscale>
<asrwt>0</asrwt>
<pdfrwt beam="1">  1        2 0.16038709E+00 0.77826319E+03</pdfrwt>
<pdfrwt beam="2">  1       -2 0.90607055E-01 0.77826319E+03</pdfrwt>
<totfact> 0.24966593E+01</totfact>
</mgrwt>
</event>
<event>
 4    1  0.9654646E-007  0.6798363E+03  0.7818608E-02  0.1009416E+00
         -2   -1    0    0    0  501 -0.00000000000E+00  0.00000000000E+00  0.27252973852E+03  0.27252973853E+03  0.25500000000E-02 0.  1.
          2   -1    0    0  501    0  0.00000000000E+00 -0.00000000000E+00 -0.20192194867E+04  0.20192194867E+04  0.25500000000E-02 0. -1.
    8880023    1    1    2    0    0 -0.80484228309E+02 -0.14795071839E+03 -0.17273553978E+03  0.70143773711E+03  0.65864270000E+03 0.  1.
    8880022    1    1    2    0    0  0.80484228309E+02  0.14795071839E+03 -0.15739542084E+04  0.15903114881E+04  0.15294330000E+03 0.  0.
<mgrwt>
<rscale>  0 0.51707227E+03</rscale>
<asrwt>0</asrwt>
<pdfrwt beam="1">  1        2 0.31064914E+00 0.67983625E+03</pdfrwt>
<pdfrwt beam="2">  1       -2 0.41927653E-01 0.67983625E+03</pdfrwt>
<totfact> 0.36607600E+01</totfact>
</mgrwt>
</event>
<event>
 4    1  0.9654646E-007  0.6642849E+03  0.7818608E-02  0.1020141E+00
         -2   -1    0    0    0  501 -0.00000000000E+00  0.00000000000E+00  0.24601671358E+03  0.24601671359E+03  0.25500000000E-02 0.  1.
          2   -1    0    0  501    0  0.00000000000E+00 -0.00000000000E+00 -0.92424105291E+03  0.92424105292E+03  0.25500000000E-02 0. -1.
    8880023    1    1    2    0    0 -0.76345450216E+02  0.40442773756E+02 -0.25415083242E+03  0.71124334626E+03  0.65864270000E+03 0.  1.
    8880022    1    1    2    0    0  0.76345450216E+02 -0.40442773756E+02 -0.42407350691E+03  0.45901442025E+03  0.15294330000E+03 0.  0.
<mgrwt>
<rscale>  0 0.47635757E+03</rscale>
<asrwt>0</asrwt>
<pdfrwt beam="1">  1        2 0.14219093E+00 0.66428492E+03</pdfrwt>
<pdfrwt beam="2">  1       -2 0.37848726E-01 0.66428492E+03</pdfrwt>
<totfact> 0.18891176E+02</totfact>
</mgrwt>
</event>
<event>
 4    1  0.9654646E-007  0.1091716E+04  0.7818608E-02  0.9270336E-01
         -2   -1    0    0    0  501 -0.00000000000E+00  0.00000000000E+00  0.39308541823E+03  0.39308541824E+03  0.25500000000E-02 0.  1.
          2   -1    0    0  501    0  0.00000000000E+00 -0.00000000000E+00 -0.39750559044E+04  0.39750559044E+04  0.25500000000E-02 0. -1.
    8880023    1    1    2    0    0  0.40426531203E+03 -0.77110499102E+03 -0.32422711815E+04  0.34211351874E+04  0.65864270000E+03 0.  0.
    8880022    1    1    2    0    0 -0.40426531203E+03  0.77110499102E+03 -0.33969930475E+03  0.94700613533E+03  0.15294330000E+03 0.  0.
<mgrwt>
<rscale>  0 0.10356026E+04</rscale>
<asrwt>0</asrwt>
<pdfrwt beam="1">  1        2 0.61154704E+00 0.10917159E+04</pdfrwt>
<pdfrwt beam="2">  1       -2 0.60474682E-01 0.10917159E+04</pdfrwt>
<totfact> 0.94614284E-01</totfact>
</mgrwt>
</event>
<event>
 4    1  0.9654646E-007  0.6903097E+03  0.7818608E-02  0.1004006E+00
         -2   -1    0    0    0  501 -0.00000000000E+00  0.00000000000E+00  0.95779398989E+03  0.95779398990E+03  0.25500000000E-02 0.  1.
          2   -1    0    0  501    0  0.00000000000E+00 -0.00000000000E+00 -0.35071130227E+03  0.35071130228E+03  0.25500000000E-02 0. -1.
    8880023    1    1    2    0    0 -0.16306564423E+03 -0.12699145740E+03  0.74589516994E+03  0.10163105064E+04  0.65864270000E+03 0.  0.
    8880022    1    1    2    0    0  0.16306564423E+03  0.12699145740E+03 -0.13881248232E+03  0.29219478579E+03  0.15294330000E+03 0.  0.
<mgrwt>
<rscale>  0 0.53928141E+03</rscale>
<asrwt>0</asrwt>
<pdfrwt beam="1">  1        2 0.53955586E-01 0.69030967E+03</pdfrwt>
<pdfrwt beam="2">  1       -2 0.14735292E+00 0.69030967E+03</pdfrwt>
<totfact> 0.29443801E+01</totfact>
</mgrwt>
</event>
<event>
 4    1  0.9654646E-007  0.6976231E+03  0.7818608E-02  0.1000721E+00
          2   -1    0    0  501    0  0.00000000000E+00  0.00000000000E+00  0.10665426606E+04  0.10665426606E+04  0.25500000000E-02 0. -1.
         -2   -1    0    0    0  501 -0.00000000000E+00 -0.00000000000E+00 -0.27833059315E+03  0.27833059316E+03  0.25500000000E-02 0.  1.
    8880023    1    1    2    0    0 -0.22792552473E+03  0.30294723786E+02  0.25202446906E+03  0.74175087083E+03  0.65864270000E+03 0.  1.
    8880022    1    1    2    0    0  0.22792552473E+03 -0.30294723786E+02  0.53618759841E+03  0.60312238295E+03  0.15294330000E+03 0.  0.
<mgrwt>
<rscale>  0 0.55335313E+03</rscale>
<asrwt>0</asrwt>
<pdfrwt beam="1">  1        2 0.16408349E+00 0.69762312E+03</pdfrwt>
<pdfrwt beam="2">  1       -2 0.42820091E-01 0.69762312E+03</pdfrwt>
<totfact> 0.12020283E+02</totfact>
</mgrwt>
</event>
<event>
 4    1  0.9654646E-007  0.8370802E+03  0.7818608E-02  0.9635711E-01
         -2   -1    0    0    0  501 -0.00000000000E+00  0.00000000000E+00  0.46577896064E+03  0.46577896065E+03  0.25500000000E-02 0.  1.
          2   -1    0    0  501    0  0.00000000000E+00 -0.00000000000E+00 -0.27668033788E+04  0.27668033788E+04  0.25500000000E-02 0. -1.
    8880023    1    1    2    0    0 -0.51660330894E+03 -0.37417236496E+01  0.32456457651E+02  0.83770914237E+03  0.65864270000E+03 0.  0.
    8880022    1    1    2    0    0  0.51660330894E+03  0.37417236496E+01 -0.23334808758E+04  0.23948731970E+04  0.15294330000E+03 0.  0.
<mgrwt>
<rscale>  0 0.74977040E+03</rscale>
<asrwt>0</asrwt>
<pdfrwt beam="1">  1        2 0.42566205E+00 0.83708015E+03</pdfrwt>
<pdfrwt beam="2">  1       -2 0.71658303E-01 0.83708015E+03</pdfrwt>
<totfact> 0.44564838E+00</totfact>
</mgrwt>
</event>
<event>
 4    1  0.9654646E-007  0.7516202E+03  0.7818608E-02  0.9827306E-01
         -2   -1    0    0    0  501 -0.00000000000E+00  0.00000000000E+00  0.56976091033E+03  0.56976091033E+03  0.25500000000E-02 0.  1.
          2   -1    0    0  501    0  0.00000000000E+00 -0.00000000000E+00 -0.80880874519E+03  0.80880874519E+03  0.25500000000E-02 0. -1.
    8880023    1    1    2    0    0  0.31561964068E+03 -0.17750180712E+03  0.21134346996E+03  0.78076815872E+03  0.65864270000E+03 0.  1.
    8880022    1    1    2    0    0 -0.31561964068E+03  0.17750180712E+03 -0.45039130482E+03  0.59780149681E+03  0.15294330000E+03 0.  0.
<mgrwt>
<rscale>  0 0.63917517E+03</rscale>
<asrwt>0</asrwt>
<pdfrwt beam="1">  1        2 0.12443211E+00 0.75162015E+03</pdfrwt>
<pdfrwt beam="2">  1       -2 0.87655525E-01 0.75162015E+03</pdfrwt>
<totfact> 0.38650813E+01</totfact>
</mgrwt>
</event>
<event>
 4    1  0.9654646E-007  0.9394018E+03  0.7818608E-02  0.9465529E-01
          2   -1    0    0  501    0  0.00000000000E+00  0.00000000000E+00  0.87325713152E+03  0.87325713152E+03  0.25500000000E-02 0. -1.
         -2   -1    0    0    0  501 -0.00000000000E+00 -0.00000000000E+00 -0.13177455590E+04  0.13177455590E+04  0.25500000000E-02 0.  1.
    8880023    1    1    2    0    0  0.56559212471E+02  0.66743278996E+03 -0.95151675792E+03  0.13371087542E+04  0.65864270000E+03 0.  0.
    8880022    1    1    2    0    0 -0.56559212471E+02 -0.66743278996E+03  0.50702833044E+03  0.85389393634E+03  0.15294330000E+03 0.  0.
<mgrwt>
<rscale>  0 0.86873606E+03</rscale>
<asrwt>0</asrwt>
<pdfrwt beam="1">  1        2 0.13434725E+00 0.93940177E+03</pdfrwt>
<pdfrwt beam="2">  1       -2 0.20273009E+00 0.93940177E+03</pdfrwt>
<totfact> 0.39000820E+00</totfact>
</mgrwt>
</event>
<event>
 4    1  0.9654646E-007  0.6750196E+03  0.7818608E-02  0.1012294E+00
          2   -1    0    0  501    0  0.00000000000E+00  0.00000000000E+00  0.41079963229E+03  0.41079963230E+03  0.25500000000E-02 0. -1.
         -2   -1    0    0    0  501 -0.00000000000E+00 -0.00000000000E+00 -0.10454780725E+04  0.10454780725E+04  0.25500000000E-02 0.  1.
    8880023    1    1    2    0    0 -0.83426178194E+02 -0.12198916596E+03 -0.89443192147E+03  0.11205623375E+04  0.65864270000E+03 0.  1.
    8880022    1    1    2    0    0  0.83426178194E+02  0.12198916596E+03  0.25975348124E+03  0.33571536732E+03  0.15294330000E+03 0.  0.
<mgrwt>
<rscale>  0 0.50573050E+03</rscale>
<asrwt>0</asrwt>
<pdfrwt beam="1">  1        2 0.63199944E-01 0.67501962E+03</pdfrwt>
<pdfrwt beam="2">  1       -2 0.16084278E+00 0.67501962E+03</pdfrwt>
<totfact> 0.19554470E+01</totfact>
</mgrwt>
</event>
<event>
 4    1  0.9654646E-007  0.6695199E+03  0.7818608E-02  0.1016009E+00
          2   -1    0    0  501    0  0.00000000000E+00  0.00000000000E+00  0.29018531710E+04  0.29018531710E+04  0.25500000000E-02 0. -1.
         -2   -1    0    0    0  501 -0.00000000000E+00 -0.00000000000E+00 -0.74310013650E+02  0.74310013693E+02  0.25500000000E-02 0.  1.
    8880023    1    1    2    0    0  0.10784498775E+03 -0.53066914482E+02  0.16175742326E+04  0.17506579458E+04  0.65864270000E+03 0.  1.
    8880022    1    1    2    0    0 -0.10784498775E+03  0.53066914482E+02  0.12099689248E+04  0.12255052390E+04  0.15294330000E+03 0.  0.
<mgrwt>
<rscale>  0 0.49154586E+03</rscale>
<asrwt>0</asrwt>
<pdfrwt beam="1">  1        2 0.44643894E+00 0.66951986E+03</pdfrwt>
<pdfrwt beam="2">  1       -2 0.11432310E-01 0.66951986E+03</pdfrwt>
<totfact> 0.11737027E+02</totfact>
</mgrwt>
</event>
<event>
 4    1  0.9654646E-007  0.6601879E+03  0.7818608E-02  0.1023965E+00
          2   -1    0    0  501    0  0.00000000000E+00  0.00000000000E+00  0.14444653006E+04  0.14444653006E+04  0.25500000000E-02 0. -1.
         -2   -1    0    0    0  501 -0.00000000000E+00 -0.00000000000E+00 -0.28130952530E+03  0.28130952531E+03  0.25500000000E-02 0.  1.
    8880023    1    1    2    0    0 -0.37139501106E+02  0.25662113129E+02  0.12062356008E+03  0.67111708077E+03  0.65864270000E+03 0.  1.
    8880022    1    1    2    0    0  0.37139501106E+02 -0.25662113129E+02  0.10425322152E+04  0.10546577451E+04  0.15294330000E+03 0.  0.
<mgrwt>
<rscale>  0 0.46282626E+03</rscale>
<asrwt>0</asrwt>
<pdfrwt beam="1">  1        2 0.22222542E+00 0.66018792E+03</pdfrwt>
<pdfrwt beam="2">  1       -2 0.43278390E-01 0.66018792E+03</pdfrwt>
<totfact> 0.71088353E+01</totfact>
</mgrwt>
</event>
<event>
 4    1  0.9654646E-007  0.6718895E+03  0.7818608E-02  0.1014343E+00
         -2   -1    0    0    0  501 -0.00000000000E+00  0.00000000000E+00  0.30470718602E+03  0.30470718604E+03  0.25500000000E-02 0.  1.
          2   -1    0    0  501    0  0.00000000000E+00 -0.00000000000E+00 -0.29540729852E+04  0.29540729852E+04  0.25500000000E-02 0. -1.
    8880023    1    1    2    0    0 -0.11696627347E+03  0.62803258929E+02 -0.74551303499E+02  0.67601291525E+03  0.65864270000E+03 0.  1.
    8880022    1    1    2    0    0  0.11696627347E+03 -0.62803258929E+02 -0.25748144957E+04  0.25827672560E+04  0.15294330000E+03 0.  0.
<mgrwt>
<rscale>  0 0.49784473E+03</rscale>
<asrwt>0</asrwt>
<pdfrwt beam="1">  1        2 0.45447275E+00 0.67188955E+03</pdfrwt>
<pdfrwt beam="2">  1       -2 0.46878031E-01 0.67188955E+03</pdfrwt>
<totfact> 0.86549894E+00</totfact>
</mgrwt>
</event>
<event>
 4    1  0.9654646E-007  0.7310320E+03  0.7818608E-02  0.9886885E-01
         -2   -1    0    0    0  501 -0.00000000000E+00  0.00000000000E+00  0.15368944925E+04  0.15368944925E+04  0.25500000000E-02 0.  1.
          2   -1    0    0  501    0  0.00000000000E+00 -0.00000000000E+00 -0.82083579694E+03  0.82083579695E+03  0.25500000000E-02 0. -1.
    8880023    1    1    2    0    0 -0.28646801399E+03 -0.13613824400E+03  0.14051213131E+04  0.15839108735E+04  0.65864270000E+03 0.  1.
    8880022    1    1    2    0    0  0.28646801399E+03  0.13613824400E+03 -0.68906261754E+03  0.77381941590E+03  0.15294330000E+03 0.  0.
<mgrwt>
<rscale>  0 0.60901118E+03</rscale>
<asrwt>0</asrwt>
<pdfrwt beam="1">  1        2 0.12628243E+00 0.73103198E+03</pdfrwt>
<pdfrwt beam="2">  1       -2 0.23644531E+00 0.73103198E+03</pdfrwt>
<totfact> 0.26764994E+00</totfact>
</mgrwt>
</event>
<event>
 4    1  0.9654646E-007  0.8554494E+03  0.7818608E-02  0.9601710E-01
         -2   -1    0    0    0  501 -0.00000000000E+00  0.00000000000E+00  0.34188418397E+03  0.34188418398E+03  0.25500000000E-02 0.  1.
          2   -1    0    0  501    0  0.00000000000E+00 -0.00000000000E+00 -0.24591199676E+04  0.24591199676E+04  0.25500000000E-02 0. -1.
    8880023    1    1    2    0    0 -0.81073894229E+02 -0.53982444239E+03 -0.31482134111E+03  0.91154050267E+03  0.65864270000E+03 0.  1.
    8880022    1    1    2    0    0  0.81073894229E+02  0.53982444239E+03 -0.18024144425E+04  0.18894636489E+04  0.15294330000E+03 0.  0.
<mgrwt>
<rscale>  0 0.77183106E+03</rscale>
<asrwt>0</asrwt>
<pdfrwt beam="1">  1        2 0.37832614E+00 0.85544936E+03</pdfrwt>
<pdfrwt beam="2">  1       -2 0.52597568E-01 0.85544936E+03</pdfrwt>
<totfact> 0.12915567E+01</totfact>
</mgrwt>
</event>
<event>
 4    1  0.9654646E-007  0.6725135E+03  0.7818608E-02  0.1013922E+00
          2   -1    0    0  501    0  0.00000000000E+00  0.00000000000E+00  0.22694339171E+04  0.22694339171E+04  0.25500000000E-02 0. -1.
         -2   -1    0    0    0  501 -0.00000000000E+00 -0.00000000000E+00 -0.24569825976E+03  0.24569825978E+03  0.25500000000E-02 0.  1.
    8880023    1    1    2    0    0 -0.60158339868E+02  0.12184086231E+03  0.23147865297E+03  0.71123610329E+03  0.65864270000E+03 0.  1.
    8880022    1    1    2    0    0  0.60158339868E+02 -0.12184086231E+03  0.17922570044E+04  0.18038960736E+04  0.15294330000E+03 0.  0.
<mgrwt>
<rscale>  0 0.49945379E+03</rscale>
<asrwt>0</asrwt>
<pdfrwt beam="1">  1        2 0.34914371E+00 0.67251351E+03</pdfrwt>
<pdfrwt beam="2">  1       -2 0.37799729E-01 0.67251351E+03</pdfrwt>
<totfact> 0.32701217E+01</totfact>
</mgrwt>
</event>
<event>
 4    1  0.9654646E-007  0.7069101E+03  0.7818608E-02  0.9969659E-01
         -2   -1    0    0    0  501 -0.00000000000E+00  0.00000000000E+00  0.81940020678E+03  0.81940020679E+03  0.25500000000E-02 0.  1.
          2   -1    0    0  501    0  0.00000000000E+00 -0.00000000000E+00 -0.40254495782E+03  0.40254495783E+03  0.25500000000E-02 0. -1.
    8880023    1    1    2    0    0  0.11286554230E+03 -0.23059286070E+03  0.54913794938E+03  0.89513931416E+03  0.65864270000E+03 0.  0.
    8880022    1    1    2    0    0 -0.11286554230E+03  0.23059286070E+03 -0.13228270041E+03  0.32680585045E+03  0.15294330000E+03 0.  0.
<mgrwt>
<rscale>  0 0.57000887E+03</rscale>
<asrwt>0</asrwt>
<pdfrwt beam="1">  1        2 0.61929994E-01 0.70691011E+03</pdfrwt>
<pdfrwt beam="2">  1       -2 0.12606157E+00 0.70691011E+03</pdfrwt>
<totfact> 0.37603864E+01</totfact>
</mgrwt>
</event>
<event>
 4    1  0.9654646E-007  0.9543345E+03  0.7818608E-02  0.9443905E-01
          2   -1    0    0  501    0  0.00000000000E+00  0.00000000000E+00  0.96651528003E+03  0.96651528003E+03  0.25500000000E-02 0. -1.
         -2   -1    0    0    0  501 -0.00000000000E+00 -0.00000000000E+00 -0.82264551893E+03  0.82264551893E+03  0.25500000000E-02 0.  1.
    8880023    1    1    2    0    0  0.62895317904E+03  0.28524015869E+03  0.40287638692E+03  0.10358878506E+04  0.65864270000E+03 0. -1.
    8880022    1    1    2    0    0 -0.62895317904E+03 -0.28524015869E+03 -0.25900662582E+03  0.75327294840E+03  0.15294330000E+03 0.  0.
<mgrwt>
<rscale>  0 0.88548894E+03</rscale>
<asrwt>0</asrwt>
<pdfrwt beam="1">  1        2 0.14869466E+00 0.95433446E+03</pdfrwt>
<pdfrwt beam="2">  1       -2 0.12656085E+00 0.95433446E+03</pdfrwt>
<totfact> 0.12259940E+01</totfact>
</mgrwt>
</event>
<event>
 4    1  0.9654646E-007  0.7881203E+03  0.7818608E-02  0.9737097E-01
         -2   -1    0    0    0  501 -0.00000000000E+00  0.00000000000E+00  0.15896563446E+04  0.15896563446E+04  0.25500000000E-02 0.  1.
          2   -1    0    0  501    0  0.00000000000E+00 -0.00000000000E+00 -0.72735973576E+03  0.72735973576E+03  0.25500000000E-02 0. -1.
    8880023    1    1    2    0    0  0.30190995111E+03  0.31011906687E+03  0.14021018136E+04  0.16084225677E+04  0.65864270000E+03 0.  1.
    8880022    1    1    2    0    0 -0.30190995111E+03 -0.31011906687E+03 -0.53980520473E+03  0.70859351273E+03  0.15294330000E+03 0.  0.
<mgrwt>
<rscale>  0 0.68850383E+03</rscale>
<asrwt>0</asrwt>
<pdfrwt beam="1">  1        2 0.11190150E+00 0.78812033E+03</pdfrwt>
<pdfrwt beam="2">  1       -2 0.24456252E+00 0.78812033E+03</pdfrwt>
<totfact> 0.27736412E+00</totfact>
</mgrwt>
</event>
<event>
 4    1  0.9654646E-007  0.7619758E+03  0.7818608E-02  0.9800019E-01
          2   -1    0    0  501    0  0.00000000000E+00  0.00000000000E+00  0.10866155401E+04  0.10866155401E+04  0.25500000000E-02 0. -1.
         -2   -1    0    0    0  501 -0.00000000000E+00 -0.00000000000E+00 -0.16626677752E+04  0.16626677752E+04  0.25500000000E-02 0.  1.
    8880023    1    1    2    0    0  0.37645153464E+03 -0.71282310955E+02 -0.15303930210E+04  0.17095934987E+04  0.65864270000E+03 0.  0.
    8880022    1    1    2    0    0 -0.37645153464E+03  0.71282310955E+02  0.95434078601E+03  0.10396898166E+04  0.15294330000E+03 0.  0.
<mgrwt>
<rscale>  0 0.65361527E+03</rscale>
<asrwt>0</asrwt>
<pdfrwt beam="1">  1        2 0.16717162E+00 0.76197581E+03</pdfrwt>
<pdfrwt beam="2">  1       -2 0.25579504E+00 0.76197581E+03</pdfrwt>
<totfact> 0.13598561E+00</totfact>
</mgrwt>
</event>
<event>
 4    1  0.9654646E-007  0.1316851E+04  0.7818608E-02  0.9051143E-01
         -2   -1    0    0    0  501 -0.00000000000E+00  0.00000000000E+00  0.14303269506E+04  0.14303269506E+04  0.25500000000E-02 0.  1.
          2   -1    0    0  501    0  0.00000000000E+00 -0.00000000000E+00 -0.26913941152E+04  0.26913941152E+04  0.25500000000E-02 0. -1.
    8880023    1    1    2    0    0  0.10925027682E+04 -0.32668750610E+03  0.95371524975E+03  0.16259366559E+04  0.65864270000E+03 0.  1.
    8880022    1    1    2    0    0 -0.10925027682E+04  0.32668750610E+03 -0.22147824143E+04  0.24957844099E+04  0.15294330000E+03 0.  0.
<mgrwt>
<rscale>  0 0.12731377E+04</rscale>
<asrwt>0</asrwt>
<pdfrwt beam="1">  1        2 0.41406063E+00 0.13168513E+04</pdfrwt>
<pdfrwt beam="2">  1       -2 0.22005030E+00 0.13168513E+04</pdfrwt>
<totfact> 0.25527917E-01</totfact>
</mgrwt>
</event>
<event>
 4    1  0.9654646E-007  0.7443852E+03  0.7818608E-02  0.9847353E-01
          2   -1    0    0  501    0  0.00000000000E+00  0.00000000000E+00  0.19380533438E+04  0.19380533438E+04  0.25500000000E-02 0. -1.
         -2   -1    0    0    0  501 -0.00000000000E+00 -0.00000000000E+00 -0.89672369632E+03  0.89672369633E+03  0.25500000000E-02 0.  1.
    8880023    1    1    2    0    0 -0.46674838286E+02 -0.34368673771E+03 -0.71850424352E+03  0.10345809144E+04  0.65864270000E+03 0.  0.
    8880022    1    1    2    0    0  0.46674838286E+02  0.34368673771E+03  0.17598338910E+04  0.18001961257E+04  0.15294330000E+03 0.  0.
<mgrwt>
<rscale>  0 0.62882081E+03</rscale>
<asrwt>0</asrwt>
<pdfrwt beam="1">  1        2 0.29816205E+00 0.74438520E+03</pdfrwt>
<pdfrwt beam="2">  1       -2 0.13795749E+00 0.74438520E+03</pdfrwt>
<totfact> 0.27976290E+00</totfact>
</mgrwt>
</event>
<event>
 4    1  0.9654646E-007  0.6664326E+03  0.7818608E-02  0.1018361E+00
         -2   -1    0    0    0  501 -0.00000000000E+00  0.00000000000E+00  0.10418227024E+03  0.10418227028E+03  0.25500000000E-02 0.  1.
          2   -1    0    0  501    0  0.00000000000E+00 -0.00000000000E+00 -0.20807603208E+04  0.20807603208E+04  0.25500000000E-02 0. -1.
    8880023    1    1    2    0    0 -0.10131811728E+03 -0.75358268081E+01 -0.10746750845E+04  0.12645390041E+04  0.65864270000E+03 0.  1.
    8880022    1    1    2    0    0  0.10131811728E+03  0.75358268081E+01 -0.90190296612E+03  0.92040358696E+03  0.15294330000E+03 0.  0.
<mgrwt>
<rscale>  0 0.48282875E+03</rscale>
<asrwt>0</asrwt>
<pdfrwt beam="1">  1        2 0.32011694E+00 0.66643256E+03</pdfrwt>
<pdfrwt beam="2">  1       -2 0.16028043E-01 0.66643256E+03</pdfrwt>
<totfact> 0.19501112E+02</totfact>
</mgrwt>
</event>
<event>
 4    1  0.9654646E-007  0.1247720E+04  0.7818608E-02  0.9112076E-01
         -2   -1    0    0    0  501 -0.00000000000E+00  0.00000000000E+00  0.89586516211E+03  0.89586516211E+03  0.25500000000E-02 0.  1.
          2   -1    0    0  501    0  0.00000000000E+00 -0.00000000000E+00 -0.16361924682E+04  0.16361924683E+04  0.25500000000E-02 0. -1.
    8880023    1    1    2    0    0  0.10245937645E+04  0.27055930787E+03 -0.76041252235E+03  0.14611749149E+04  0.65864270000E+03 0. -1.
    8880022    1    1    2    0    0 -0.10245937645E+04 -0.27055930787E+03  0.20085216207E+02  0.10708827155E+04  0.15294330000E+03 0.  0.
<mgrwt>
<rscale>  0 0.12008927E+04</rscale>
<asrwt>0</asrwt>
<pdfrwt beam="1">  1        2 0.25172192E+00 0.12477199E+04</pdfrwt>
<pdfrwt beam="2">  1       -2 0.13782541E+00 0.12477199E+04</pdfrwt>
<totfact> 0.38566683E+00</totfact>
</mgrwt>
</event>
<event>
 4    1  0.9654646E-007  0.7039746E+03  0.7818608E-02  0.9981096E-01
         -2   -1    0    0    0  501 -0.00000000000E+00  0.00000000000E+00  0.54195435875E+03  0.54195435875E+03  0.25500000000E-02 0.  1.
          2   -1    0    0  501    0  0.00000000000E+00 -0.00000000000E+00 -0.14277446319E+04  0.14277446319E+04  0.25500000000E-02 0. -1.
    8880023    1    1    2    0    0 -0.36243789043E+02 -0.24587894246E+03  0.28768003300E+03  0.76048673508E+03  0.65864270000E+03 0.  1.
    8880022    1    1    2    0    0  0.36243789043E+02  0.24587894246E+03 -0.11734703062E+04  0.12092122556E+04  0.15294330000E+03 0.  0.
<mgrwt>
<rscale>  0 0.56486974E+03</rscale>
<asrwt>0</asrwt>
<pdfrwt beam="1">  1        2 0.21965302E+00 0.70397463E+03</pdfrwt>
<pdfrwt beam="2">  1       -2 0.83377594E-01 0.70397463E+03</pdfrwt>
<totfact> 0.18068605E+01</totfact>
</mgrwt>
</event>
<event>
 4    1  0.9654646E-007  0.7352977E+03  0.7818608E-02  0.9873862E-01
          2   -1    0    0  501    0  0.00000000000E+00  0.00000000000E+00  0.21565336773E+04  0.21565336773E+04  0.25500000000E-02 0. -1.
         -2   -1    0    0    0  501 -0.00000000000E+00 -0.00000000000E+00 -0.32143237759E+03  0.32143237760E+03  0.25500000000E-02 0.  1.
    8880023    1    1    2    0    0  0.31031705687E+03  0.10274164914E+03  0.14461199021E+03  0.74938331729E+03  0.65864270000E+03 0.  1.
    8880022    1    1    2    0    0 -0.31031705687E+03 -0.10274164914E+03  0.16904893095E+04  0.17285827376E+04  0.15294330000E+03 0.  0.
<mgrwt>
<rscale>  0 0.61544918E+03</rscale>
<asrwt>0</asrwt>
<pdfrwt beam="1">  1        2 0.33177441E+00 0.73529771E+03</pdfrwt>
<pdfrwt beam="2">  1       -2 0.49451136E-01 0.73529771E+03</pdfrwt>
<totfact> 0.21974829E+01</totfact>
</mgrwt>
</event>
<event>
 4    1  0.9654646E-007  0.9044037E+03  0.7818608E-02  0.9518999E-01
         -2   -1    0    0    0  501 -0.00000000000E+00  0.00000000000E+00  0.86403441217E+03  0.86403441218E+03  0.25500000000E-02 0.  1.
          2   -1    0    0  501    0  0.00000000000E+00 -0.00000000000E+00 -0.19456838456E+04  0.19456838456E+04  0.25500000000E-02 0. -1.
    8880023    1    1    2    0    0 -0.54638154170E+03  0.29258015262E+03  0.54939362075E+03  0.10581963389E+04  0.65864270000E+03 0.  0.
    8880022    1    1    2    0    0  0.54638154170E+03 -0.29258015262E+03 -0.16310430542E+04  0.17515219189E+04  0.15294330000E+03 0.  0.
<mgrwt>
<rscale>  0 0.82897492E+03</rscale>
<asrwt>0</asrwt>
<pdfrwt beam="1">  1        2 0.29933598E+00 0.90440375E+03</pdfrwt>
<pdfrwt beam="2">  1       -2 0.13292837E+00 0.90440375E+03</pdfrwt>
<totfact> 0.29707792E+00</totfact>
</mgrwt>
</event>
<event>
 4    1  0.9654646E-007  0.8732702E+03  0.7818608E-02  0.9570381E-01
         -2   -1    0    0    0  501 -0.00000000000E+00  0.00000000000E+00  0.57531928049E+03  0.57531928050E+03  0.25500000000E-02 0.  1.
          2   -1    0    0  501    0  0.00000000000E+00 -0.00000000000E+00 -0.10983356094E+04  0.10983356094E+04  0.25500000000E-02 0. -1.
    8880023    1    1    2    0    0  0.13914867251E+03  0.55626278672E+03 -0.62182106748E+03  0.10720365139E+04  0.65864270000E+03 0.  0.
    8880022    1    1    2    0    0 -0.13914867251E+03 -0.55626278672E+03  0.98804738564E+02  0.60161837599E+03  0.15294330000E+03 0.  0.
<mgrwt>
<rscale>  0 0.79287992E+03</rscale>
<asrwt>0</asrwt>
<pdfrwt beam="1">  1        2 0.16897471E+00 0.87327020E+03</pdfrwt>
<pdfrwt beam="2">  1       -2 0.88510659E-01 0.87327020E+03</pdfrwt>
<totfact> 0.24115286E+01</totfact>
</mgrwt>
</event>
<event>
 4    1  0.9654646E-007  0.7436089E+03  0.7818608E-02  0.9849557E-01
         -2   -1    0    0    0  501 -0.00000000000E+00  0.00000000000E+00  0.14747970296E+03  0.14747970298E+03  0.25500000000E-02 0.  1.
          2   -1    0    0  501    0  0.00000000000E+00 -0.00000000000E+00 -0.29008309831E+04  0.29008309831E+04  0.25500000000E-02 0. -1.
    8880023    1    1    2    0    0 -0.30137101439E+03  0.16828402523E+03 -0.95292677859E+03  0.12087281138E+04  0.65864270000E+03 0.  0.
    8880022    1    1    2    0    0  0.30137101439E+03 -0.16828402523E+03 -0.18004245016E+04  0.18395825723E+04  0.15294330000E+03 0.  0.
<mgrwt>
<rscale>  0 0.62769530E+03</rscale>
<asrwt>0</asrwt>
<pdfrwt beam="1">  1        2 0.44628165E+00 0.74360891E+03</pdfrwt>
<pdfrwt beam="2">  1       -2 0.22689187E-01 0.74360891E+03</pdfrwt>
<totfact> 0.36112690E+01</totfact>
</mgrwt>
</event>
<event>
 4    1  0.9654646E-007  0.8417406E+03  0.7818608E-02  0.9626907E-01
          2   -1    0    0  501    0  0.00000000000E+00  0.00000000000E+00  0.15367093949E+04  0.15367093949E+04  0.25500000000E-02 0. -1.
         -2   -1    0    0    0  501 -0.00000000000E+00 -0.00000000000E+00 -0.60292830851E+03  0.60292830852E+03  0.25500000000E-02 0.  1.
    8880023    1    1    2    0    0  0.52297818687E+03  0.34798291052E+02 -0.21408056411E+03  0.86853773619E+03  0.65864270000E+03 0.  0.
    8880022    1    1    2    0    0 -0.52297818687E+03 -0.34798291052E+02  0.11478616505E+04  0.12710999672E+04  0.15294330000E+03 0.  0.
<mgrwt>
<rscale>  0 0.75540624E+03</rscale>
<asrwt>0</asrwt>
<pdfrwt beam="1">  1        2 0.23641683E+00 0.84174064E+03</pdfrwt>
<pdfrwt beam="2">  1       -2 0.92758201E-01 0.84174064E+03</pdfrwt>
<totfact> 0.12086451E+01</totfact>
</mgrwt>
</event>
<event>
 4    1  0.9654646E-007  0.8658159E+03  0.7818608E-02  0.9583301E-01
          2   -1    0    0  501    0  0.00000000000E+00  0.00000000000E+00  0.44479856224E+03  0.44479856225E+03  0.25500000000E-02 0. -1.
         -2   -1    0    0    0  501 -0.00000000000E+00 -0.00000000000E+00 -0.15863029872E+04  0.15863029872E+04  0.25500000000E-02 0.  1.
    8880023    1    1    2    0    0  0.25367672969E+03  0.50147289531E+03 -0.11610666696E+04  0.14483483578E+04  0.65864270000E+03 0.  0.
    8880022    1    1    2    0    0 -0.25367672969E+03 -0.50147289531E+03  0.19562244707E+02  0.58275319163E+03  0.15294330000E+03 0.  0.
<mgrwt>
<rscale>  0 0.78411384E+03</rscale>
<asrwt>0</asrwt>
<pdfrwt beam="1">  1        2 0.68430549E-01 0.86581589E+03</pdfrwt>
<pdfrwt beam="2">  1       -2 0.24404661E+00 0.86581589E+03</pdfrwt>
<totfact> 0.49953723E+00</totfact>
</mgrwt>
</event>
<event>
 4    1  0.9654646E-007  0.7249219E+03  0.7818608E-02  0.9906271E-01
          2   -1    0    0  501    0  0.00000000000E+00  0.00000000000E+00  0.64484502520E+03  0.64484502520E+03  0.25500000000E-02 0. -1.
         -2   -1    0    0    0  501 -0.00000000000E+00 -0.00000000000E+00 -0.11397475887E+04  0.11397475887E+04  0.25500000000E-02 0.  1.
    8880023    1    1    2    0    0  0.21724324705E+03 -0.21096664140E+03 -0.96370229669E+03  0.12059161974E+04  0.65864270000E+03 0.  1.
    8880022    1    1    2    0    0 -0.21724324705E+03  0.21096664140E+03  0.46879973320E+03  0.57867641652E+03  0.15294330000E+03 0.  0.
<mgrwt>
<rscale>  0 0.59958343E+03</rscale>
<asrwt>0</asrwt>
<pdfrwt beam="1">  1        2 0.99206927E-01 0.72492190E+03</pdfrwt>
<pdfrwt beam="2">  1       -2 0.17534578E+00 0.72492190E+03</pdfrwt>
<totfact> 0.90496561E+00</totfact>
</mgrwt>
</event>
<event>
 4    1  0.9654646E-007  0.8017586E+03  0.7818608E-02  0.9707006E-01
          2   -1    0    0  501    0  0.00000000000E+00  0.00000000000E+00  0.12799107706E+04  0.12799107706E+04  0.25500000000E-02 0. -1.
         -2   -1    0    0    0  501 -0.00000000000E+00 -0.00000000000E+00 -0.32334927846E+03  0.32334927847E+03  0.25500000000E-02 0.  1.
    8880023    1    1    2    0    0  0.20107411703E+03  0.41057998396E+03  0.54565319636E+03  0.96982180875E+03  0.65864270000E+03 0.  1.
    8880022    1    1    2    0    0 -0.20107411703E+03 -0.41057998396E+03  0.41090829581E+03  0.63343824036E+03  0.15294330000E+03 0. -1.
<mgrwt>
<rscale>  0 0.70601166E+03</rscale>
<asrwt>0</asrwt>
<pdfrwt beam="1">  1        2 0.19690935E+00 0.80175865E+03</pdfrwt>
<pdfrwt beam="2">  1       -2 0.49746042E-01 0.80175865E+03</pdfrwt>
<totfact> 0.65799137E+01</totfact>
</mgrwt>
</event>
<event>
 4    1  0.9654646E-007  0.9664301E+03  0.7818608E-02  0.9426859E-01
          2   -1    0    0  501    0  0.00000000000E+00  0.00000000000E+00  0.26125785975E+04  0.26125785975E+04  0.25500000000E-02 0. -1.
         -2   -1    0    0    0  501 -0.00000000000E+00 -0.00000000000E+00 -0.47721544840E+03  0.47721544841E+03  0.25500000000E-02 0.  1.
    8880023    1    1    2    0    0 -0.36372131533E+02  0.70629590594E+03  0.15167818169E+03  0.97826035173E+03  0.65864270000E+03 0.  1.
    8880022    1    1    2    0    0  0.36372131533E+02 -0.70629590594E+03  0.19836849675E+04  0.21115336942E+04  0.15294330000E+03 0.  0.
<mgrwt>
<rscale>  0 0.89897892E+03</rscale>
<asrwt>0</asrwt>
<pdfrwt beam="1">  1        2 0.40193517E+00 0.96643005E+03</pdfrwt>
<pdfrwt beam="2">  1       -2 0.73417762E-01 0.96643005E+03</pdfrwt>
<totfact> 0.50970794E+00</totfact>
</mgrwt>
</event>
<event>
 4    1  0.9654646E-007  0.6715486E+03  0.7818608E-02  0.1014576E+00
         -2   -1    0    0    0  501 -0.00000000000E+00  0.00000000000E+00  0.99885817773E+03  0.99885817773E+03  0.25500000000E-02 0.  1.
          2   -1    0    0  501    0  0.00000000000E+00 -0.00000000000E+00 -0.20397911326E+03  0.20397911328E+03  0.25500000000E-02 0. -1.
    8880023    1    1    2    0    0 -0.88176839421E+02 -0.96913032895E+02  0.72846422631E+03  0.99077627456E+03  0.65864270000E+03 0.  0.
    8880022    1    1    2    0    0  0.88176839421E+02  0.96913032895E+02  0.66414838159E+02  0.21206101645E+03  0.15294330000E+03 0.  0.
<mgrwt>
<rscale>  0 0.49695711E+03</rscale>
<asrwt>0</asrwt>
<pdfrwt beam="1">  1        2 0.31381401E-01 0.67154858E+03</pdfrwt>
<pdfrwt beam="2">  1       -2 0.15367049E+00 0.67154858E+03</pdfrwt>
<totfact> 0.48264882E+01</totfact>
</mgrwt>
</event>
<event>
 4    1  0.2397287E-006  0.9918286E+03  0.7818608E-02  0.9392327E-01
         -2   -1    0    0    0  501 -0.00000000000E+00  0.00000000000E+00  0.14078428587E+04  0.14078428587E+04  0.25500000000E-02 0.  1.
          2   -1    0    0  501    0  0.00000000000E+00 -0.00000000000E+00 -0.21990621934E+04  0.21990621934E+04  0.25500000000E-02 0. -1.
    8880023    1    1    2    0    0 -0.73588879534E+03 -0.91550545469E+02  0.11527345011E+04  0.15206974905E+04  0.65864270000E+03 0.  1.
    8880022    1    1    2    0    0  0.73588879534E+03  0.91550545469E+02 -0.19439538357E+04  0.20862075616E+04  0.15294330000E+03 0.  0.
<mgrwt>
<rscale>  0 0.92709821E+03</rscale>
<asrwt>0</asrwt>
<pdfrwt beam="1">  1        2 0.33831726E+00 0.99182863E+03</pdfrwt>
<pdfrwt beam="2">  1       -2 0.21659121E+00 0.99182863E+03</pdfrwt>
<totfact> 0.53930504E-01</totfact>
</mgrwt>
</event>
<event>
 4    1  0.9654646E-007  0.1058693E+04  0.7818608E-02  0.9308504E-01
          2   -1    0    0  501    0  0.00000000000E+00  0.00000000000E+00  0.14181543760E+04  0.14181543760E+04  0.25500000000E-02 0. -1.
         -2   -1    0    0    0  501 -0.00000000000E+00 -0.00000000000E+00 -0.70809934268E+03  0.70809934269E+03  0.25500000000E-02 0.  1.
    8880023    1    1    2    0    0 -0.69995751792E+03  0.44393630603E+03  0.57400953564E+02  0.10602476345E+04  0.65864270000E+03 0.  0.
    8880022    1    1    2    0    0  0.69995751792E+03 -0.44393630603E+03  0.65265407974E+03  0.10660060842E+04  0.15294330000E+03 0.  0.
<mgrwt>
<rscale>  0 0.10000373E+04</rscale>
<asrwt>0</asrwt>
<pdfrwt beam="1">  1        2 0.21817760E+00 0.10586927E+04</pdfrwt>
<pdfrwt beam="2">  1       -2 0.10893836E+00 0.10586927E+04</pdfrwt>
<totfact> 0.93957649E+00</totfact>
</mgrwt>
</event>
<event>
 4    1  0.9654646E-007  0.7769871E+03  0.7818608E-02  0.9762962E-01
         -2   -1    0    0    0  501 -0.00000000000E+00  0.00000000000E+00  0.21138526546E+03  0.21138526547E+03  0.25500000000E-02 0.  1.
          2   -1    0    0  501    0  0.00000000000E+00 -0.00000000000E+00 -0.24508454128E+04  0.24508454128E+04  0.25500000000E-02 0. -1.
    8880023    1    1    2    0    0  0.34530600826E+02 -0.41073885115E+03 -0.64979039446E+03  0.10128852498E+04  0.65864270000E+03 0.  1.
    8880022    1    1    2    0    0 -0.34530600826E+02  0.41073885115E+03 -0.15896697529E+04  0.16493454285E+04  0.15294330000E+03 0.  0.
<mgrwt>
<rscale>  0 0.67388634E+03</rscale>
<asrwt>0</asrwt>
<pdfrwt beam="1">  1        2 0.37705312E+00 0.77698711E+03</pdfrwt>
<pdfrwt beam="2">  1       -2 0.32520812E-01 0.77698711E+03</pdfrwt>
<totfact> 0.33978380E+01</totfact>
</mgrwt>
</event>
<event>
 4    1  0.9654646E-007  0.7450696E+03  0.7818608E-02  0.9845418E-01
         -2   -1    0    0    0  501 -0.00000000000E+00  0.00000000000E+00  0.89068875256E+02  0.89068875292E+02  0.25500000000E-02 0.  1.
          2   -1    0    0  501    0  0.00000000000E+00 -0.00000000000E+00 -0.35686216348E+04  0.35686216348E+04  0.25500000000E-02 0. -1.
    8880023    1    1    2    0    0 -0.88776693498E+02 -0.33680442397E+03 -0.24067474402E+04  0.25194368356E+04  0.65864270000E+03 0.  1.
    8880022    1    1    2    0    0  0.88776693498E+02  0.33680442397E+03 -0.10728053194E+04  0.11382536745E+04  0.15294330000E+03 0. -1.
<mgrwt>
<rscale>  0 0.62981068E+03</rscale>
<asrwt>0</asrwt>
<pdfrwt beam="1">  1        2 0.54901860E+00 0.74506961E+03</pdfrwt>
<pdfrwt beam="2">  1       -2 0.13702907E-01 0.74506961E+03</pdfrwt>
<totfact> 0.32034466E+01</totfact>
</mgrwt>
</event>
<event>
 4    1  0.9654646E-007  0.6628763E+03  0.7818608E-02  0.1021386E+00
          2   -1    0    0  501    0  0.00000000000E+00  0.00000000000E+00  0.76625282948E+03  0.76625282949E+03  0.25500000000E-02 0. -1.
         -2   -1    0    0    0  501 -0.00000000000E+00 -0.00000000000E+00 -0.54358704178E+03  0.54358704179E+03  0.25500000000E-02 0.  1.
    8880023    1    1    2    0    0  0.74573558295E+02 -0.57934543493E+01 -0.32360804661E+03  0.73764975009E+03  0.65864270000E+03 0.  1.
    8880022    1    1    2    0    0 -0.74573558295E+02  0.57934543493E+01  0.54627383432E+03  0.57219012119E+03  0.15294330000E+03 0.  0.
<mgrwt>
<rscale>  0 0.47189863E+03</rscale>
<asrwt>0</asrwt>
<pdfrwt beam="1">  1        2 0.11788505E+00 0.66287630E+03</pdfrwt>
<pdfrwt beam="2">  1       -2 0.83628776E-01 0.66287630E+03</pdfrwt>
<totfact> 0.46548701E+01</totfact>
</mgrwt>
</event>
<event>
 4    1  0.9654646E-007  0.6971834E+03  0.7818608E-02  0.1000909E+00
         -2   -1    0    0    0  501 -0.00000000000E+00  0.00000000000E+00  0.13378239732E+03  0.13378239734E+03  0.25500000000E-02 0.  1.
          2   -1    0    0  501    0  0.00000000000E+00 -0.00000000000E+00 -0.32569488791E+04  0.32569488791E+04  0.25500000000E-02 0. -1.
    8880023    1    1    2    0    0 -0.84804161946E+02 -0.21227980314E+03 -0.84258268077E+03  0.10936225313E+04  0.65864270000E+03 0.  1.
    8880022    1    1    2    0    0  0.84804161946E+02  0.21227980314E+03 -0.22805838010E+04  0.22971087452E+04  0.15294330000E+03 0.  0.
<mgrwt>
<rscale>  0 0.55253348E+03</rscale>
<asrwt>0</asrwt>
<pdfrwt beam="1">  1        2 0.50106900E+00 0.69718338E+03</pdfrwt>
<pdfrwt beam="2">  1       -2 0.20581910E-01 0.69718338E+03</pdfrwt>
<totfact> 0.25981525E+01</totfact>
</mgrwt>
</event>
<event>
 4    1  0.9654646E-007  0.7039009E+03  0.7818608E-02  0.9981388E-01
          2   -1    0    0  501    0  0.00000000000E+00  0.00000000000E+00  0.45802522616E+03  0.45802522617E+03  0.25500000000E-02 0. -1.
         -2   -1    0    0    0  501 -0.00000000000E+00 -0.00000000000E+00 -0.13669086930E+04  0.13669086930E+04  0.25500000000E-02 0.  1.
    8880023    1    1    2    0    0  0.15539712011E+03  0.19369552857E+03  0.15587694487E+03  0.72095357058E+03  0.65864270000E+03 0. -1.
    8880022    1    1    2    0    0 -0.15539712011E+03 -0.19369552857E+03 -0.10647604117E+04  0.11039803486E+04  0.15294330000E+03 0.  0.
<mgrwt>
<rscale>  0 0.56473921E+03</rscale>
<asrwt>0</asrwt>
<pdfrwt beam="1">  1        2 0.70465420E-01 0.70390087E+03</pdfrwt>
<pdfrwt beam="2">  1       -2 0.21029364E+00 0.70390087E+03</pdfrwt>
<totfact> 0.79736789E+00</totfact>
</mgrwt>
</event>
<event>
 4    1  0.9654646E-007  0.7228623E+03  0.7818608E-02  0.9913017E-01
         -2   -1    0    0    0  501 -0.00000000000E+00  0.00000000000E+00  0.15982689457E+04  0.15982689457E+04  0.25500000000E-02 0.  1.
          2   -1    0    0  501    0  0.00000000000E+00 -0.00000000000E+00 -0.20891883300E+03  0.20891883301E+03  0.25500000000E-02 0. -1.
    8880023    1    1    2    0    0 -0.29357852228E+03  0.50312587449E+02  0.12511475159E+04  0.14449567530E+04  0.65864270000E+03 0.  0.
    8880022    1    1    2    0    0  0.29357852228E+03 -0.50312587449E+02  0.13820259674E+03  0.36223102567E+03  0.15294330000E+03 0.  0.
<mgrwt>
<rscale>  0 0.59634542E+03</rscale>
<asrwt>0</asrwt>
<pdfrwt beam="1">  1        2 0.32141360E-01 0.72286230E+03</pdfrwt>
<pdfrwt beam="2">  1       -2 0.24588752E+00 0.72286230E+03</pdfrwt>
<totfact> 0.11530701E+01</totfact>
</mgrwt>
</event>
